    -----------------------------------------------------------------------
          Psi4: An Open-Source Ab Initio Electronic Structure Package
                              Psi4 1.0.0 Driver

                          Git: Rev {master} 6a9a71b 

    J. M. Turney, A. C. Simmonett, R. M. Parrish, E. G. Hohenstein,
    F. A. Evangelista, J. T. Fermann, B. J. Mintz, L. A. Burns, J. J. Wilke,
    M. L. Abrams, N. J. Russ, M. L. Leininger, C. L. Janssen, E. T. Seidl,
    W. D. Allen, H. F. Schaefer, R. A. King, E. F. Valeev, C. D. Sherrill,
    and T. D. Crawford, WIREs Comput. Mol. Sci. 2, 556-565 (2012)
    (doi: 10.1002/wcms.93)

                         Additional Contributions by
    A. E. DePrince, U. Bozkaya, A. Yu. Sokolov, D. G. A. Smith, R. Di Remigio,
    R. M. Richard, J. F. Gonthier, H. R. McAlexander, M. Saitow, and
    B. P. Pritchard
    -----------------------------------------------------------------------


    Psi4 started on: Mon Feb 20 17:16:57 2017

    Process ID:  27937
    PSI4DATADIR: /Users/sternc1/anaconda/share/psi4
    Memory level set to 256.000 MB

  ==> Input File <==

--------------------------------------------------------------------------

memory 1000 mb

molecule butane {
  symmetry C1
  0 1 
  H      1.604   0.760   -8.260
  H      1.745   2.388   -8.880
  H      2.043   1.024   -9.930
  C      2.142   1.395   -8.932
  H      4.169   2.051   -9.210
  H      3.731   1.788   -7.539
  C      3.631   1.416   -8.537
  H      4.242   -0.432   -7.629
  H      3.575   -0.616   -9.233
  C      4.203   -0.012   -8.612
  H      6.019   -0.959   -9.259
  H      6.250   0.637   -8.587
  H      5.584   0.454   -10.191
  C      5.622   0.033   -9.207
  units Angstrom
}

dih_string = "4 7 10 14 140"
set optking fixed_dihedral = $dih_string

optimize('MP2/6-31G(d)')
--------------------------------------------------------------------------

  Memory set to 1000.000 MiB by Python script.
gradient() will perform analytic gradient computation.
    SCF Algorithm Type (re)set to DF.

*** tstart() called on lski1497
*** at Mon Feb 20 17:16:59 2017


         ---------------------------------------------------------
                                   SCF
            by Justin Turney, Rob Parrish, and Andy Simmonett
                              RHF Reference
                        1 Threads,   1000 MiB Core
         ---------------------------------------------------------

  ==> Geometry <==

    Molecular point group: c1
    Full point group: C1

    Geometry (in Angstrom), charge = 0, multiplicity = 1:

       Center              X                  Y                   Z               Mass       
    ------------   -----------------  -----------------  -----------------  -----------------
           H         -2.294927354890     0.051739706768     0.570641735300     1.007825032070
           H         -2.153927354890     1.679739706768    -0.049358264700     1.007825032070
           H         -1.855927354890     0.315739706768    -1.099358264700     1.007825032070
           C         -1.756927354890     0.686739706768    -0.101358264700    12.000000000000
           H          0.270072645110     1.342739706768    -0.379358264700     1.007825032070
           H         -0.167927354890     1.079739706768     1.291641735300     1.007825032070
           C         -0.267927354890     0.707739706768     0.293641735300    12.000000000000
           H          0.343072645110    -1.140260293232     1.201641735300     1.007825032070
           H         -0.323927354890    -1.324260293232    -0.402358264700     1.007825032070
           C          0.304072645110    -0.720260293232     0.218641735300    12.000000000000
           H          2.120072645110    -1.667260293232    -0.428358264700     1.007825032070
           H          2.351072645110    -0.071260293232     0.243641735300     1.007825032070
           H          1.685072645110    -0.254260293232    -1.360358264700     1.007825032070
           C          1.723072645110    -0.675260293232    -0.376358264700    12.000000000000

  Running in c1 symmetry.

  Rotational constants: A =      0.67207  B =      0.12768  C =      0.12284 [cm^-1]
  Rotational constants: A =  20148.03356  B =   3827.83283  C =   3682.51788 [MHz]
  Nuclear repulsion =  132.163072371452358

  Charge       = 0
  Multiplicity = 1
  Electrons    = 34
  Nalpha       = 17
  Nbeta        = 17

  ==> Algorithm <==

  SCF Algorithm Type is DF.
  DIIS enabled.
  MOM disabled.
  Fractional occupation disabled.
  Guess Type is SAD.
  Energy threshold   = 1.00e-10
  Density threshold  = 1.00e-10
  Integral threshold = 0.00e+00

  ==> Primary Basis <==

  Basis Set: 6-31G(D)
    Number of shells: 44
    Number of basis function: 80
    Number of Cartesian functions: 80
    Spherical Harmonics?: false
    Max angular momentum: 2

  ==> Pre-Iterations <==

   -------------------------------------------------------
    Irrep   Nso     Nmo     Nalpha   Nbeta   Ndocc  Nsocc
   -------------------------------------------------------
     A         80      80       0       0       0       0
   -------------------------------------------------------
    Total      80      80      17      17      17       0
   -------------------------------------------------------

  ==> Integral Setup <==

  ==> DFJK: Density-Fitted J/K Matrices <==

    J tasked:                  Yes
    K tasked:                  Yes
    wK tasked:                  No
    OpenMP threads:              1
    Integrals threads:           1
    Memory (MB):               715
    Algorithm:                Core
    Integral Cache:           NONE
    Schwarz Cutoff:          1E-12
    Fitting Condition:       1E-12

   => Auxiliary Basis Set <=

  Basis Set: 
    Number of shells: 186
    Number of basis function: 574
    Number of Cartesian functions: 574
    Spherical Harmonics?: false
    Max angular momentum: 3

  Minimum eigenvalue in the overlap matrix is 4.6090036161E-03.
  Using Symmetric Orthogonalization.
  SCF Guess: Superposition of Atomic Densities via on-the-fly atomic UHF.

  ==> Iterations <==

                           Total Energy        Delta E     RMS |[F,P]|

   @DF-RHF iter   0:  -158.97073588929084   -1.58971e+02   4.74421e-02 
   @DF-RHF iter   1:  -157.20335200647895    1.76738e+00   3.89202e-03 
   @DF-RHF iter   2:  -157.28109516983733   -7.77432e-02   1.09527e-03 DIIS
   @DF-RHF iter   3:  -157.28908752767893   -7.99236e-03   2.48356e-04 DIIS
   @DF-RHF iter   4:  -157.28941915151620   -3.31624e-04   7.63051e-05 DIIS
   @DF-RHF iter   5:  -157.28945370577435   -3.45543e-05   1.23707e-05 DIIS
   @DF-RHF iter   6:  -157.28945480630546   -1.10053e-06   2.54211e-06 DIIS
   @DF-RHF iter   7:  -157.28945483681048   -3.05050e-08   6.83483e-07 DIIS
   @DF-RHF iter   8:  -157.28945483928788   -2.47741e-09   1.04202e-07 DIIS
   @DF-RHF iter   9:  -157.28945483938384   -9.59517e-11   2.38890e-08 DIIS
   @DF-RHF iter  10:  -157.28945483938844   -4.60432e-12   5.21768e-09 DIIS
   @DF-RHF iter  11:  -157.28945483938884   -3.97904e-13   1.44281e-09 DIIS
   @DF-RHF iter  12:  -157.28945483938895   -1.13687e-13   4.00685e-10 DIIS
   @DF-RHF iter  13:  -157.28945483938895    0.00000e+00   8.03804e-11 DIIS

  ==> Post-Iterations <==

    Orbital Energies (a.u.)
    -----------------------

    Doubly Occupied:                                                      

       1A    -11.206695     2A    -11.206111     3A    -11.200615  
       4A    -11.200554     5A     -1.071170     6A     -0.980672  
       7A     -0.862967     8A     -0.794247     9A     -0.643348  
      10A     -0.593237    11A     -0.585854    12A     -0.559595  
      13A     -0.512633    14A     -0.509151    15A     -0.469429  
      16A     -0.468497    17A     -0.441040  

    Virtual:                                                              

      18A      0.235026    19A      0.268689    20A      0.291994  
      21A      0.300044    22A      0.326112    23A      0.334579  
      24A      0.334704    25A      0.345928    26A      0.350100  
      27A      0.356623    28A      0.418323    29A      0.440779  
      30A      0.448012    31A      0.705764    32A      0.722396  
      33A      0.741283    34A      0.767973    35A      0.788612  
      36A      0.837654    37A      0.839650    38A      0.933766  
      39A      0.944001    40A      1.007739    41A      1.063812  
      42A      1.082941    43A      1.168376    44A      1.191046  
      45A      1.193698    46A      1.208760    47A      1.214393  
      48A      1.220885    49A      1.246438    50A      1.256967  
      51A      1.265463    52A      1.280610    53A      1.290964  
      54A      1.499188    55A      1.649810    56A      1.729244  
      57A      1.762923    58A      1.925840    59A      1.967746  
      60A      2.117135    61A      2.194431    62A      2.231852  
      63A      2.296597    64A      2.302048    65A      2.347685  
      66A      2.441869    67A      2.531818    68A      2.634135  
      69A      2.657978    70A      2.699065    71A      2.712899  
      72A      2.752062    73A      2.776728    74A      2.889780  
      75A      3.013819    76A      3.098688    77A      4.577395  
      78A      4.669723    79A      4.804510    80A      4.967550  

    Final Occupation by Irrep:
              A 
    DOCC [    17 ]

  Energy converged.

  @DF-RHF Final Energy:  -157.28945483938895

   => Energetics <=

    Nuclear Repulsion Energy =            132.1630723714523583
    One-Electron Energy =                -472.2934234522061843
    Two-Electron Energy =                 182.8408962413648169
    DFT Exchange-Correlation Energy =       0.0000000000000000
    Empirical Dispersion Energy =           0.0000000000000000
    PCM Polarization Energy =               0.0000000000000000
    EFP Energy =                            0.0000000000000000
    Total Energy =                       -157.2894548393890091


  Saving occupied orbitals to File 180.

*** tstop() called on lski1497 at Mon Feb 20 17:17:06 2017
Module time:
	user time   =       4.89 seconds =       0.08 minutes
	system time =       0.16 seconds =       0.00 minutes
	total time  =          7 seconds =       0.12 minutes
Total time:
	user time   =       4.89 seconds =       0.08 minutes
	system time =       0.16 seconds =       0.00 minutes
	total time  =          7 seconds =       0.12 minutes


Properties will be evaluated at   0.000000,   0.000000,   0.000000 Bohr

Properties computed using the SCF density matrix

  Nuclear Dipole Moment: (a.u.)
     X:    -0.0256      Y:     0.0116      Z:    -0.3858

  Electronic Dipole Moment: (a.u.)
     X:     0.0276      Y:    -0.0128      Z:     0.4128

  Dipole Moment: (a.u.)
     X:     0.0020      Y:    -0.0011      Z:     0.0270     Total:     0.0271

  Dipole Moment: (Debye)
     X:     0.0052      Y:    -0.0029      Z:     0.0686     Total:     0.0688


  //>>>>>>>>>>>>>>>>>>>>>>>>>>>>>>>>>>>//
  //               DFMP2               //
  //<<<<<<<<<<<<<<<<<<<<<<<<<<<<<<<<<<<//


*** tstart() called on lski1497
*** at Mon Feb 20 17:17:06 2017


*** tstop() called on lski1497 at Mon Feb 20 17:17:07 2017
Module time:
	user time   =       0.53 seconds =       0.01 minutes
	system time =       0.00 seconds =       0.00 minutes
	total time  =          1 seconds =       0.02 minutes
Total time:
	user time   =       5.45 seconds =       0.09 minutes
	system time =       0.17 seconds =       0.00 minutes
	total time  =          8 seconds =       0.13 minutes
	 --------------------------------------------------------
	                          DF-MP2                         
	      2nd-Order Density-Fitted Moller-Plesset Theory     
	              RMP2 Wavefunction,   1 Threads             
	                                                         
	        Rob Parrish, Justin Turney, Andy Simmonett,      
	           Ed Hohenstein, and C. David Sherrill          
	 --------------------------------------------------------

   => Auxiliary Basis Set <=

  Basis Set: 
    Number of shells: 132
    Number of basis function: 364
    Number of Cartesian functions: 414
    Spherical Harmonics?: true
    Max angular momentum: 3

	 --------------------------------------------------------
	                 NBF =    80, NAUX =   364
	 --------------------------------------------------------
	   CLASS    FOCC     OCC    AOCC    AVIR     VIR    FVIR
	   PAIRS       0      17      17      63      63       0
	 --------------------------------------------------------

DGAS Warning! /src/lib/libfock/apps.cc:80 is not currently checking restricted

         ------------------------------------------------------------
                                     CPHF                           
                                  Rob Parrish                       
         ------------------------------------------------------------

  ==> Geometry <==

    Molecular point group: c1
    Full point group: C1

    Geometry (in Angstrom), charge = 0, multiplicity = 1:

       Center              X                  Y                   Z               Mass       
    ------------   -----------------  -----------------  -----------------  -----------------
           H         -2.294927354890     0.051739706768     0.570641735300     1.007825032070
           H         -2.153927354890     1.679739706768    -0.049358264700     1.007825032070
           H         -1.855927354890     0.315739706768    -1.099358264700     1.007825032070
           C         -1.756927354890     0.686739706768    -0.101358264700    12.000000000000
           H          0.270072645110     1.342739706768    -0.379358264700     1.007825032070
           H         -0.167927354890     1.079739706768     1.291641735300     1.007825032070
           C         -0.267927354890     0.707739706768     0.293641735300    12.000000000000
           H          0.343072645110    -1.140260293232     1.201641735300     1.007825032070
           H         -0.323927354890    -1.324260293232    -0.402358264700     1.007825032070
           C          0.304072645110    -0.720260293232     0.218641735300    12.000000000000
           H          2.120072645110    -1.667260293232    -0.428358264700     1.007825032070
           H          2.351072645110    -0.071260293232     0.243641735300     1.007825032070
           H          1.685072645110    -0.254260293232    -1.360358264700     1.007825032070
           C          1.723072645110    -0.675260293232    -0.376358264700    12.000000000000

  Nuclear repulsion =  132.163072371452358
  Reference energy  = -157.289454839388952

  ==> Basis Set <==

  Basis Set: 6-31G(D)
    Number of shells: 44
    Number of basis function: 80
    Number of Cartesian functions: 80
    Spherical Harmonics?: false
    Max angular momentum: 2

  ==> CGRSolver (by Rob Parrish) <==

   Number of roots    =         1
   Preconditioning    =    JACOBI
   Convergence cutoff =     1E-06
   Maximum iterations =       100

  ==> CPHFRHamiltonian (by Rob Parrish) <== 

  ==> DFJK: Density-Fitted J/K Matrices <==

    J tasked:                  Yes
    K tasked:                  Yes
    wK tasked:                  No
    OpenMP threads:              1
    Integrals threads:           1
    Memory (MB):               715
    Algorithm:                Core
    Integral Cache:           NONE
    Schwarz Cutoff:          1E-12
    Fitting Condition:       1E-12

   => Auxiliary Basis Set <=

  Basis Set: 
    Number of shells: 186
    Number of basis function: 574
    Number of Cartesian functions: 574
    Spherical Harmonics?: false
    Max angular momentum: 3

  ==> CPHF Iterations <==

  => Iterations <=

             Iter  Converged  Remaining    Residual
  CGR           1          0          1   7.300E-02
  CGR           2          0          1   8.829E-03
  CGR           3          0          1   2.746E-03
  CGR           4          0          1   3.927E-04
  CGR           5          0          1   7.306E-05
  CGR           6          0          1   1.813E-05
  CGR           7          0          1   3.386E-06
  CGR           8          1          0   6.239E-07

    CGRSolver converged.

  ==> DFCorrGrad: Density-Fitted Correlated Gradients <==

    OpenMP threads:              1
    Integrals threads:           1
    Memory (MB):               715
    Schwarz Cutoff:          0E+00
    Fitting Condition:       1E-12

   => Auxiliary Basis Set <=

  Basis Set: 
    Number of shells: 186
    Number of basis function: 510
    Number of Cartesian functions: 574
    Spherical Harmonics?: true
    Max angular momentum: 3

	-----------------------------------------------------------
	 ==================> DF-MP2 Energies <==================== 
	-----------------------------------------------------------
	 Reference Energy          =    -157.2894548393889522 [Eh]
	 Singles Energy            =      -0.0000000000000000 [Eh]
	 Same-Spin Energy          =      -0.1244065889850083 [Eh]
	 Opposite-Spin Energy      =      -0.4203584571104076 [Eh]
	 Correlation Energy        =      -0.5447650460954159 [Eh]
	 Total Energy              =    -157.8342198854843730 [Eh]
	-----------------------------------------------------------
	 ================> DF-SCS-MP2 Energies <================== 
	-----------------------------------------------------------
	 SCS Same-Spin Scale       =       0.3333333333333333 [-]
	 SCS Opposite-Spin Scale   =       1.2000000000000000 [-]
	 SCS Same-Spin Energy      =      -0.0414688629950028 [Eh]
	 SCS Opposite-Spin Energy  =      -0.5044301485324891 [Eh]
	 SCS Correlation Energy    =      -0.5458990115274919 [Eh]
	 SCS Total Energy          =    -157.8353538509164480 [Eh]
	-----------------------------------------------------------


  -Total Gradient:
     Atom            X                  Y                   Z
    ------   -----------------  -----------------  -----------------
       1        0.010714074959     0.009527732278    -0.008921375950
       2        0.010729941231    -0.013690097628     0.000366124989
       3        0.003839777778     0.005537425497     0.015448288438
       4       -0.026709471045    -0.008605656249    -0.010236923888
       5       -0.008245115393    -0.012359556373     0.008625818454
       6       -0.003840550864    -0.009991979984    -0.014447831311
       7        0.023959841315     0.028504147405     0.008467162561
       8        0.001927238719     0.010738309788    -0.014439853157
       9        0.009593808680     0.012041302730     0.008157871864
      10       -0.022373761734    -0.029057985192     0.009777780300
      11       -0.010811121733     0.014253269116     0.002574274355
      12       -0.012008002593    -0.009183067171    -0.008068404613
      13       -0.001673112192    -0.005698664627     0.014495818982
      14        0.024896452875     0.007984820410    -0.011798751024


			-----------------------------------------
			 OPTKING 2.0: for geometry optimizations 
			  - R.A. King,  Bethel University        
			-----------------------------------------

	Internal coordinates to be generated automatically.
	Detected frag 1 with atoms:  1 2 3 4 5 6 7 8 9 10 11 12 13 14
	---Fragment 1 Bond Connectivity---
	 1 : 4
	 2 : 4
	 3 : 4
	 4 : 1 2 3 7
	 5 : 7
	 6 : 7
	 7 : 4 5 6 10
	 8 : 10
	 9 : 10
	 10 : 7 8 9 14
	 11 : 14
	 12 : 14
	 13 : 14
	 14 : 10 11 12 13

	Assuming in current code that numbering for constraints corresponds to unified fragment.
	Fixed dihedral atom list: 
	     4     7    10    14
	---Fragment 1 Geometry and Gradient---
	 H          -4.3367841956        0.0977738760        1.0783565997
	 H          -4.0703328109        3.1742480203       -0.0932736027
	 H          -3.5071944233        0.5966615751       -2.0774860422
	 C          -3.3201115361        1.2977499704       -0.1915393616
	 H           0.5103633352        2.5374103135       -0.7168832265
	 H          -0.3173367110        2.0404123406        2.4408491415
	 C          -0.5063093243        1.3374342192        0.5549024609
	 H           0.6483133429       -2.1547796744        2.2707737896
	 H          -0.6121339877       -2.5024892829       -0.7603469276
	 C           0.5746140238       -1.3610946986        0.4131730009
	 H           4.0063566811       -3.1506653464       -0.8094798070
	 H           4.4428834178       -0.1346624384        0.4604161543
	 H           3.1843258133       -0.4804823207       -2.5707045629
	 C           3.2561354063       -1.2760570226       -0.7112140481
	             0.0107140750        0.0095277323       -0.0089213760
	             0.0107299412       -0.0136900976        0.0003661250
	             0.0038397778        0.0055374255        0.0154482884
	            -0.0267094710       -0.0086056562       -0.0102369239
	            -0.0082451154       -0.0123595564        0.0086258185
	            -0.0038405509       -0.0099919800       -0.0144478313
	             0.0239598413        0.0285041474        0.0084671626
	             0.0019272387        0.0107383098       -0.0144398532
	             0.0095938087        0.0120413027        0.0081578719
	            -0.0223737617       -0.0290579852        0.0097777803
	            -0.0108111217        0.0142532691        0.0025742744
	            -0.0120080026       -0.0091830672       -0.0080684046
	            -0.0016731122       -0.0056986646        0.0144958190
	             0.0248964529        0.0079848204       -0.0117987510

	Previous optimization step data not found.  Starting new optimization.

	---Fragment 1 Intrafragment Coordinates---
	 - Coordinate -           - BOHR/RAD -       - ANG/DEG -
	 R(1,4)           =         2.021436	       1.069698
	 R(2,4)           =         2.023298	       1.070683
	 R(3,4)           =         2.020723	       1.069320
	 R(4,7)           =         2.911397	       1.540645
	 R(5,7)           =         2.022623	       1.070326
	 R(6,7)           =         2.021555	       1.069761
	 R(7,10)          =         2.910419	       1.540128
	 R(8,10)          =         2.021398	       1.069678
	 R(9,10)          =         2.021955	       1.069972
	 R(10,14)         =         2.908958	       1.539354
	 R(11,14)         =         2.021545	       1.069756
	 R(12,14)         =         2.020859	       1.069392
	 R(13,14)         =         2.023808	       1.070953
	 B(1,4,2)         =         1.910870	     109.484805
	 B(1,4,3)         =         1.911121	     109.499161
	 B(1,4,7)         =         1.910399	     109.457783
	 B(2,4,3)         =         1.910042	     109.437340
	 B(2,4,7)         =         1.910564	     109.467262
	 B(3,4,7)         =         1.910803	     109.480971
	 B(4,7,5)         =         1.909937	     109.431343
	 B(4,7,6)         =         1.911630	     109.528316
	 B(4,7,10)        =         1.911154	     109.501062
	 B(5,7,6)         =         1.910605	     109.469614
	 B(5,7,10)        =         1.910047	     109.437654
	 B(6,7,10)        =         1.910425	     109.459295
	 B(7,10,8)        =         1.910116	     109.441579
	 B(7,10,9)        =         1.911002	     109.492352
	 B(7,10,14)       =         1.911423	     109.516489
	 B(8,10,9)        =         1.910398	     109.457762
	 B(8,10,14)       =         1.910358	     109.455469
	 B(9,10,14)       =         1.910501	     109.463652
	 B(10,14,11)      =         1.911105	     109.498241
	 B(10,14,12)      =         1.911076	     109.496603
	 B(10,14,13)      =         1.911262	     109.507260
	 B(11,14,12)      =         1.911340	     109.511733
	 B(11,14,13)      =         1.910322	     109.453394
	 B(12,14,13)      =         1.908692	     109.360016
	 D(1,4,7,5)       =         3.140997	     179.965873
	 D(1,4,7,6)       =        -1.047644	     -60.025575
	 D(1,4,7,10)      =         1.047427	      60.013132
	 D(2,4,7,5)       =        -1.047689	     -60.028143
	 D(2,4,7,6)       =         1.046856	      59.980409
	 D(2,4,7,10)      =        -3.141259	    -179.980883
	 D(3,4,7,5)       =         1.046044	      59.933911
	 D(3,4,7,6)       =         3.140588	     179.942463
	 D(3,4,7,10)      =        -1.047526	     -60.018830
	 D(4,7,10,8)      =        -1.745364	    -100.002002
	 D(4,7,10,9)      =         0.348652	      19.976299
	 D(4,7,10,14)     =         2.443596	     140.007736
	 D(5,7,10,8)      =         2.444318	     140.049122
	 D(5,7,10,9)      =        -1.744851	     -99.972576
	 D(5,7,10,14)     =         0.350093	      20.058860
	 D(6,7,10,8)      =         0.350443	      20.078924
	 D(6,7,10,9)      =         2.444460	     140.057225
	 D(6,7,10,14)     =        -1.743782	     -99.911338
	 D(7,10,14,11)    =        -3.141550	    -179.997546
	 D(7,10,14,12)    =         1.045813	      59.920675
	 D(7,10,14,13)    =        -1.046861	     -59.980730
	 D(8,10,14,11)    =         1.047559	      60.020692
	 D(8,10,14,12)    =        -1.048264	     -60.061087
	 D(8,10,14,13)    =        -3.140938	    -179.962492
	 D(9,10,14,11)    =        -1.046300	     -59.948555
	 D(9,10,14,12)    =         3.141063	     179.969666
	 D(9,10,14,13)    =         1.048389	      60.068260

	Current energy   :      -157.8342198855

	Generating empirical Hessian (Schlegel '84) for each fragment.
	Adding user-defined constraint: Fragment 1; Coordinate 49:
		Value =     2.443596; Fixed value    =     2.443461
		Force =    -0.000068; Force constant =     0.500000
	Removing off-diagonal coupling between coordinate 49 and others.
	Taking RFO optimization step.
	Going to follow RFO solution 1.
	Using RFO vector 1.

	Determining step-restricting scale parameter for RS-RFO.
	Maximum step size allowed    0.10000

	 Iter      |step|        alpha        rfo_root  
	------------------------------------------------
	    0     0.24038       1.00000           1
	    1     0.17969       5.33359           1
	    2     0.13692      16.33066           1
	    3     0.11200      32.51207           1
	    4     0.10188      43.68084           1
	    5     0.10006      46.13370           1
	    6     0.10000      46.21508           1
	------------------------------------------------
	Norm of target step-size    0.10000
	Projected energy change by RFO approximation:        -0.0061126348

	Back-transformation to cartesian coordinates...
	Successfully converged to displaced geometry.

	--- Internal Coordinate Step in ANG or DEG, aJ/ANG or AJ/DEG ---
	 ---------------------------------------------------------------------------
	   Coordinate                Previous        Force       Change         New 
	   ----------                --------       ------       ------       ------
	    1 R(1,4)          =      1.069698     0.137168     0.013836     1.083534
	    2 R(2,4)          =      1.070683     0.137236     0.013870     1.084553
	    3 R(3,4)          =      1.069320     0.137543     0.013863     1.083184
	    4 R(4,7)          =      1.540645    -0.019225    -0.002250     1.538395
	    5 R(5,7)          =      1.070326     0.139241     0.014063     1.084389
	    6 R(6,7)          =      1.069761     0.142631     0.014389     1.084150
	    7 R(7,10)         =      1.540128     0.040481     0.004735     1.544862
	    8 R(8,10)         =      1.069678     0.143484     0.014472     1.084150
	    9 R(9,10)         =      1.069972     0.141400     0.014271     1.084243
	   10 R(10,14)        =      1.539354    -0.013747    -0.001606     1.537748
	   11 R(11,14)        =      1.069756     0.142978     0.014424     1.084179
	   12 R(12,14)        =      1.069392     0.139369     0.014049     1.083442
	   13 R(13,14)        =      1.070953     0.127698     0.012913     1.083866
	   14 B(1,4,2)        =    109.484805    -0.000304    -0.531644   108.953161
	   15 B(1,4,3)        =    109.499161    -0.000199    -0.377619   109.121542
	   16 B(1,4,7)        =    109.457783     0.000181     0.314347   109.772129
	   17 B(2,4,3)        =    109.437340    -0.000277    -0.488632   108.948708
	   18 B(2,4,7)        =    109.467262     0.000482     0.867682   110.334944
	   19 B(3,4,7)        =    109.480971     0.000117     0.204228   109.685199
	   20 B(4,7,5)        =    109.431343    -0.000211    -0.342423   109.088919
	   21 B(4,7,6)        =    109.528316    -0.000236    -0.343182   109.185134
	   22 B(4,7,10)       =    109.501062     0.000771     1.261588   110.762650
	   23 B(5,7,6)        =    109.469614    -0.000034    -0.245373   109.224241
	   24 B(5,7,10)       =    109.437654    -0.000150    -0.177175   109.260479
	   25 B(6,7,10)       =    109.459295    -0.000140    -0.162018   109.297277
	   26 B(7,10,8)       =    109.441579    -0.000141    -0.163820   109.277759
	   27 B(7,10,9)       =    109.492352    -0.000155    -0.189004   109.303349
	   28 B(7,10,14)      =    109.516489     0.000771     1.261852   110.778342
	   29 B(8,10,9)       =    109.457762    -0.000035    -0.245954   109.211808
	   30 B(8,10,14)      =    109.455469    -0.000229    -0.328449   109.127020
	   31 B(9,10,14)      =    109.463652    -0.000211    -0.343645   109.120007
	   32 B(10,14,11)     =    109.498241     0.000483     0.868573   110.366815
	   33 B(10,14,12)     =    109.496603     0.000173     0.301687   109.798290
	   34 B(10,14,13)     =    109.507260     0.000115     0.200158   109.707418
	   35 B(11,14,12)     =    109.511733    -0.000304    -0.533732   108.978001
	   36 B(11,14,13)     =    109.453394    -0.000280    -0.495337   108.958056
	   37 B(12,14,13)     =    109.360016    -0.000188    -0.354956   109.005060
	   38 D(1,4,7,5)      =    179.965873     0.000027     0.253200   180.219073
	   39 D(1,4,7,6)      =    -60.025575    -0.000045    -0.459065   -60.484641
	   40 D(1,4,7,10)     =     60.013132    -0.000009    -0.092223    59.920909
	   41 D(2,4,7,5)      =    -60.028143     0.000035     0.333599   -59.694544
	   42 D(2,4,7,6)      =     59.980409    -0.000038    -0.378667    59.601742
	   43 D(2,4,7,10)     =   -179.980883    -0.000002    -0.011825  -179.992708
	   44 D(3,4,7,5)      =     59.933911     0.000041     0.397153    60.331064
	   45 D(3,4,7,6)      =    179.942463    -0.000031    -0.315112   179.627350
	   46 D(3,4,7,10)     =    -60.018830     0.000005     0.051730   -59.967100
	   47 D(4,7,10,8)     =   -100.002002     0.000039     0.384550   -99.617452
	   48 D(4,7,10,9)     =     19.976299    -0.000012    -0.129496    19.846804
	   49 D(4,7,10,14)    =    140.007736     0.000015     0.110827   140.118563
	   50 D(5,7,10,8)     =    140.049122     0.000011     0.137572   140.186694
	   51 D(5,7,10,9)     =    -99.972576    -0.000040    -0.376474  -100.349050
	   52 D(5,7,10,14)    =     20.058860    -0.000013    -0.136151    19.922710
	   53 D(6,7,10,8)     =     20.078924     0.000061     0.642382    20.721306
	   54 D(6,7,10,9)     =    140.057225     0.000010     0.128337   140.185562
	   55 D(6,7,10,14)    =    -99.911338     0.000037     0.368659   -99.542679
	   56 D(7,10,14,11)   =   -179.997546    -0.000001    -0.005647  -180.003192
	   57 D(7,10,14,12)   =     59.920675    -0.000008    -0.077825    59.842850
	   58 D(7,10,14,13)   =    -59.980730     0.000004     0.048859   -59.931871
	   59 D(8,10,14,11)   =     60.020692    -0.000037    -0.377679    59.643013
	   60 D(8,10,14,12)   =    -60.061087    -0.000044    -0.449858   -60.510945
	   61 D(8,10,14,13)   =   -179.962492    -0.000032    -0.323174  -180.285666
	   62 D(9,10,14,11)   =    -59.948555     0.000034     0.326339   -59.622216
	   63 D(9,10,14,12)   =    179.969666     0.000027     0.254161   180.223826
	   64 D(9,10,14,13)   =     60.068260     0.000039     0.380844    60.449105
	 ---------------------------------------------------------------------------
	 Forces used to impose fixed constraints are not included.
	  Forces zeroed: 49 

  ==> Convergence Check <==

  Measures of convergence in internal coordinates in au.
  Criteria marked as inactive (o), active & met (*), and active & unmet ( ).
  --------------------------------------------------------------------------------------------- ~
   Step     Total Energy     Delta E     MAX Force     RMS Force      MAX Disp      RMS Disp    ~
  --------------------------------------------------------------------------------------------- ~
    Convergence Criteria    1.00e-06 *    3.00e-04 *             o    1.20e-03 *             o  ~
  --------------------------------------------------------------------------------------------- ~
      1    -157.83421989   -1.58e+02      1.74e-02      7.27e-03 o    2.73e-02      1.25e-02 o  ~
  ---------------------------------------------------------------------------------------------

	Writing optimization data to binary file.
	Structure for next step:
	Cartesian Geometry (in Angstrom)
	    H    -2.3195402846   0.0394102636   0.5775114370
	    H    -2.1878026143   1.6868755970  -0.0406866875
	    H    -1.8803053785   0.3173734278  -1.1095167972
	    C    -1.7719380297   0.6868089268  -0.0970638479
	    H     0.2528007514   1.3575533368  -0.3872759108
	    H    -0.1839743429   1.0810338123   1.3033571807
	    C    -0.2835912740   0.7040315106   0.2917614071
	    H     0.3601589704  -1.1423089910   1.2107272491
	    H    -0.3085047619  -1.3383141287  -0.4137869965
	    C     0.3190646498  -0.7163394373   0.2146135762
	    H     2.1551921298  -1.6750029496  -0.4258389142
	    H     2.3767868845  -0.0591961218   0.2474782940
	    H     1.7078938416  -0.2552850073  -1.3735006324
	    C     1.7387764901  -0.6752843443  -0.3747950634
			--------------------------
			 OPTKING Finished Execution 
			--------------------------

    Structure for next step:
    Molecular point group: c1
    Full point group: C1

    Geometry (in Angstrom), charge = 0, multiplicity = 1:

    H           -2.319544307606     0.039361465661     0.577521064818
    H           -2.187806637217     1.686826799067    -0.040677059686
    H           -1.880309401466     0.317324629878    -1.109507169382
    C           -1.771942052677     0.686760128911    -0.097054220164
    H            0.252796728419     1.357504538883    -0.387266282983
    H           -0.183978365903     1.080985014336     1.303366808495
    C           -0.283595297008     0.703982712634     0.291771034878
    H            0.360154947432    -1.142357788946     1.210736876850
    H           -0.308508784884    -1.338362926648    -0.413777368720
    C            0.319060626876    -0.716388235259     0.214623203932
    H            2.155188106868    -1.675051747572    -0.425829286409
    H            2.376782861497    -0.059244919761     0.247487921792
    H            1.707889818660    -0.255333805187    -1.373491004620
    C            1.738772467118    -0.675333142219    -0.374785435661

gradient() will perform analytic gradient computation.
    SCF Algorithm Type (re)set to DF.

*** tstart() called on lski1497
*** at Mon Feb 20 17:17:29 2017


         ---------------------------------------------------------
                                   SCF
            by Justin Turney, Rob Parrish, and Andy Simmonett
                              RHF Reference
                        1 Threads,   1000 MiB Core
         ---------------------------------------------------------

  ==> Geometry <==

    Molecular point group: c1
    Full point group: C1

    Geometry (in Angstrom), charge = 0, multiplicity = 1:

       Center              X                  Y                   Z               Mass       
    ------------   -----------------  -----------------  -----------------  -----------------
           H         -2.319544307606     0.039361465661     0.577521064818     1.007825032070
           H         -2.187806637217     1.686826799067    -0.040677059686     1.007825032070
           H         -1.880309401466     0.317324629878    -1.109507169382     1.007825032070
           C         -1.771942052677     0.686760128911    -0.097054220164    12.000000000000
           H          0.252796728419     1.357504538883    -0.387266282983     1.007825032070
           H         -0.183978365903     1.080985014336     1.303366808495     1.007825032070
           C         -0.283595297008     0.703982712634     0.291771034878    12.000000000000
           H          0.360154947432    -1.142357788946     1.210736876850     1.007825032070
           H         -0.308508784884    -1.338362926648    -0.413777368720     1.007825032070
           C          0.319060626876    -0.716388235259     0.214623203932    12.000000000000
           H          2.155188106868    -1.675051747572    -0.425829286409     1.007825032070
           H          2.376782861497    -0.059244919761     0.247487921792     1.007825032070
           H          1.707889818660    -0.255333805187    -1.373491004620     1.007825032070
           C          1.738772467118    -0.675333142219    -0.374785435661    12.000000000000

  Running in c1 symmetry.

  Rotational constants: A =      0.67335  B =      0.12540  C =      0.12087 [cm^-1]
  Rotational constants: A =  20186.38593  B =   3759.54662  C =   3623.62952 [MHz]
  Nuclear repulsion =  131.241643685280707

  Charge       = 0
  Multiplicity = 1
  Electrons    = 34
  Nalpha       = 17
  Nbeta        = 17

  ==> Algorithm <==

  SCF Algorithm Type is DF.
  DIIS enabled.
  MOM disabled.
  Fractional occupation disabled.
  Guess Type is READ.
  Energy threshold   = 1.00e-10
  Density threshold  = 1.00e-10
  Integral threshold = 0.00e+00

  ==> Primary Basis <==

  Basis Set: 6-31G(D)
    Number of shells: 44
    Number of basis function: 80
    Number of Cartesian functions: 80
    Spherical Harmonics?: false
    Max angular momentum: 2

  ==> Pre-Iterations <==

   -------------------------------------------------------
    Irrep   Nso     Nmo     Nalpha   Nbeta   Ndocc  Nsocc
   -------------------------------------------------------
     A         80      80       0       0       0       0
   -------------------------------------------------------
    Total      80      80      17      17      17       0
   -------------------------------------------------------

  ==> Integral Setup <==

  ==> DFJK: Density-Fitted J/K Matrices <==

    J tasked:                  Yes
    K tasked:                  Yes
    wK tasked:                  No
    OpenMP threads:              1
    Integrals threads:           1
    Memory (MB):               715
    Algorithm:                Core
    Integral Cache:           NONE
    Schwarz Cutoff:          1E-12
    Fitting Condition:       1E-12

   => Auxiliary Basis Set <=

  Basis Set: 
    Number of shells: 186
    Number of basis function: 574
    Number of Cartesian functions: 574
    Spherical Harmonics?: false
    Max angular momentum: 3

  Minimum eigenvalue in the overlap matrix is 4.7110692859E-03.
  Using Symmetric Orthogonalization.
  SCF Guess was Projection but file not found.
  Switching over to SAD guess.

  SCF Guess: Superposition of Atomic Densities via on-the-fly atomic UHF.

  ==> Iterations <==

                           Total Energy        Delta E     RMS |[F,P]|

   @DF-RHF iter   0:  -158.86690056310997   -1.58867e+02   4.64878e-02 
   @DF-RHF iter   1:  -157.20542528190455    1.66148e+00   3.86735e-03 
   @DF-RHF iter   2:  -157.28380451655593   -7.83792e-02   1.10650e-03 DIIS
   @DF-RHF iter   3:  -157.29203508496173   -8.23057e-03   2.53109e-04 DIIS
   @DF-RHF iter   4:  -157.29238496051696   -3.49876e-04   7.50466e-05 DIIS
   @DF-RHF iter   5:  -157.29242034368471   -3.53832e-05   1.21510e-05 DIIS
   @DF-RHF iter   6:  -157.29242142481755   -1.08113e-06   2.47600e-06 DIIS
   @DF-RHF iter   7:  -157.29242145394764   -2.91301e-08   7.20682e-07 DIIS
   @DF-RHF iter   8:  -157.29242145659131   -2.64367e-09   1.08920e-07 DIIS
   @DF-RHF iter   9:  -157.29242145669375   -1.02432e-10   2.62358e-08 DIIS
   @DF-RHF iter  10:  -157.29242145669988   -6.13909e-12   5.45444e-09 DIIS
   @DF-RHF iter  11:  -157.29242145670005   -1.70530e-13   1.13397e-09 DIIS
   @DF-RHF iter  12:  -157.29242145670005    0.00000e+00   3.68925e-10 DIIS
   @DF-RHF iter  13:  -157.29242145669994    1.13687e-13   9.23563e-11 DIIS

  ==> Post-Iterations <==

    Orbital Energies (a.u.)
    -----------------------

    Doubly Occupied:                                                      

       1A    -11.212068     2A    -11.211509     3A    -11.206453  
       4A    -11.206419     5A     -1.067795     6A     -0.978466  
       7A     -0.859504     8A     -0.788694     9A     -0.638957  
      10A     -0.590458    11A     -0.582240    12A     -0.557679  
      13A     -0.509985    14A     -0.505601    15A     -0.465751  
      16A     -0.464513    17A     -0.446063  

    Virtual:                                                              

      18A      0.233131    19A      0.265984    20A      0.288154  
      21A      0.296820    22A      0.323503    23A      0.330333  
      24A      0.330454    25A      0.340947    26A      0.346792  
      27A      0.353585    28A      0.416415    29A      0.441362  
      30A      0.447676    31A      0.707465    32A      0.719069  
      33A      0.742919    34A      0.769848    35A      0.793453  
      36A      0.839096    37A      0.842250    38A      0.932983  
      39A      0.941136    40A      1.003954    41A      1.070974  
      42A      1.081764    43A      1.156643    44A      1.177629  
      45A      1.178061    46A      1.195001    47A      1.199829  
      48A      1.208749    49A      1.239517    50A      1.241368  
      51A      1.249874    52A      1.272028    53A      1.275050  
      54A      1.496928    55A      1.651289    56A      1.732334  
      57A      1.754064    58A      1.921561    59A      1.955620  
      60A      2.111504    61A      2.196444    62A      2.220408  
      63A      2.293507    64A      2.300898    65A      2.333920  
      66A      2.432611    67A      2.507112    68A      2.614444  
      69A      2.640053    70A      2.685592    71A      2.694273  
      72A      2.733917    73A      2.767583    74A      2.883939  
      75A      3.013847    76A      3.089199    77A      4.564268  
      78A      4.661134    79A      4.798347    80A      4.960650  

    Final Occupation by Irrep:
              A 
    DOCC [    17 ]

  Energy converged.

  @DF-RHF Final Energy:  -157.29242145669994

   => Energetics <=

    Nuclear Repulsion Energy =            131.2416436852807067
    One-Electron Energy =                -470.4838182906536304
    Two-Electron Energy =                 181.9497531486729827
    DFT Exchange-Correlation Energy =       0.0000000000000000
    Empirical Dispersion Energy =           0.0000000000000000
    PCM Polarization Energy =               0.0000000000000000
    EFP Energy =                            0.0000000000000000
    Total Energy =                       -157.2924214566999694


  Saving occupied orbitals to File 180.

*** tstop() called on lski1497 at Mon Feb 20 17:17:37 2017
Module time:
	user time   =       4.88 seconds =       0.08 minutes
	system time =       0.14 seconds =       0.00 minutes
	total time  =          8 seconds =       0.13 minutes
Total time:
	user time   =      27.57 seconds =       0.46 minutes
	system time =       0.83 seconds =       0.01 minutes
	total time  =         38 seconds =       0.63 minutes


Properties will be evaluated at   0.000000,   0.000000,   0.000000 Bohr

Properties computed using the SCF density matrix

  Nuclear Dipole Moment: (a.u.)
     X:    -0.0256      Y:     0.0109      Z:    -0.3857

  Electronic Dipole Moment: (a.u.)
     X:     0.0273      Y:    -0.0116      Z:     0.4096

  Dipole Moment: (a.u.)
     X:     0.0017      Y:    -0.0007      Z:     0.0239     Total:     0.0240

  Dipole Moment: (Debye)
     X:     0.0043      Y:    -0.0018      Z:     0.0609     Total:     0.0610


  //>>>>>>>>>>>>>>>>>>>>>>>>>>>>>>>>>>>//
  //               DFMP2               //
  //<<<<<<<<<<<<<<<<<<<<<<<<<<<<<<<<<<<//


*** tstart() called on lski1497
*** at Mon Feb 20 17:17:37 2017


*** tstop() called on lski1497 at Mon Feb 20 17:17:38 2017
Module time:
	user time   =       0.53 seconds =       0.01 minutes
	system time =       0.01 seconds =       0.00 minutes
	total time  =          1 seconds =       0.02 minutes
Total time:
	user time   =      28.12 seconds =       0.47 minutes
	system time =       0.84 seconds =       0.01 minutes
	total time  =         39 seconds =       0.65 minutes
	 --------------------------------------------------------
	                          DF-MP2                         
	      2nd-Order Density-Fitted Moller-Plesset Theory     
	              RMP2 Wavefunction,   1 Threads             
	                                                         
	        Rob Parrish, Justin Turney, Andy Simmonett,      
	           Ed Hohenstein, and C. David Sherrill          
	 --------------------------------------------------------

   => Auxiliary Basis Set <=

  Basis Set: 
    Number of shells: 132
    Number of basis function: 364
    Number of Cartesian functions: 414
    Spherical Harmonics?: true
    Max angular momentum: 3

	 --------------------------------------------------------
	                 NBF =    80, NAUX =   364
	 --------------------------------------------------------
	   CLASS    FOCC     OCC    AOCC    AVIR     VIR    FVIR
	   PAIRS       0      17      17      63      63       0
	 --------------------------------------------------------

DGAS Warning! /src/lib/libfock/apps.cc:80 is not currently checking restricted

         ------------------------------------------------------------
                                     CPHF                           
                                  Rob Parrish                       
         ------------------------------------------------------------

  ==> Geometry <==

    Molecular point group: c1
    Full point group: C1

    Geometry (in Angstrom), charge = 0, multiplicity = 1:

       Center              X                  Y                   Z               Mass       
    ------------   -----------------  -----------------  -----------------  -----------------
           H         -2.319544307606     0.039361465661     0.577521064818     1.007825032070
           H         -2.187806637217     1.686826799067    -0.040677059686     1.007825032070
           H         -1.880309401466     0.317324629878    -1.109507169382     1.007825032070
           C         -1.771942052677     0.686760128911    -0.097054220164    12.000000000000
           H          0.252796728419     1.357504538883    -0.387266282983     1.007825032070
           H         -0.183978365903     1.080985014336     1.303366808495     1.007825032070
           C         -0.283595297008     0.703982712634     0.291771034878    12.000000000000
           H          0.360154947432    -1.142357788946     1.210736876850     1.007825032070
           H         -0.308508784884    -1.338362926648    -0.413777368720     1.007825032070
           C          0.319060626876    -0.716388235259     0.214623203932    12.000000000000
           H          2.155188106868    -1.675051747572    -0.425829286409     1.007825032070
           H          2.376782861497    -0.059244919761     0.247487921792     1.007825032070
           H          1.707889818660    -0.255333805187    -1.373491004620     1.007825032070
           C          1.738772467118    -0.675333142219    -0.374785435661    12.000000000000

  Nuclear repulsion =  131.241643685280707
  Reference energy  = -157.292421456699941

  ==> Basis Set <==

  Basis Set: 6-31G(D)
    Number of shells: 44
    Number of basis function: 80
    Number of Cartesian functions: 80
    Spherical Harmonics?: false
    Max angular momentum: 2

  ==> CGRSolver (by Rob Parrish) <==

   Number of roots    =         1
   Preconditioning    =    JACOBI
   Convergence cutoff =     1E-06
   Maximum iterations =       100

  ==> CPHFRHamiltonian (by Rob Parrish) <== 

  ==> DFJK: Density-Fitted J/K Matrices <==

    J tasked:                  Yes
    K tasked:                  Yes
    wK tasked:                  No
    OpenMP threads:              1
    Integrals threads:           1
    Memory (MB):               715
    Algorithm:                Core
    Integral Cache:           NONE
    Schwarz Cutoff:          1E-12
    Fitting Condition:       1E-12

   => Auxiliary Basis Set <=

  Basis Set: 
    Number of shells: 186
    Number of basis function: 574
    Number of Cartesian functions: 574
    Spherical Harmonics?: false
    Max angular momentum: 3

  ==> CPHF Iterations <==

  => Iterations <=

             Iter  Converged  Remaining    Residual
  CGR           1          0          1   7.345E-02
  CGR           2          0          1   8.955E-03
  CGR           3          0          1   2.778E-03
  CGR           4          0          1   3.931E-04
  CGR           5          0          1   7.391E-05
  CGR           6          0          1   1.814E-05
  CGR           7          0          1   3.276E-06
  CGR           8          1          0   6.168E-07

    CGRSolver converged.

  ==> DFCorrGrad: Density-Fitted Correlated Gradients <==

    OpenMP threads:              1
    Integrals threads:           1
    Memory (MB):               715
    Schwarz Cutoff:          0E+00
    Fitting Condition:       1E-12

   => Auxiliary Basis Set <=

  Basis Set: 
    Number of shells: 186
    Number of basis function: 510
    Number of Cartesian functions: 574
    Spherical Harmonics?: true
    Max angular momentum: 3

	-----------------------------------------------------------
	 ==================> DF-MP2 Energies <==================== 
	-----------------------------------------------------------
	 Reference Energy          =    -157.2924214566999410 [Eh]
	 Singles Energy            =      -0.0000000000000000 [Eh]
	 Same-Spin Energy          =      -0.1242822770382915 [Eh]
	 Opposite-Spin Energy      =      -0.4216253409149893 [Eh]
	 Correlation Energy        =      -0.5459076179532808 [Eh]
	 Total Energy              =    -157.8383290746532168 [Eh]
	-----------------------------------------------------------
	 ================> DF-SCS-MP2 Energies <================== 
	-----------------------------------------------------------
	 SCS Same-Spin Scale       =       0.3333333333333333 [-]
	 SCS Opposite-Spin Scale   =       1.2000000000000000 [-]
	 SCS Same-Spin Energy      =      -0.0414274256794305 [Eh]
	 SCS Opposite-Spin Energy  =      -0.5059504090979871 [Eh]
	 SCS Correlation Energy    =      -0.5473778347774175 [Eh]
	 SCS Total Energy          =    -157.8397992914773624 [Eh]
	-----------------------------------------------------------


  -Total Gradient:
     Atom            X                  Y                   Z
    ------   -----------------  -----------------  -----------------
       1        0.005262720168     0.003852211717    -0.002756055135
       2        0.005135673153    -0.004727611342     0.000312101989
       3        0.002662000674     0.002259474788     0.006084469092
       4       -0.015644145040    -0.004956310589    -0.006537283570
       5       -0.003614140642    -0.006395756627     0.002164273195
       6       -0.003323103504    -0.006292980474    -0.004688020979
       7        0.014098233807     0.018131201182     0.005208056664
       8        0.002731407428     0.006551752500    -0.004820386020
       9        0.003969528679     0.006294218407     0.002037439835
      10       -0.013199072006    -0.018392251690     0.005833753050
      11       -0.005123396633     0.004915858898     0.001257492427
      12       -0.005634298140    -0.003691540890    -0.002349326433
      13       -0.001746975045    -0.002284399753     0.005914181934
      14        0.014425567103     0.004736133874    -0.007660696050


			-----------------------------------------
			 OPTKING 2.0: for geometry optimizations 
			  - R.A. King,  Bethel University        
			-----------------------------------------

	Previous internal coordinate definitions found.
	---Fragment 1 Geometry and Gradient---
	 H          -4.3833034945        0.0743823903        1.0913566485
	 H          -4.1343553760        3.1876406838       -0.0768685027
	 H          -3.5532698139        0.5996566457       -2.0966646926
	 C          -3.3484852029        1.2977885626       -0.1834058962
	 H           0.4777165840        2.5653118026       -0.7318272153
	 H          -0.3476687259        2.0427656308        2.4630063187
	 C          -0.5359174439        1.3303345292        0.5513673494
	 H           0.6805942160       -2.1587433669        2.2879611162
	 H          -0.5829971130       -2.5291393978       -0.7819259069
	 C           0.6029372046       -1.3537775695        0.4055790772
	 H           4.0727152868       -3.1653890613       -0.8047007307
	 H           4.4914686856       -0.1119566731        0.4676843934
	 H           3.2274440224       -0.4825109643       -2.5955218447
	 C           3.2858037703       -1.2761946873       -0.7082418320
	             0.0052627202        0.0038522117       -0.0027560551
	             0.0051356732       -0.0047276113        0.0003121020
	             0.0026620007        0.0022594748        0.0060844691
	            -0.0156441450       -0.0049563106       -0.0065372836
	            -0.0036141406       -0.0063957566        0.0021642732
	            -0.0033231035       -0.0062929805       -0.0046880210
	             0.0140982338        0.0181312012        0.0052080567
	             0.0027314074        0.0065517525       -0.0048203860
	             0.0039695287        0.0062942184        0.0020374398
	            -0.0131990720       -0.0183922517        0.0058337530
	            -0.0051233966        0.0049158589        0.0012574924
	            -0.0056342981       -0.0036915409       -0.0023493264
	            -0.0017469750       -0.0022843998        0.0059141819
	             0.0144255671        0.0047361339       -0.0076606961

	---Fragment 1 Intrafragment Coordinates---
	 - Coordinate -           - BOHR/RAD -       - ANG/DEG -
	 R(1,4)           =         2.047582	       1.083534
	 R(2,4)           =         2.049508	       1.084553
	 R(3,4)           =         2.046921	       1.083184
	 R(4,7)           =         2.907144	       1.538395
	 R(5,7)           =         2.049198	       1.084389
	 R(6,7)           =         2.048746	       1.084150
	 R(7,10)          =         2.919367	       1.544862
	 R(8,10)          =         2.048747	       1.084150
	 R(9,10)          =         2.048923	       1.084243
	 R(10,14)         =         2.905923	       1.537748
	 R(11,14)         =         2.048802	       1.084179
	 R(12,14)         =         2.047408	       1.083442
	 R(13,14)         =         2.048210	       1.083866
	 B(1,4,2)         =         1.901591	     108.953161
	 B(1,4,3)         =         1.904530	     109.121542
	 B(1,4,7)         =         1.915885	     109.772129
	 B(2,4,3)         =         1.901514	     108.948708
	 B(2,4,7)         =         1.925708	     110.334944
	 B(3,4,7)         =         1.914368	     109.685199
	 B(4,7,5)         =         1.903961	     109.088919
	 B(4,7,6)         =         1.905640	     109.185134
	 B(4,7,10)        =         1.933173	     110.762650
	 B(5,7,6)         =         1.906323	     109.224241
	 B(5,7,10)        =         1.906955	     109.260479
	 B(6,7,10)        =         1.907597	     109.297277
	 B(7,10,8)        =         1.907257	     109.277759
	 B(7,10,9)        =         1.907703	     109.303349
	 B(7,10,14)       =         1.933447	     110.778342
	 B(8,10,9)        =         1.906106	     109.211808
	 B(8,10,14)       =         1.904626	     109.127020
	 B(9,10,14)       =         1.904503	     109.120007
	 B(10,14,11)      =         1.926264	     110.366815
	 B(10,14,12)      =         1.916342	     109.798290
	 B(10,14,13)      =         1.914756	     109.707418
	 B(11,14,12)      =         1.902025	     108.978001
	 B(11,14,13)      =         1.901677	     108.958056
	 B(12,14,13)      =         1.902497	     109.005060
	 D(1,4,7,5)       =        -3.137769	    -179.780927
	 D(1,4,7,6)       =        -1.055656	     -60.484641
	 D(1,4,7,10)      =         1.045817	      59.920909
	 D(2,4,7,5)       =        -1.041866	     -59.694544
	 D(2,4,7,6)       =         1.040247	      59.601742
	 D(2,4,7,10)      =        -3.141465	    -179.992708
	 D(3,4,7,5)       =         1.052976	      60.331064
	 D(3,4,7,6)       =         3.135089	     179.627350
	 D(3,4,7,10)      =        -1.046623	     -59.967100
	 D(4,7,10,8)      =        -1.738653	     -99.617452
	 D(4,7,10,9)      =         0.346392	      19.846804
	 D(4,7,10,14)     =         2.445530	     140.118563
	 D(5,7,10,8)      =         2.446719	     140.186694
	 D(5,7,10,9)      =        -1.751421	    -100.349050
	 D(5,7,10,14)     =         0.347717	      19.922710
	 D(6,7,10,8)      =         0.361655	      20.721306
	 D(6,7,10,9)      =         2.446700	     140.185562
	 D(6,7,10,14)     =        -1.737347	     -99.542679
	 D(7,10,14,11)    =         3.141537	     179.996808
	 D(7,10,14,12)    =         1.044455	      59.842850
	 D(7,10,14,13)    =        -1.046008	     -59.931871
	 D(8,10,14,11)    =         1.040967	      59.643013
	 D(8,10,14,12)    =        -1.056115	     -60.510945
	 D(8,10,14,13)    =         3.136607	     179.714334
	 D(9,10,14,11)    =        -1.040604	     -59.622216
	 D(9,10,14,12)    =        -3.137686	    -179.776174
	 D(9,10,14,13)    =         1.055036	      60.449105

	Current energy   :      -157.8383290747

	Energy change for the previous step:
		Projected    :        -0.0061126348
		Actual       :        -0.0041091892

	Performing BFGS update.
	Previous computed or guess Hessian on step 1.
	Steps to be used in Hessian update: 1
	Adding user-defined constraint: Fragment 1; Coordinate 49:
		Value =     2.445530; Fixed value    =     2.443460
		Force =    -0.001087; Force constant =     0.525000
	Removing off-diagonal coupling between coordinate 49 and others.
	Taking RFO optimization step.
	Going to follow RFO solution 1.
	Using RFO vector 1.

	Determining step-restricting scale parameter for RS-RFO.
	Maximum step size allowed    0.10000

	 Iter      |step|        alpha        rfo_root  
	------------------------------------------------
	    0     0.20706       1.00000           1
	    1     0.15957       5.04958           1
	    2     0.12435      14.20497           1
	    3     0.10638      24.31500           1
	    4     0.10064      29.09849           1
	    5     0.10001      29.68518           1
	------------------------------------------------
	Norm of target step-size    0.10001
	Projected energy change by RFO approximation:        -0.0031403868

	Back-transformation to cartesian coordinates...
	Could not converge backtransformation.
	Using first guess instead.

	--- Internal Coordinate Step in ANG or DEG, aJ/ANG or AJ/DEG ---
	 ---------------------------------------------------------------------------
	   Coordinate                Previous        Force       Change         New 
	   ----------                --------       ------       ------       ------
	    1 R(1,4)          =      1.083534     0.055013     0.008389     1.091922
	    2 R(2,4)          =      1.084553     0.052005     0.007624     1.092177
	    3 R(3,4)          =      1.083184     0.055399     0.008508     1.091692
	    4 R(4,7)          =      1.538395    -0.026954    -0.006981     1.531414
	    5 R(5,7)          =      1.084389     0.057650     0.008918     1.093307
	    6 R(6,7)          =      1.084150     0.056583     0.008542     1.092691
	    7 R(7,10)         =      1.544862     0.000628    -0.001773     1.543089
	    8 R(8,10)         =      1.084150     0.056844     0.008575     1.092725
	    9 R(9,10)         =      1.084243     0.058405     0.009015     1.093258
	   10 R(10,14)        =      1.537748    -0.024381    -0.006481     1.531268
	   11 R(11,14)        =      1.084179     0.054044     0.007897     1.092077
	   12 R(12,14)        =      1.083442     0.055747     0.008478     1.091920
	   13 R(13,14)        =      1.083866     0.051780     0.008007     1.091873
	   14 B(1,4,2)        =    108.953161    -0.000204    -0.703317   108.249844
	   15 B(1,4,3)        =    109.121542    -0.000178    -0.762113   108.359430
	   16 B(1,4,7)        =    109.772129     0.000166     0.658643   110.430773
	   17 B(2,4,3)        =    108.948708    -0.000186    -0.642003   108.306704
	   18 B(2,4,7)        =    110.334944     0.000268     0.872837   111.207781
	   19 B(3,4,7)        =    109.685199     0.000125     0.515185   110.200384
	   20 B(4,7,5)        =    109.088919    -0.000092    -0.204977   108.883942
	   21 B(4,7,6)        =    109.185134    -0.000090    -0.033671   109.151463
	   22 B(4,7,10)       =    110.762650     0.000383     1.185490   111.948140
	   23 B(5,7,6)        =    109.224241    -0.000106    -1.068868   108.155372
	   24 B(5,7,10)       =    109.260479    -0.000055    -0.029366   109.231114
	   25 B(6,7,10)       =    109.297277    -0.000044     0.095511   109.392788
	   26 B(7,10,8)       =    109.277759    -0.000043     0.102744   109.380502
	   27 B(7,10,9)       =    109.303349    -0.000058    -0.047928   109.255420
	   28 B(7,10,14)      =    110.778342     0.000381     1.174225   111.952567
	   29 B(8,10,9)       =    109.211808    -0.000107    -1.067052   108.144756
	   30 B(8,10,14)      =    109.127020    -0.000085    -0.004799   109.122221
	   31 B(9,10,14)      =    109.120007    -0.000093    -0.213092   108.906915
	   32 B(10,14,11)     =    110.366815     0.000267     0.859115   111.225930
	   33 B(10,14,12)     =    109.798290     0.000160     0.635643   110.433934
	   34 B(10,14,13)     =    109.707418     0.000122     0.505064   110.212482
	   35 B(11,14,12)     =    108.978001    -0.000204    -0.709331   108.268669
	   36 B(11,14,13)     =    108.958056    -0.000186    -0.644404   108.313652
	   37 B(12,14,13)     =    109.005060    -0.000168    -0.706812   108.298248
	   38 D(1,4,7,5)      =   -179.780927     0.000020     0.486004  -179.294923
	   39 D(1,4,7,6)      =    -60.484641    -0.000034    -0.944064   -61.428705
	   40 D(1,4,7,10)     =     59.920909    -0.000005    -0.090453    59.830456
	   41 D(2,4,7,5)      =    -59.694544     0.000025     0.598600   -59.095944
	   42 D(2,4,7,6)      =     59.601742    -0.000029    -0.831468    58.770274
	   43 D(2,4,7,10)     =   -179.992708    -0.000000     0.022143  -179.970565
	   44 D(3,4,7,5)      =     60.331064     0.000029     0.690440    61.021504
	   45 D(3,4,7,6)      =    179.627350    -0.000025    -0.739628   178.887722
	   46 D(3,4,7,10)     =    -59.967100     0.000004     0.113983   -59.853117
	   47 D(4,7,10,8)     =    -99.617452     0.000032     0.965095   -98.652357
	   48 D(4,7,10,9)     =     19.846804    -0.000012    -0.297946    19.548857
	   49 D(4,7,10,14)    =    140.118563     0.000008     0.151672   140.270235
	   50 D(5,7,10,8)     =    140.186694     0.000011     0.487722   140.674416
	   51 D(5,7,10,9)     =   -100.349050    -0.000032    -0.775319  -101.124369
	   52 D(5,7,10,14)    =     19.922710    -0.000013    -0.325701    19.597008
	   53 D(6,7,10,8)     =     20.721306     0.000055     1.746114    22.467420
	   54 D(6,7,10,9)     =    140.185562     0.000011     0.483073   140.668635
	   55 D(6,7,10,14)    =    -99.542679     0.000031     0.932691   -98.609988
	   56 D(7,10,14,11)   =    179.996808     0.000000     0.035155   180.031962
	   57 D(7,10,14,12)   =     59.842850    -0.000004    -0.047583    59.795267
	   58 D(7,10,14,13)   =    -59.931871     0.000004     0.109828   -59.822044
	   59 D(8,10,14,11)   =     59.643013    -0.000029    -0.837683    58.805330
	   60 D(8,10,14,12)   =    -60.510945    -0.000033    -0.920420   -61.431365
	   61 D(8,10,14,13)   =    179.714334    -0.000026    -0.763009   178.951324
	   62 D(9,10,14,11)   =    -59.622216     0.000024     0.577606   -59.044610
	   63 D(9,10,14,12)   =   -179.776174     0.000021     0.494868  -179.281306
	   64 D(9,10,14,13)   =     60.449105     0.000028     0.652279    61.101384
	 ---------------------------------------------------------------------------
	 Forces used to impose fixed constraints are not included.
	  Forces zeroed: 49 

  ==> Convergence Check <==

  Measures of convergence in internal coordinates in au.
  Criteria marked as inactive (o), active & met (*), and active & unmet ( ).
  ---------------------------------------------------------------------------------------------
   Step     Total Energy     Delta E     MAX Force     RMS Force      MAX Disp      RMS Disp   
  ---------------------------------------------------------------------------------------------
    Convergence Criteria    1.00e-06 *    3.00e-04 *             o    1.20e-03 *             o
  ---------------------------------------------------------------------------------------------
      2    -157.83832907   -4.11e-03      7.09e-03      3.21e-03 o    3.05e-02      1.25e-02 o  ~
  ---------------------------------------------------------------------------------------------

	Writing optimization data to binary file.
	Structure for next step:
	Cartesian Geometry (in Angstrom)
	    H    -2.3397210389   0.0424003669   0.5794441358
	    H    -2.2031171977   1.6970868508  -0.0332803657
	    H    -1.9020834816   0.3265790924  -1.1125173766
	    C    -1.7762813530   0.6934900162  -0.0920560427
	    H     0.2440742363   1.3670571894  -0.3900588716
	    H    -0.1851268364   1.0873848774   1.3044488730
	    C    -0.2929828774   0.6991558597   0.2887621140
	    H     0.3610534488  -1.1488004215   1.2115555987
	    H    -0.3004335350  -1.3475730608  -0.4182443286
	    C     0.3278964445  -0.7113580572   0.2107591032
	    H     2.1716192337  -1.6857084702  -0.4213900001
	    H     2.3972018039  -0.0623172664   0.2466230175
	    H     1.7288399165  -0.2646385318  -1.3798675489
	    C     1.7440219465  -0.6820857210  -0.3710592248
			--------------------------
			 OPTKING Finished Execution 
			--------------------------

    Structure for next step:
    Molecular point group: c1
    Full point group: C1

    Geometry (in Angstrom), charge = 0, multiplicity = 1:

    H           -2.339788874495     0.042366179310     0.579093737025
    H           -2.203185033356     1.697052663239    -0.033630764438
    H           -1.902151317256     0.326544904837    -1.112867775377
    C           -1.776349188598     0.693455828574    -0.092406441414
    H            0.244006400658     1.367023001783    -0.390409270311
    H           -0.185194671980     1.087350689761     1.304098474216
    C           -0.293050713019     0.699121672117     0.288411715284
    H            0.360985613131    -1.148834609140     1.211205199968
    H           -0.300501370638    -1.347607248403    -0.418594727373
    C            0.327828608834    -0.711392244838     0.210408704394
    H            2.171551398087    -1.685742657778    -0.421740398869
    H            2.397133968231    -0.062351454025     0.246272618704
    H            1.728772080920    -0.264672719344    -1.380217947672
    C            1.743954110867    -0.682119908608    -0.371409623603

gradient() will perform analytic gradient computation.
    SCF Algorithm Type (re)set to DF.

*** tstart() called on lski1497
*** at Mon Feb 20 17:18:01 2017


         ---------------------------------------------------------
                                   SCF
            by Justin Turney, Rob Parrish, and Andy Simmonett
                              RHF Reference
                        1 Threads,   1000 MiB Core
         ---------------------------------------------------------

  ==> Geometry <==

    Molecular point group: c1
    Full point group: C1

    Geometry (in Angstrom), charge = 0, multiplicity = 1:

       Center              X                  Y                   Z               Mass       
    ------------   -----------------  -----------------  -----------------  -----------------
           H         -2.339788874495     0.042366179310     0.579093737025     1.007825032070
           H         -2.203185033356     1.697052663239    -0.033630764438     1.007825032070
           H         -1.902151317256     0.326544904837    -1.112867775377     1.007825032070
           C         -1.776349188598     0.693455828574    -0.092406441414    12.000000000000
           H          0.244006400658     1.367023001783    -0.390409270311     1.007825032070
           H         -0.185194671980     1.087350689761     1.304098474216     1.007825032070
           C         -0.293050713019     0.699121672117     0.288411715284    12.000000000000
           H          0.360985613131    -1.148834609140     1.211205199968     1.007825032070
           H         -0.300501370638    -1.347607248403    -0.418594727373     1.007825032070
           C          0.327828608834    -0.711392244838     0.210408704394    12.000000000000
           H          2.171551398087    -1.685742657778    -0.421740398869     1.007825032070
           H          2.397133968231    -0.062351454025     0.246272618704     1.007825032070
           H          1.728772080920    -0.264672719344    -1.380217947672     1.007825032070
           C          1.743954110867    -0.682119908608    -0.371409623603    12.000000000000

  Running in c1 symmetry.

  Rotational constants: A =      0.67919  B =      0.12417  C =      0.11980 [cm^-1]
  Rotational constants: A =  20361.68299  B =   3722.56174  C =   3591.62832 [MHz]
  Nuclear repulsion =  130.847387863695275

  Charge       = 0
  Multiplicity = 1
  Electrons    = 34
  Nalpha       = 17
  Nbeta        = 17

  ==> Algorithm <==

  SCF Algorithm Type is DF.
  DIIS enabled.
  MOM disabled.
  Fractional occupation disabled.
  Guess Type is READ.
  Energy threshold   = 1.00e-10
  Density threshold  = 1.00e-10
  Integral threshold = 0.00e+00

  ==> Primary Basis <==

  Basis Set: 6-31G(D)
    Number of shells: 44
    Number of basis function: 80
    Number of Cartesian functions: 80
    Spherical Harmonics?: false
    Max angular momentum: 2

  ==> Pre-Iterations <==

   -------------------------------------------------------
    Irrep   Nso     Nmo     Nalpha   Nbeta   Ndocc  Nsocc
   -------------------------------------------------------
     A         80      80       0       0       0       0
   -------------------------------------------------------
    Total      80      80      17      17      17       0
   -------------------------------------------------------

  ==> Integral Setup <==

  ==> DFJK: Density-Fitted J/K Matrices <==

    J tasked:                  Yes
    K tasked:                  Yes
    wK tasked:                  No
    OpenMP threads:              1
    Integrals threads:           1
    Memory (MB):               715
    Algorithm:                Core
    Integral Cache:           NONE
    Schwarz Cutoff:          1E-12
    Fitting Condition:       1E-12

   => Auxiliary Basis Set <=

  Basis Set: 
    Number of shells: 186
    Number of basis function: 574
    Number of Cartesian functions: 574
    Spherical Harmonics?: false
    Max angular momentum: 3

  Minimum eigenvalue in the overlap matrix is 4.7432603583E-03.
  Using Symmetric Orthogonalization.
  SCF Guess was Projection but file not found.
  Switching over to SAD guess.

  SCF Guess: Superposition of Atomic Densities via on-the-fly atomic UHF.

  ==> Iterations <==

                           Total Energy        Delta E     RMS |[F,P]|

   @DF-RHF iter   0:  -158.83172751813507   -1.58832e+02   4.61696e-02 
   @DF-RHF iter   1:  -157.20604028167784    1.62569e+00   3.85351e-03 
   @DF-RHF iter   2:  -157.28455583848219   -7.85156e-02   1.11351e-03 DIIS
   @DF-RHF iter   3:  -157.29287158840296   -8.31575e-03   2.63541e-04 DIIS
   @DF-RHF iter   4:  -157.29324715125304   -3.75563e-04   7.48790e-05 DIIS
   @DF-RHF iter   5:  -157.29328402071181   -3.68695e-05   1.17891e-05 DIIS
   @DF-RHF iter   6:  -157.29328507937655   -1.05866e-06   2.05688e-06 DIIS
   @DF-RHF iter   7:  -157.29328510187136   -2.24948e-08   6.93103e-07 DIIS
   @DF-RHF iter   8:  -157.29328510406552   -2.19416e-09   1.10619e-07 DIIS
   @DF-RHF iter   9:  -157.29328510416534   -9.98170e-11   2.71332e-08 DIIS
   @DF-RHF iter  10:  -157.29328510417159   -6.25278e-12   5.56570e-09 DIIS
   @DF-RHF iter  11:  -157.29328510417164   -5.68434e-14   9.77722e-10 DIIS
   @DF-RHF iter  12:  -157.29328510417164    0.00000e+00   2.16018e-10 DIIS
   @DF-RHF iter  13:  -157.29328510417193   -2.84217e-13   4.84259e-11 DIIS

  ==> Post-Iterations <==

    Orbital Energies (a.u.)
    -----------------------

    Doubly Occupied:                                                      

       1A    -11.214939     2A    -11.214382     3A    -11.209609  
       4A    -11.209600     5A     -1.067321     6A     -0.978452  
       7A     -0.858376     8A     -0.786118     9A     -0.635784  
      10A     -0.588882    11A     -0.580860    12A     -0.556969  
      13A     -0.509415    14A     -0.502900    15A     -0.464827  
      16A     -0.460493    17A     -0.450782  

    Virtual:                                                              

      18A      0.232442    19A      0.264540    20A      0.285598  
      21A      0.294440    22A      0.321708    23A      0.327501  
      24A      0.328200    25A      0.337284    26A      0.344823  
      27A      0.352320    28A      0.417337    29A      0.444556  
      30A      0.449751    31A      0.707745    32A      0.715450  
      33A      0.743103    34A      0.771216    35A      0.796860  
      36A      0.840802    37A      0.844858    38A      0.935661  
      39A      0.943476    40A      1.003431    41A      1.077101  
      42A      1.080967    43A      1.148120    44A      1.168162  
      45A      1.168784    46A      1.186602    47A      1.192674  
      48A      1.201519    49A      1.232767    50A      1.234490  
      51A      1.241662    52A      1.266454    53A      1.266577  
      54A      1.497656    55A      1.652463    56A      1.736674  
      57A      1.750686    58A      1.919091    59A      1.946947  
      60A      2.104799    61A      2.204741    62A      2.211660  
      63A      2.289360    64A      2.301535    65A      2.324967  
      66A      2.425162    67A      2.490487    68A      2.603758  
      69A      2.632395    70A      2.681409    71A      2.688544  
      72A      2.728505    73A      2.767879    74A      2.886725  
      75A      3.021442    76A      3.085000    77A      4.559071  
      78A      4.657146    79A      4.795226    80A      4.957469  

    Final Occupation by Irrep:
              A 
    DOCC [    17 ]

  Energy converged.

  @DF-RHF Final Energy:  -157.29328510417193

   => Energetics <=

    Nuclear Repulsion Energy =            130.8473878636952747
    One-Electron Energy =                -469.7019304760142404
    Two-Electron Energy =                 181.5612575081470368
    DFT Exchange-Correlation Energy =       0.0000000000000000
    Empirical Dispersion Energy =           0.0000000000000000
    PCM Polarization Energy =               0.0000000000000000
    EFP Energy =                            0.0000000000000000
    Total Energy =                       -157.2932851041719005


  Saving occupied orbitals to File 180.

*** tstop() called on lski1497 at Mon Feb 20 17:18:10 2017
Module time:
	user time   =       4.70 seconds =       0.08 minutes
	system time =       0.13 seconds =       0.00 minutes
	total time  =          9 seconds =       0.15 minutes
Total time:
	user time   =      50.18 seconds =       0.84 minutes
	system time =       1.49 seconds =       0.02 minutes
	total time  =         71 seconds =       1.18 minutes


Properties will be evaluated at   0.000000,   0.000000,   0.000000 Bohr

Properties computed using the SCF density matrix

  Nuclear Dipole Moment: (a.u.)
     X:    -0.0266      Y:     0.0104      Z:    -0.3907

  Electronic Dipole Moment: (a.u.)
     X:     0.0281      Y:    -0.0109      Z:     0.4118

  Dipole Moment: (a.u.)
     X:     0.0015      Y:    -0.0005      Z:     0.0210     Total:     0.0211

  Dipole Moment: (Debye)
     X:     0.0037      Y:    -0.0013      Z:     0.0535     Total:     0.0536


  //>>>>>>>>>>>>>>>>>>>>>>>>>>>>>>>>>>>//
  //               DFMP2               //
  //<<<<<<<<<<<<<<<<<<<<<<<<<<<<<<<<<<<//


*** tstart() called on lski1497
*** at Mon Feb 20 17:18:10 2017


*** tstop() called on lski1497 at Mon Feb 20 17:18:10 2017
Module time:
	user time   =       0.50 seconds =       0.01 minutes
	system time =       0.00 seconds =       0.00 minutes
	total time  =          0 seconds =       0.00 minutes
Total time:
	user time   =      50.70 seconds =       0.85 minutes
	system time =       1.49 seconds =       0.02 minutes
	total time  =         71 seconds =       1.18 minutes
	 --------------------------------------------------------
	                          DF-MP2                         
	      2nd-Order Density-Fitted Moller-Plesset Theory     
	              RMP2 Wavefunction,   1 Threads             
	                                                         
	        Rob Parrish, Justin Turney, Andy Simmonett,      
	           Ed Hohenstein, and C. David Sherrill          
	 --------------------------------------------------------

   => Auxiliary Basis Set <=

  Basis Set: 
    Number of shells: 132
    Number of basis function: 364
    Number of Cartesian functions: 414
    Spherical Harmonics?: true
    Max angular momentum: 3

	 --------------------------------------------------------
	                 NBF =    80, NAUX =   364
	 --------------------------------------------------------
	   CLASS    FOCC     OCC    AOCC    AVIR     VIR    FVIR
	   PAIRS       0      17      17      63      63       0
	 --------------------------------------------------------

DGAS Warning! /src/lib/libfock/apps.cc:80 is not currently checking restricted

         ------------------------------------------------------------
                                     CPHF                           
                                  Rob Parrish                       
         ------------------------------------------------------------

  ==> Geometry <==

    Molecular point group: c1
    Full point group: C1

    Geometry (in Angstrom), charge = 0, multiplicity = 1:

       Center              X                  Y                   Z               Mass       
    ------------   -----------------  -----------------  -----------------  -----------------
           H         -2.339788874495     0.042366179310     0.579093737025     1.007825032070
           H         -2.203185033356     1.697052663239    -0.033630764438     1.007825032070
           H         -1.902151317256     0.326544904837    -1.112867775377     1.007825032070
           C         -1.776349188598     0.693455828574    -0.092406441414    12.000000000000
           H          0.244006400658     1.367023001783    -0.390409270311     1.007825032070
           H         -0.185194671980     1.087350689761     1.304098474216     1.007825032070
           C         -0.293050713019     0.699121672117     0.288411715284    12.000000000000
           H          0.360985613131    -1.148834609140     1.211205199968     1.007825032070
           H         -0.300501370638    -1.347607248403    -0.418594727373     1.007825032070
           C          0.327828608834    -0.711392244838     0.210408704394    12.000000000000
           H          2.171551398087    -1.685742657778    -0.421740398869     1.007825032070
           H          2.397133968231    -0.062351454025     0.246272618704     1.007825032070
           H          1.728772080920    -0.264672719344    -1.380217947672     1.007825032070
           C          1.743954110867    -0.682119908608    -0.371409623603    12.000000000000

  Nuclear repulsion =  130.847387863695275
  Reference energy  = -157.293285104171929

  ==> Basis Set <==

  Basis Set: 6-31G(D)
    Number of shells: 44
    Number of basis function: 80
    Number of Cartesian functions: 80
[...]

    OpenMP threads:              1
    Integrals threads:           1
    Memory (MB):               715
    Schwarz Cutoff:          0E+00
    Fitting Condition:       1E-12

   => Auxiliary Basis Set <=

  Basis Set: 
    Number of shells: 186
    Number of basis function: 510
    Number of Cartesian functions: 574
    Spherical Harmonics?: true
    Max angular momentum: 3

	-----------------------------------------------------------
	 ==================> DF-MP2 Energies <==================== 
	-----------------------------------------------------------
	 Reference Energy          =    -157.2936889371460722 [Eh]
	 Singles Energy            =      -0.0000000000000000 [Eh]
	 Same-Spin Energy          =      -0.1243292216790117 [Eh]
	 Opposite-Spin Energy      =      -0.4223553198924415 [Eh]
	 Correlation Energy        =      -0.5466845415714532 [Eh]
	 Total Energy              =    -157.8403734787175381 [Eh]
	-----------------------------------------------------------
	 ================> DF-SCS-MP2 Energies <================== 
	-----------------------------------------------------------
	 SCS Same-Spin Scale       =       0.3333333333333333 [-]
	 SCS Opposite-Spin Scale   =       1.2000000000000000 [-]
	 SCS Same-Spin Energy      =      -0.0414430738930039 [Eh]
	 SCS Opposite-Spin Energy  =      -0.5068263838709297 [Eh]
	 SCS Correlation Energy    =      -0.5482694577639337 [Eh]
	 SCS Total Energy          =    -157.8419583949099945 [Eh]
	-----------------------------------------------------------


  -Total Gradient:
     Atom            X                  Y                   Z
    ------   -----------------  -----------------  -----------------
       1        0.000002182330    -0.000002420072     0.000009939763
       2       -0.000003424829     0.000005542288    -0.000005300130
       3       -0.000018797489    -0.000008416980    -0.000008653335
       4        0.000752129892     0.000483159882    -0.002850936017
       5        0.000005900776    -0.000002500376     0.000007316289
       6        0.000009144168    -0.000002089100     0.000012667586
       7       -0.001439032986    -0.000812224826     0.002873289317
       8       -0.000007208253     0.000001586218     0.000013782367
       9       -0.000004617501     0.000002250602     0.000007953991
      10        0.001821950115     0.000662146049     0.002689147493
      11        0.000002891073    -0.000005669665    -0.000006042426
      12       -0.000000596814     0.000001801080     0.000010475670
      13        0.000017331196     0.000008726508    -0.000010489718
      14       -0.001137851681    -0.000331891610    -0.002743150851


			-----------------------------------------
			 OPTKING 2.0: for geometry optimizations 
			  - R.A. King,  Bethel University        
			-----------------------------------------

	Previous internal coordinate definitions found.
	---Fragment 1 Geometry and Gradient---
	 H          -4.4454813430        0.0693621934        1.0703875274
	 H          -4.1724965069        3.2164784678       -0.0186473890
	 H          -3.6154773484        0.6658003612       -2.1081527665
	 C          -3.3588297366        1.3221318083       -0.1651297243
	 H           0.4415380735        2.5807602935       -0.7489531973
	 H          -0.3026911215        2.0990853434        2.4371780861
	 C          -0.5647004022        1.3085487983        0.5419040382
	 H           0.6253874372       -2.2253969552        2.2570155115
	 H          -0.5492922667       -2.5385789986       -0.8185953811
	 C           0.6286798510       -1.3335921868        0.3887727486
	 H           4.1188856906       -3.1954969587       -0.7611708243
	 H           4.5498092025       -0.1102068543        0.4471939493
	 H           3.2907655642       -0.5386927226       -2.6153192240
	 C           3.2998098468       -1.2990296729       -0.6933982368
	             0.0000021823       -0.0000024201        0.0000099398
	            -0.0000034248        0.0000055423       -0.0000053001
	            -0.0000187975       -0.0000084170       -0.0000086533
	             0.0007521299        0.0004831599       -0.0028509360
	             0.0000059008       -0.0000025004        0.0000073163
	             0.0000091442       -0.0000020891        0.0000126676
	            -0.0014390330       -0.0008122248        0.0028732893
	            -0.0000072083        0.0000015862        0.0000137824
	            -0.0000046175        0.0000022506        0.0000079540
	             0.0018219501        0.0006621460        0.0026891475
	             0.0000028911       -0.0000056697       -0.0000060424
	            -0.0000005968        0.0000018011        0.0000104757
	             0.0000173312        0.0000087265       -0.0000104897
	            -0.0011378517       -0.0003318916       -0.0027431509

	---Fragment 1 Intrafragment Coordinates---
	 - Coordinate -           - BOHR/RAD -       - ANG/DEG -
	 R(1,4)           =         2.068030	       1.094354
	 R(2,4)           =         2.066896	       1.093754
	 R(3,4)           =         2.066876	       1.093744
	 R(4,7)           =         2.882228	       1.525210
	 R(5,7)           =         2.073005	       1.096987
	 R(6,7)           =         2.070184	       1.095494
	 R(7,10)          =         2.903190	       1.536302
	 R(8,10)          =         2.070183	       1.095494
	 R(9,10)          =         2.073005	       1.096987
	 R(10,14)         =         2.882226	       1.525208
	 R(11,14)         =         2.066898	       1.093755
	 R(12,14)         =         2.068030	       1.094354
	 R(13,14)         =         2.066876	       1.093743
	 B(1,4,2)         =         1.881799	     107.819167
	 B(1,4,3)         =         1.879713	     107.699616
	 B(1,4,7)         =         1.939043	     111.099004
	 B(2,4,3)         =         1.884706	     107.985698
	 B(2,4,7)         =         1.948264	     111.627280
	 B(3,4,7)         =         1.927821	     110.456017
	 B(4,7,5)         =         1.891167	     108.355913
	 B(4,7,6)         =         1.923543	     110.210922
	 B(4,7,10)        =         1.971258	     112.944770
	 B(5,7,6)         =         1.848657	     105.920246
	 B(5,7,10)        =         1.903022	     109.035146
	 B(6,7,10)        =         1.921752	     110.108284
	 B(7,10,8)        =         1.921752	     110.108295
	 B(7,10,9)        =         1.903022	     109.035106
	 B(7,10,14)       =         1.971257	     112.944726
	 B(8,10,9)        =         1.848660	     105.920402
	 B(8,10,14)       =         1.923544	     110.210979
	 B(9,10,14)       =         1.891165	     108.355782
	 B(10,14,11)      =         1.948264	     111.627282
	 B(10,14,12)      =         1.939045	     111.099095
	 B(10,14,13)      =         1.927820	     110.455976
	 B(11,14,12)      =         1.881798	     107.819064
	 B(11,14,13)      =         1.884705	     107.985639
	 B(12,14,13)      =         1.879715	     107.699725
	 D(1,4,7,5)       =         3.137699	     179.776928
	 D(1,4,7,6)       =        -1.130067	     -64.748071
	 D(1,4,7,10)      =         1.027504	      58.871648
	 D(2,4,7,5)       =        -1.044353	     -59.837037
	 D(2,4,7,6)       =         0.971066	      55.637964
	 D(2,4,7,10)      =         3.128637	     179.257683
	 D(3,4,7,5)       =         1.052827	      60.322524
	 D(3,4,7,6)       =         3.068246	     175.797525
	 D(3,4,7,10)      =        -1.057369	     -60.582755
	 D(4,7,10,8)      =        -1.672551	     -95.830138
	 D(4,7,10,9)      =         0.348636	      19.975353
	 D(4,7,10,14)     =         2.452074	     140.493480
	 D(5,7,10,8)      =         2.507192	     143.651512
	 D(5,7,10,9)      =        -1.754806	    -100.542996
	 D(5,7,10,14)     =         0.348632	      19.975130
	 D(6,7,10,8)      =         0.486008	      27.846193
	 D(6,7,10,9)      =         2.507195	     143.651684
	 D(6,7,10,14)     =        -1.672552	     -95.830189
	 D(7,10,14,11)    =         3.128643	     179.258050
	 D(7,10,14,12)    =         1.027512	      58.872083
	 D(7,10,14,13)    =        -1.057364	     -60.582490
	 D(8,10,14,11)    =         0.971072	      55.638305
	 D(8,10,14,12)    =        -1.130060	     -64.747662
	 D(8,10,14,13)    =         3.068250	     175.797765
	 D(9,10,14,11)    =        -1.044350	     -59.836840
	 D(9,10,14,12)    =         3.137704	     179.777194
	 D(9,10,14,13)    =         1.052828	      60.322621

	Current energy   :      -157.8403734787

	Energy change for the previous step:
		Projected    :        -0.0000033245
		Actual       :         0.0000005792

	Performing BFGS update.
	Previous computed or guess Hessian on step 1.
	Steps to be used in Hessian update: 6 5
	Adding user-defined constraint: Fragment 1; Coordinate 49:
		Value =     2.452074; Fixed value    =     2.443460
		Force =    -0.005599; Force constant =     0.650000
	Removing off-diagonal coupling between coordinate 49 and others.
	Taking RFO optimization step.
	Going to follow RFO solution 1.
	Using RFO vector 1.

	Determining step-restricting scale parameter for RS-RFO.
	Maximum step size allowed    0.10000

	 Iter      |step|        alpha        rfo_root  
	------------------------------------------------
	    0    27.67336       1.00000           1
	    1    13.87002       1.99759           1
	    2     6.96833       3.98555           1
	    3     3.51745       7.93267           1
	    4     1.79193      15.71235           1
	    5     0.92906      30.81911           1
	    6     0.49753      59.27209           1
	    7     0.28190     109.58621           1
	    8     0.17503     187.67403           1
	    9     0.12442     280.69805           1
	   10     0.10453     347.05742           1
	   11     0.10022     365.60095           1
	   12     0.10000     366.60034           1
	------------------------------------------------
	Norm of target step-size    0.10000
	Projected energy change by RFO approximation:         0.0000507734

	Back-transformation to cartesian coordinates...
	Could not converge backtransformation.
	Using first guess instead.

	--- Internal Coordinate Step in ANG or DEG, aJ/ANG or AJ/DEG ---
	 ---------------------------------------------------------------------------
	   Coordinate                Previous        Force       Change         New 
	   ----------                --------       ------       ------       ------
	    1 R(1,4)          =      1.094354    -0.000051     0.000559     1.094913
	    2 R(2,4)          =      1.093754    -0.000051     0.000770     1.094525
	    3 R(3,4)          =      1.093744    -0.000108     0.001069     1.094813
	    4 R(4,7)          =      1.525210     0.000060    -0.002541     1.522668
	    5 R(5,7)          =      1.096987     0.000026    -0.000752     1.096235
	    6 R(6,7)          =      1.095494    -0.000099     0.000886     1.096380
	    7 R(7,10)         =      1.536302     0.000178     0.001481     1.537783
	    8 R(8,10)         =      1.095494    -0.000097     0.000878     1.096371
	    9 R(9,10)         =      1.096987     0.000027    -0.000737     1.096250
	   10 R(10,14)        =      1.525208     0.000068    -0.002484     1.522724
	   11 R(11,14)        =      1.093755    -0.000055     0.000804     1.094560
	   12 R(12,14)        =      1.094354    -0.000052     0.000550     1.094904
	   13 R(13,14)        =      1.093743    -0.000106     0.000962     1.094705
	   14 B(1,4,2)        =    107.819167    -0.000000    -0.079225   107.739943
	   15 B(1,4,3)        =    107.699616     0.000000    -0.170080   107.529536
	   16 B(1,4,7)        =    111.099004     0.000001    -0.176589   110.922416
	   17 B(2,4,3)        =    107.985698     0.000001    -0.175864   107.809835
	   18 B(2,4,7)        =    111.627280    -0.000000     0.082414   111.709694
	   19 B(3,4,7)        =    110.456017    -0.000002     0.495707   110.951724
	   20 B(4,7,5)        =    108.355913    -0.000005     0.804126   109.160040
	   21 B(4,7,6)        =    110.210922     0.000003    -0.679779   109.531143
	   22 B(4,7,10)       =    112.944770     0.000001     0.061099   113.005869
	   23 B(5,7,6)        =    105.920246     0.000000    -0.245031   105.675215
	   24 B(5,7,10)       =    109.035146     0.000000     0.044970   109.080116
	   25 B(6,7,10)       =    110.108284    -0.000000     0.012462   110.120746
	   26 B(7,10,8)       =    110.108295    -0.000000     0.009442   110.117737
	   27 B(7,10,9)       =    109.035106     0.000000     0.042368   109.077475
	   28 B(7,10,14)      =    112.944726     0.000001     0.059012   113.003738
	   29 B(8,10,9)       =    105.920402     0.000000    -0.236316   105.684086
	   30 B(8,10,14)      =    110.210979     0.000003    -0.678286   109.532693
	   31 B(9,10,14)      =    108.355782    -0.000005     0.802342   109.158124
	   32 B(10,14,11)     =    111.627282    -0.000000     0.082225   111.709507
	   33 B(10,14,12)     =    111.099095     0.000001    -0.178129   110.920966
	   34 B(10,14,13)     =    110.455976    -0.000002     0.489993   110.945969
	   35 B(11,14,12)     =    107.819064    -0.000000    -0.086014   107.733050
	   36 B(11,14,13)     =    107.985639     0.000001    -0.176673   107.808966
	   37 B(12,14,13)     =    107.699725     0.000000    -0.154445   107.545280
	   38 D(1,4,7,5)      =    179.776928    -0.000000    -0.007641   179.769287
	   39 D(1,4,7,6)      =    -64.748071    -0.000000    -0.221530   -64.969601
	   40 D(1,4,7,10)     =     58.871648     0.000000    -0.668998    58.202650
	   41 D(2,4,7,5)      =    -59.837037    -0.000000    -0.173464   -60.010502
	   42 D(2,4,7,6)      =     55.637964    -0.000000    -0.387353    55.250610
	   43 D(2,4,7,10)     =    179.257683     0.000000    -0.834822   178.422861
	   44 D(3,4,7,5)      =     60.322524    -0.000000    -0.003944    60.318580
	   45 D(3,4,7,6)      =    175.797525    -0.000000    -0.217833   175.579693
	   46 D(3,4,7,10)     =    -60.582755     0.000000    -0.665301   -61.248057
	   47 D(4,7,10,8)     =    -95.830138    -0.000001    -1.112653   -96.942791
	   48 D(4,7,10,9)     =     19.975353    -0.000001    -1.367385    18.607967
	   49 D(4,7,10,14)    =    140.493480    -0.000002    -0.279562   140.213918
	   50 D(5,7,10,8)     =    143.651512     0.000000    -2.205998   141.445515
	   51 D(5,7,10,9)     =   -100.542996     0.000000    -2.460730  -103.003726
	   52 D(5,7,10,14)    =     19.975130    -0.000001    -1.372907    18.602224
	   53 D(6,7,10,8)     =     27.846193    -0.000000    -1.943959    25.902234
	   54 D(6,7,10,9)     =    143.651684     0.000000    -2.198691   141.452993
	   55 D(6,7,10,14)    =    -95.830189    -0.000001    -1.110868   -96.941057
	   56 D(7,10,14,11)   =    179.258050     0.000000    -0.836045   178.422005
	   57 D(7,10,14,12)   =     58.872083     0.000000    -0.660418    58.211665
	   58 D(7,10,14,13)   =    -60.582490     0.000000    -0.671597   -61.254087
	   59 D(8,10,14,11)   =     55.638305    -0.000000    -0.384311    55.253994
	   60 D(8,10,14,12)   =    -64.747662    -0.000000    -0.208684   -64.956346
	   61 D(8,10,14,13)   =    175.797765    -0.000000    -0.219863   175.577903
	   62 D(9,10,14,11)   =    -59.836840    -0.000000    -0.180676   -60.017516
	   63 D(9,10,14,12)   =    179.777194    -0.000000    -0.005050   179.772144
	   64 D(9,10,14,13)   =     60.322621    -0.000000    -0.016228    60.306393
	 ---------------------------------------------------------------------------
	 Forces used to impose fixed constraints are not included.
	  Forces zeroed: 49 

  ==> Convergence Check <==

  Measures of convergence in internal coordinates in au.
  Criteria marked as inactive (o), active & met (*), and active & unmet ( ).
  ---------------------------------------------------------------------------------------------
   Step     Total Energy     Delta E     MAX Force     RMS Force      MAX Disp      RMS Disp   
  ---------------------------------------------------------------------------------------------
    Convergence Criteria    1.00e-06 *    3.00e-04 *             o    1.20e-03 *             o
  ---------------------------------------------------------------------------------------------
      7    -157.84037348    5.79e-07 *    7.21e-05 *    2.62e-05 o    4.29e-02      1.25e-02 o  ~
  ---------------------------------------------------------------------------------------------


  **** Optimization is complete! (in 7 steps) ****

  ==> Optimization Summary <==

  Measures of convergence in internal coordinates in au.
  --------------------------------------------------------------------------------------------------------------- ~
   Step         Total Energy             Delta E       MAX Force       RMS Force        MAX Disp        RMS Disp  ~
  --------------------------------------------------------------------------------------------------------------- ~
      1    -157.834219885484   -157.834219885484      0.01741580      0.00726852      0.02734905      0.01250969  ~
      2    -157.838329074653     -0.004109189169      0.00708907      0.00321213      0.03047545      0.01250179  ~
      3    -157.839833147169     -0.001504072515      0.00225628      0.00099623      0.04714301      0.01249355  ~
      4    -157.840264014655     -0.000430867486      0.00120150      0.00031937      0.03579368      0.01249477  ~
      5    -157.840362396506     -0.000098381852      0.00015923      0.00006961      0.01059932      0.00518678  ~
      6    -157.840374057881     -0.000011661375      0.00012389      0.00003248      0.00278327      0.00133202  ~
      7    -157.840373478718      0.000000579164      0.00014168      0.00003164      0.04294784      0.01250298  ~
  --------------------------------------------------------------------------------------------------------------- ~

	Writing optimization data to binary file.
	Final energy is   -157.8403734787175
	Final (previous) structure:
	Cartesian Geometry (in Angstrom)
	    H    -2.3524474079   0.0367048919   0.5664246839
	    H    -2.2079900544   1.7020870971  -0.0098677732
	    H    -1.9132282110   0.3523263766  -1.1155863963
	    C    -1.7774161442   0.6996420197  -0.0873828866
	    H     0.2336518852   1.3656795281  -0.3963289623
	    H    -0.1601772427   1.1107881226   1.2896990964
	    C    -0.2988265825   0.6924542004   0.2867632663
	    H     0.3309407783  -1.1776293488   1.1943611681
	    H    -0.2906729484  -1.3433581483  -0.4331820187
	    C     0.3326830487  -0.7057065908   0.2057296779
	    H     2.1796204323  -1.6909841607  -0.4027942521
	    H     2.4076553334  -0.0583189555   0.2366448458
	    H     1.7413981354  -0.2850639112  -1.3839673266
	    C     1.7461841636  -0.6874168962  -0.3669305434
	Saving final (previous) structure.
			--------------------------
			 OPTKING Finished Execution 
			--------------------------

    Final optimized geometry and variables:
    Molecular point group: c1
    Full point group: C1

    Geometry (in Angstrom), charge = 0, multiplicity = 1:

    H           -2.352447407903     0.036704891867     0.566424683859
    H           -2.207990054359     1.702087097066    -0.009867773242
    H           -1.913228210966     0.352326376609    -1.115586396263
    C           -1.777416144169     0.699642019682    -0.087382886578
    H            0.233651885219     1.365679528149    -0.396328962289
    H           -0.160177242739     1.110788122614     1.289699096413
    C           -0.298826582549     0.692454200371     0.286763266272
    H            0.330940778305    -1.177629348769     1.194361168129
    H           -0.290672948387    -1.343358148259    -0.433182018715
    C            0.332683048654    -0.705706590819     0.205729677899
    H            2.179620432262    -1.690984160672    -0.402794252065
    H            2.407655333370    -0.058318955531     0.236644845765
    H            1.741398135413    -0.285063911231    -1.383967326551
    C            1.746184163610    -0.687416896205    -0.366930543380

	Cleaning optimization helper files.

*** Psi4 exiting successfully. Buy a developer a beer!
