    -----------------------------------------------------------------------
          Psi4: An Open-Source Ab Initio Electronic Structure Package
                              Psi4 1.0.0 Driver

                          Git: Rev {master} 6a9a71b 

    J. M. Turney, A. C. Simmonett, R. M. Parrish, E. G. Hohenstein,
    F. A. Evangelista, J. T. Fermann, B. J. Mintz, L. A. Burns, J. J. Wilke,
    M. L. Abrams, N. J. Russ, M. L. Leininger, C. L. Janssen, E. T. Seidl,
    W. D. Allen, H. F. Schaefer, R. A. King, E. F. Valeev, C. D. Sherrill,
    and T. D. Crawford, WIREs Comput. Mol. Sci. 2, 556-565 (2012)
    (doi: 10.1002/wcms.93)

                         Additional Contributions by
    A. E. DePrince, U. Bozkaya, A. Yu. Sokolov, D. G. A. Smith, R. Di Remigio,
    R. M. Richard, J. F. Gonthier, H. R. McAlexander, M. Saitow, and
    B. P. Pritchard
    -----------------------------------------------------------------------


    Psi4 started on: Mon Feb 20 17:20:34 2017

    Process ID:  27984
    PSI4DATADIR: /Users/sternc1/anaconda/share/psi4
    Memory level set to 256.000 MB

  ==> Input File <==

--------------------------------------------------------------------------

memory 1000 mb

molecule butane {
  symmetry C1
  0 1 
  H      1.604   0.760   -8.260
  H      1.745   2.388   -8.880
  H      2.043   1.024   -9.930
  C      2.142   1.395   -8.932
  H      4.169   2.051   -9.210
  H      3.731   1.788   -7.539
  C      3.631   1.416   -8.537
  H      3.561   -0.681   -8.078
  H      4.266   -0.318   -9.635
  C      4.203   -0.012   -8.612
  H      6.005   -1.029   -8.035
  H      5.546   0.269   -6.960
  H      6.250   0.633   -8.516
  C      5.608   -0.037   -7.983
  units Angstrom
}

dih_string = "4 7 10 14 190"
set optking fixed_dihedral = $dih_string

optimize('MP2/6-31G(d)')
--------------------------------------------------------------------------

  Memory set to 1000.000 MiB by Python script.
gradient() will perform analytic gradient computation.
    SCF Algorithm Type (re)set to DF.

*** tstart() called on lski1497
*** at Mon Feb 20 17:20:36 2017


         ---------------------------------------------------------
                                   SCF
            by Justin Turney, Rob Parrish, and Andy Simmonett
                              RHF Reference
                        1 Threads,   1000 MiB Core
         ---------------------------------------------------------

  ==> Geometry <==

    Molecular point group: c1
    Full point group: C1

    Geometry (in Angstrom), charge = 0, multiplicity = 1:

       Center              X                  Y                   Z               Mass       
    ------------   -----------------  -----------------  -----------------  -----------------
           H         -2.291305884715     0.069847057643     0.253969712791     1.007825032070
           H         -2.150305884715     1.697847057643    -0.366030287209     1.007825032070
           H         -1.852305884715     0.333847057643    -1.416030287209     1.007825032070
           C         -1.753305884715     0.704847057643    -0.418030287209    12.000000000000
           H          0.273694115285     1.360847057643    -0.696030287209     1.007825032070
           H         -0.164305884715     1.097847057643     0.974969712791     1.007825032070
           C         -0.264305884715     0.725847057643    -0.023030287209    12.000000000000
           H         -0.334305884715    -1.371152942357     0.435969712791     1.007825032070
           H          0.370694115285    -1.008152942357    -1.121030287209     1.007825032070
           C          0.307694115285    -0.702152942357    -0.098030287209    12.000000000000
           H          2.109694115285    -1.719152942357     0.478969712791     1.007825032070
           H          1.650694115285    -0.421152942357     1.553969712791     1.007825032070
           H          2.354694115285    -0.057152942357    -0.002030287209     1.007825032070
           C          1.712694115285    -0.727152942357     0.530969712791    12.000000000000

  Running in c1 symmetry.

  Rotational constants: A =      0.76231  B =      0.12483  C =      0.11677 [cm^-1]
  Rotational constants: A =  22853.36211  B =   3742.19549  C =   3500.58472 [MHz]
  Nuclear repulsion =  131.839877261071905

  Charge       = 0
  Multiplicity = 1
  Electrons    = 34
  Nalpha       = 17
  Nbeta        = 17

  ==> Algorithm <==

  SCF Algorithm Type is DF.
  DIIS enabled.
  MOM disabled.
  Fractional occupation disabled.
  Guess Type is SAD.
  Energy threshold   = 1.00e-10
  Density threshold  = 1.00e-10
  Integral threshold = 0.00e+00

  ==> Primary Basis <==

  Basis Set: 6-31G(D)
    Number of shells: 44
    Number of basis function: 80
    Number of Cartesian functions: 80
    Spherical Harmonics?: false
    Max angular momentum: 2

  ==> Pre-Iterations <==

   -------------------------------------------------------
    Irrep   Nso     Nmo     Nalpha   Nbeta   Ndocc  Nsocc
   -------------------------------------------------------
     A         80      80       0       0       0       0
   -------------------------------------------------------
    Total      80      80      17      17      17       0
   -------------------------------------------------------

  ==> Integral Setup <==

  ==> DFJK: Density-Fitted J/K Matrices <==

    J tasked:                  Yes
    K tasked:                  Yes
    wK tasked:                  No
    OpenMP threads:              1
    Integrals threads:           1
    Memory (MB):               715
    Algorithm:                Core
    Integral Cache:           NONE
    Schwarz Cutoff:          1E-12
    Fitting Condition:       1E-12

   => Auxiliary Basis Set <=

  Basis Set: 
    Number of shells: 186
    Number of basis function: 574
    Number of Cartesian functions: 574
    Spherical Harmonics?: false
    Max angular momentum: 3

  Minimum eigenvalue in the overlap matrix is 4.4985607627E-03.
  Using Symmetric Orthogonalization.
  SCF Guess: Superposition of Atomic Densities via on-the-fly atomic UHF.

  ==> Iterations <==

                           Total Energy        Delta E     RMS |[F,P]|

   @DF-RHF iter   0:  -158.97883710171132   -1.58979e+02   4.74951e-02 
   @DF-RHF iter   1:  -157.20537989863166    1.77346e+00   3.96119e-03 
   @DF-RHF iter   2:  -157.28553918973003   -8.01593e-02   1.09003e-03 DIIS
   @DF-RHF iter   3:  -157.29331893245384   -7.77974e-03   2.45642e-04 DIIS
   @DF-RHF iter   4:  -157.29367122879356   -3.52296e-04   7.50678e-05 DIIS
   @DF-RHF iter   5:  -157.29370486074154   -3.36319e-05   1.32386e-05 DIIS
   @DF-RHF iter   6:  -157.29370614261589   -1.28187e-06   2.52438e-06 DIIS
   @DF-RHF iter   7:  -157.29370617281117   -3.01953e-08   7.13845e-07 DIIS
   @DF-RHF iter   8:  -157.29370617536469   -2.55352e-09   9.96271e-08 DIIS
   @DF-RHF iter   9:  -157.29370617544785   -8.31619e-11   2.14910e-08 DIIS
   @DF-RHF iter  10:  -157.29370617545166   -3.80851e-12   3.86831e-09 DIIS
   @DF-RHF iter  11:  -157.29370617545206   -3.97904e-13   8.88422e-10 DIIS
   @DF-RHF iter  12:  -157.29370617545189    1.70530e-13   2.87626e-10 DIIS
   @DF-RHF iter  13:  -157.29370617545206   -1.70530e-13   6.54365e-11 DIIS

  ==> Post-Iterations <==

    Orbital Energies (a.u.)
    -----------------------

    Doubly Occupied:                                                      

       1A    -11.208027     2A    -11.207436     3A    -11.200096  
       4A    -11.199966     5A     -1.070949     6A     -0.981265  
       7A     -0.861779     8A     -0.794758     9A     -0.647568  
      10A     -0.587656    11A     -0.578055    12A     -0.568641  
      13A     -0.514705    14A     -0.504105    15A     -0.475254  
      16A     -0.468518    17A     -0.441419  

    Virtual:                                                              

      18A      0.233234    19A      0.265306    20A      0.288875  
      21A      0.299591    22A      0.325052    23A      0.340351  
      24A      0.343868    25A      0.346281    26A      0.358726  
      27A      0.364634    28A      0.418956    29A      0.422173  
      30A      0.434370    31A      0.698442    32A      0.710510  
      33A      0.748471    34A      0.750539    35A      0.760522  
      36A      0.845270    37A      0.856086    38A      0.931418  
      39A      0.953561    40A      1.027583    41A      1.069630  
      42A      1.098410    43A      1.155175    44A      1.189104  
      45A      1.206752    46A      1.212438    47A      1.219557  
      48A      1.227224    49A      1.244271    50A      1.253212  
      51A      1.261391    52A      1.296285    53A      1.301442  
      54A      1.622580    55A      1.687448    56A      1.716436  
      57A      1.729042    58A      1.929316    59A      1.933103  
      60A      2.153603    61A      2.196549    62A      2.221426  
      63A      2.292533    64A      2.309961    65A      2.340118  
      66A      2.399976    67A      2.543771    68A      2.629274  
      69A      2.635438    70A      2.662409    71A      2.750066  
      72A      2.751209    73A      2.767424    74A      2.887468  
      75A      3.005390    76A      3.115891    77A      4.579875  
      78A      4.685828    79A      4.800081    80A      4.952642  

    Final Occupation by Irrep:
              A 
    DOCC [    17 ]

  Energy converged.

  @DF-RHF Final Energy:  -157.29370617545206

   => Energetics <=

    Nuclear Repulsion Energy =            131.8398772610719050
    One-Electron Energy =                -471.6467720231388512
    Two-Electron Energy =                 182.5131885866150014
    DFT Exchange-Correlation Energy =       0.0000000000000000
    Empirical Dispersion Energy =           0.0000000000000000
    PCM Polarization Energy =               0.0000000000000000
    EFP Energy =                            0.0000000000000000
    Total Energy =                       -157.2937061754519164


  Saving occupied orbitals to File 180.

*** tstop() called on lski1497 at Mon Feb 20 17:20:43 2017
Module time:
	user time   =       4.71 seconds =       0.08 minutes
	system time =       0.16 seconds =       0.00 minutes
	total time  =          7 seconds =       0.12 minutes
Total time:
	user time   =       4.71 seconds =       0.08 minutes
	system time =       0.16 seconds =       0.00 minutes
	total time  =          7 seconds =       0.12 minutes


Properties will be evaluated at   0.000000,   0.000000,   0.000000 Bohr

Properties computed using the SCF density matrix

  Nuclear Dipole Moment: (a.u.)
     X:    -0.0310      Y:    -0.0155      Z:     0.0907

  Electronic Dipole Moment: (a.u.)
     X:     0.0337      Y:     0.0165      Z:    -0.0982

  Dipole Moment: (a.u.)
     X:     0.0027      Y:     0.0010      Z:    -0.0076     Total:     0.0081

  Dipole Moment: (Debye)
     X:     0.0069      Y:     0.0026      Z:    -0.0192     Total:     0.0206


  //>>>>>>>>>>>>>>>>>>>>>>>>>>>>>>>>>>>//
  //               DFMP2               //
  //<<<<<<<<<<<<<<<<<<<<<<<<<<<<<<<<<<<//


*** tstart() called on lski1497
*** at Mon Feb 20 17:20:43 2017


*** tstop() called on lski1497 at Mon Feb 20 17:20:44 2017
Module time:
	user time   =       0.51 seconds =       0.01 minutes
	system time =       0.00 seconds =       0.00 minutes
	total time  =          1 seconds =       0.02 minutes
Total time:
	user time   =       5.24 seconds =       0.09 minutes
	system time =       0.16 seconds =       0.00 minutes
	total time  =          8 seconds =       0.13 minutes
	 --------------------------------------------------------
	                          DF-MP2                         
	      2nd-Order Density-Fitted Moller-Plesset Theory     
	              RMP2 Wavefunction,   1 Threads             
	                                                         
	        Rob Parrish, Justin Turney, Andy Simmonett,      
	           Ed Hohenstein, and C. David Sherrill          
	 --------------------------------------------------------

   => Auxiliary Basis Set <=

  Basis Set: 
    Number of shells: 132
    Number of basis function: 364
    Number of Cartesian functions: 414
    Spherical Harmonics?: true
    Max angular momentum: 3

	 --------------------------------------------------------
	                 NBF =    80, NAUX =   364
	 --------------------------------------------------------
	   CLASS    FOCC     OCC    AOCC    AVIR     VIR    FVIR
	   PAIRS       0      17      17      63      63       0
	 --------------------------------------------------------

DGAS Warning! /src/lib/libfock/apps.cc:80 is not currently checking restricted

         ------------------------------------------------------------
                                     CPHF                           
                                  Rob Parrish                       
         ------------------------------------------------------------

  ==> Geometry <==

    Molecular point group: c1
    Full point group: C1

    Geometry (in Angstrom), charge = 0, multiplicity = 1:

       Center              X                  Y                   Z               Mass       
    ------------   -----------------  -----------------  -----------------  -----------------
           H         -2.291305884715     0.069847057643     0.253969712791     1.007825032070
           H         -2.150305884715     1.697847057643    -0.366030287209     1.007825032070
           H         -1.852305884715     0.333847057643    -1.416030287209     1.007825032070
           C         -1.753305884715     0.704847057643    -0.418030287209    12.000000000000
           H          0.273694115285     1.360847057643    -0.696030287209     1.007825032070
           H         -0.164305884715     1.097847057643     0.974969712791     1.007825032070
           C         -0.264305884715     0.725847057643    -0.023030287209    12.000000000000
           H         -0.334305884715    -1.371152942357     0.435969712791     1.007825032070
           H          0.370694115285    -1.008152942357    -1.121030287209     1.007825032070
           C          0.307694115285    -0.702152942357    -0.098030287209    12.000000000000
           H          2.109694115285    -1.719152942357     0.478969712791     1.007825032070
           H          1.650694115285    -0.421152942357     1.553969712791     1.007825032070
           H          2.354694115285    -0.057152942357    -0.002030287209     1.007825032070
           C          1.712694115285    -0.727152942357     0.530969712791    12.000000000000

  Nuclear repulsion =  131.839877261071905
  Reference energy  = -157.293706175452058

  ==> Basis Set <==

  Basis Set: 6-31G(D)
    Number of shells: 44
    Number of basis function: 80
    Number of Cartesian functions: 80
    Spherical Harmonics?: false
    Max angular momentum: 2

  ==> CGRSolver (by Rob Parrish) <==

   Number of roots    =         1
   Preconditioning    =    JACOBI
   Convergence cutoff =     1E-06
   Maximum iterations =       100

  ==> CPHFRHamiltonian (by Rob Parrish) <== 

  ==> DFJK: Density-Fitted J/K Matrices <==

    J tasked:                  Yes
    K tasked:                  Yes
    wK tasked:                  No
    OpenMP threads:              1
    Integrals threads:           1
    Memory (MB):               715
    Algorithm:                Core
    Integral Cache:           NONE
    Schwarz Cutoff:          1E-12
    Fitting Condition:       1E-12

   => Auxiliary Basis Set <=

  Basis Set: 
    Number of shells: 186
    Number of basis function: 574
    Number of Cartesian functions: 574
    Spherical Harmonics?: false
    Max angular momentum: 3

  ==> CPHF Iterations <==

  => Iterations <=

             Iter  Converged  Remaining    Residual
  CGR           1          0          1   7.254E-02
  CGR           2          0          1   8.694E-03
  CGR           3          0          1   2.774E-03
  CGR           4          0          1   3.543E-04
  CGR           5          0          1   5.449E-05
  CGR           6          0          1   1.010E-05
  CGR           7          0          1   2.039E-06
  CGR           8          1          0   4.358E-07

    CGRSolver converged.

  ==> DFCorrGrad: Density-Fitted Correlated Gradients <==

    OpenMP threads:              1
    Integrals threads:           1
    Memory (MB):               715
    Schwarz Cutoff:          0E+00
    Fitting Condition:       1E-12

   => Auxiliary Basis Set <=

  Basis Set: 
    Number of shells: 186
    Number of basis function: 510
    Number of Cartesian functions: 574
    Spherical Harmonics?: true
    Max angular momentum: 3

	-----------------------------------------------------------
	 ==================> DF-MP2 Energies <==================== 
	-----------------------------------------------------------
	 Reference Energy          =    -157.2937061754520585 [Eh]
	 Singles Energy            =      -0.0000000000000000 [Eh]
	 Same-Spin Energy          =      -0.1243519269461694 [Eh]
	 Opposite-Spin Energy      =      -0.4201312126838600 [Eh]
	 Correlation Energy        =      -0.5444831396300294 [Eh]
	 Total Energy              =    -157.8381893150820758 [Eh]
	-----------------------------------------------------------
	 ================> DF-SCS-MP2 Energies <================== 
	-----------------------------------------------------------
	 SCS Same-Spin Scale       =       0.3333333333333333 [-]
	 SCS Opposite-Spin Scale   =       1.2000000000000000 [-]
	 SCS Same-Spin Energy      =      -0.0414506423153898 [Eh]
	 SCS Opposite-Spin Energy  =      -0.5041574552206319 [Eh]
	 SCS Correlation Energy    =      -0.5456080975360217 [Eh]
	 SCS Total Energy          =    -157.8393142729880765 [Eh]
	-----------------------------------------------------------


  -Total Gradient:
     Atom            X                  Y                   Z
    ------   -----------------  -----------------  -----------------
       1        0.010619693516     0.009152003906    -0.009007852832
       2        0.010395647843    -0.013652844798     0.000690927354
       3        0.004420460318     0.005720409227     0.015579279129
       4       -0.027302688737    -0.007711735207    -0.007927249957
       5       -0.010512080811    -0.011847622956     0.008027652978
       6       -0.003304923453    -0.007787753152    -0.015779915912
       7        0.023979988120     0.032701264170     0.012726546456
       8        0.011220097429     0.012103581672    -0.006586344284
       9        0.002041731719     0.007252227445     0.016636523574
      10       -0.022130361095    -0.031936184168    -0.016928139582
      11       -0.010492084384     0.014386033841    -0.001167860774
      12       -0.001710362536    -0.004272945286    -0.016145170074
      13       -0.011958370769    -0.009557099665     0.006411326175
      14        0.024733252842     0.005450664971     0.013470277749


			-----------------------------------------
			 OPTKING 2.0: for geometry optimizations 
			  - R.A. King,  Bethel University        
			-----------------------------------------

	Internal coordinates to be generated automatically.
	Detected frag 1 with atoms:  1 2 3 4 5 6 7 8 9 10 11 12 13 14
	---Fragment 1 Bond Connectivity---
	 1 : 4
	 2 : 4
	 3 : 4
	 4 : 1 2 3 7
	 5 : 7
	 6 : 7
	 7 : 4 5 6 10
	 8 : 10
	 9 : 10
	 10 : 7 8 9 14
	 11 : 14
	 12 : 14
	 13 : 14
	 14 : 10 11 12 13

	Assuming in current code that numbering for constraints corresponds to unified fragment.
	Fixed dihedral atom list: 
	     4     7    10    14
	---Fragment 1 Geometry and Gradient---
	 H          -4.3299406088        0.1319918101        0.4799332032
	 H          -4.0634892240        3.2084659545       -0.6916969992
	 H          -3.5003508364        0.6308795092       -2.6759094387
	 C          -3.3132679493        1.3319679045       -0.7899627581
	 H           0.5172069221        2.5716282477       -1.3153066230
	 H          -0.3104931241        2.0746302747        1.8424257450
	 C          -0.4994657374        1.3716521533       -0.0435209356
	 H          -0.6317465667       -2.5911035474        0.8238633594
	 H           0.7005103570       -1.9051329611       -2.1184402295
	 C           0.5814576106       -1.3268767645       -0.1852503956
	 H           3.9867441020       -3.2487282416        0.9051215831
	 H           3.1193598071       -0.7958637211        2.9365771760
	 H           4.4497270046       -0.1080034087       -0.0038366868
	 C           3.2365228273       -1.3741199178        1.0033873420
	             0.0106196935        0.0091520039       -0.0090078528
	             0.0103956478       -0.0136528448        0.0006909274
	             0.0044204603        0.0057204092        0.0155792791
	            -0.0273026887       -0.0077117352       -0.0079272500
	            -0.0105120808       -0.0118476230        0.0080276530
	            -0.0033049235       -0.0077877532       -0.0157799159
	             0.0239799881        0.0327012642        0.0127265465
	             0.0112200974        0.0121035817       -0.0065863443
	             0.0020417317        0.0072522274        0.0166365236
	            -0.0221303611       -0.0319361842       -0.0169281396
	            -0.0104920844        0.0143860338       -0.0011678608
	            -0.0017103625       -0.0042729453       -0.0161451701
	            -0.0119583708       -0.0095570997        0.0064113262
	             0.0247332528        0.0054506650        0.0134702777

	Previous optimization step data not found.  Starting new optimization.

	---Fragment 1 Intrafragment Coordinates---
	 - Coordinate -           - BOHR/RAD -       - ANG/DEG -
	 R(1,4)           =         2.021436	       1.069698
	 R(2,4)           =         2.023298	       1.070683
	 R(3,4)           =         2.020723	       1.069320
	 R(4,7)           =         2.911397	       1.540645
	 R(5,7)           =         2.022623	       1.070326
	 R(6,7)           =         2.021555	       1.069761
	 R(7,10)          =         2.910419	       1.540128
	 R(8,10)          =         2.021990	       1.069991
	 R(9,10)          =         2.021330	       1.069642
	 R(10,14)         =         2.909375	       1.539575
	 R(11,14)         =         2.021545	       1.069756
	 R(12,14)         =         2.021220	       1.069584
	 R(13,14)         =         2.022230	       1.070118
	 B(1,4,2)         =         1.910870	     109.484805
	 B(1,4,3)         =         1.911121	     109.499161
	 B(1,4,7)         =         1.910399	     109.457783
	 B(2,4,3)         =         1.910042	     109.437340
	 B(2,4,7)         =         1.910564	     109.467262
	 B(3,4,7)         =         1.910803	     109.480971
	 B(4,7,5)         =         1.909937	     109.431343
	 B(4,7,6)         =         1.911630	     109.528316
	 B(4,7,10)        =         1.911154	     109.501062
	 B(5,7,6)         =         1.910605	     109.469614
	 B(5,7,10)        =         1.910047	     109.437654
	 B(6,7,10)        =         1.910425	     109.459295
	 B(7,10,8)        =         1.909829	     109.425144
	 B(7,10,9)        =         1.911020	     109.493379
	 B(7,10,14)       =         1.911440	     109.517473
	 B(8,10,9)        =         1.911107	     109.498384
	 B(8,10,14)       =         1.910819	     109.481864
	 B(9,10,14)       =         1.909584	     109.411105
	 B(10,14,11)      =         1.911205	     109.503967
	 B(10,14,12)      =         1.910508	     109.464048
	 B(10,14,13)      =         1.911166	     109.501738
	 B(11,14,12)      =         1.910600	     109.469327
	 B(11,14,13)      =         1.911061	     109.495732
	 B(12,14,13)      =         1.909258	     109.392450
	 D(1,4,7,5)       =         3.140997	     179.965873
	 D(1,4,7,6)       =        -1.047644	     -60.025575
	 D(1,4,7,10)      =         1.047427	      60.013132
	 D(2,4,7,5)       =        -1.047689	     -60.028143
	 D(2,4,7,6)       =         1.046856	      59.980409
	 D(2,4,7,10)      =        -3.141259	    -179.980883
	 D(3,4,7,5)       =         1.046044	      59.933911
	 D(3,4,7,6)       =         3.140588	     179.942463
	 D(3,4,7,10)      =        -1.047526	     -60.018830
	 D(4,7,10,8)      =        -0.872580	     -49.995150
	 D(4,7,10,9)      =         1.222140	      70.023458
	 D(4,7,10,14)     =        -2.967204	    -170.008269
	 D(5,7,10,8)      =        -2.966083	    -169.944026
	 D(5,7,10,9)      =        -0.871363	     -49.925418
	 D(5,7,10,14)     =         1.222478	      70.042855
	 D(6,7,10,8)      =         1.223228	      70.085776
	 D(6,7,10,9)      =        -2.965238	    -169.895617
	 D(6,7,10,14)     =        -0.871397	     -49.927344
	 D(7,10,14,11)    =         3.141361	     179.986752
	 D(7,10,14,12)    =         1.046733	      59.973408
	 D(7,10,14,13)    =        -1.046227	     -59.944412
	 D(8,10,14,11)    =         1.047343	      60.008338
	 D(8,10,14,12)    =        -1.047285	     -60.005006
	 D(8,10,14,13)    =        -3.140246	    -179.922826
	 D(9,10,14,11)    =        -1.047104	     -59.994632
	 D(9,10,14,12)    =         3.141453	     179.992024
	 D(9,10,14,13)    =         1.048493	      60.074204

	Current energy   :      -157.8381893151

	Generating empirical Hessian (Schlegel '84) for each fragment.
	Adding user-defined constraint: Fragment 1; Coordinate 49:
		Value =    -2.967204; Fixed value    =    -2.967060
		Force =     0.000072; Force constant =     0.500000
	Removing off-diagonal coupling between coordinate 49 and others.
	Taking RFO optimization step.
	Going to follow RFO solution 1.
	Using RFO vector 1.

	Determining step-restricting scale parameter for RS-RFO.
	Maximum step size allowed    0.10000

	 Iter      |step|        alpha        rfo_root  
	------------------------------------------------
	    0     0.22073       1.00000           1
	    1     0.16702       6.41774           1
	    2     0.12916      19.13009           1
	    3     0.10831      35.15843           1
	    4     0.10098      43.87959           1
	    5     0.10002      45.19024           1
	    6     0.10000      45.21261           1
	------------------------------------------------
	Norm of target step-size    0.10000
	Projected energy change by RFO approximation:        -0.0060711239

	Back-transformation to cartesian coordinates...
	Could not converge backtransformation.
	Using first guess instead.

	--- Internal Coordinate Step in ANG or DEG, aJ/ANG or AJ/DEG ---
	 ---------------------------------------------------------------------------
	   Coordinate                Previous        Force       Change         New 
	   ----------                --------       ------       ------       ------
	    1 R(1,4)          =      1.069698     0.135386     0.013805     1.083503
	    2 R(2,4)          =      1.070683     0.135801     0.013839     1.084522
	    3 R(3,4)          =      1.069320     0.139516     0.014200     1.083520
	    4 R(4,7)          =      1.540645    -0.016998    -0.001955     1.538690
	    5 R(5,7)          =      1.070326     0.143028     0.014544     1.084870
	    6 R(6,7)          =      1.069761     0.146142     0.014846     1.084607
	    7 R(7,10)         =      1.540128    -0.026562    -0.002984     1.537143
	    8 R(8,10)         =      1.069991     0.144892     0.014726     1.084717
	    9 R(9,10)         =      1.069642     0.147189     0.014947     1.084589
	   10 R(10,14)        =      1.539575    -0.012145    -0.001382     1.538193
	   11 R(11,14)        =      1.069756     0.141519     0.014395     1.084150
	   12 R(12,14)        =      1.069584     0.136477     0.013913     1.083496
	   13 R(13,14)        =      1.070118     0.134714     0.013733     1.083851
	   14 B(1,4,2)        =    109.484805    -0.000292    -0.513324   108.971481
	   15 B(1,4,3)        =    109.499161    -0.000216    -0.405703   109.093459
	   16 B(1,4,7)        =    109.457783     0.000171     0.294407   109.752189
	   17 B(2,4,3)        =    109.437340    -0.000295    -0.516158   108.921183
	   18 B(2,4,7)        =    109.467262     0.000448     0.809232   110.276494
	   19 B(3,4,7)        =    109.480971     0.000184     0.319317   109.800288
	   20 B(4,7,5)        =    109.431343    -0.000160    -0.193966   109.237376
	   21 B(4,7,6)        =    109.528316    -0.000163    -0.223912   109.304405
	   22 B(4,7,10)       =    109.501062     0.000760     1.247964   110.749027
	   23 B(5,7,6)        =    109.469614    -0.000003    -0.169148   109.300465
	   24 B(5,7,10)       =    109.437654    -0.000221    -0.342666   109.094988
	   25 B(6,7,10)       =    109.459295    -0.000212    -0.325327   109.133968
	   26 B(7,10,8)       =    109.425144    -0.000208    -0.317998   109.107146
	   27 B(7,10,9)       =    109.493379    -0.000228    -0.357482   109.135896
	   28 B(7,10,14)      =    109.517473     0.000756     1.242055   110.759528
	   29 B(8,10,9)       =    109.498384    -0.000006    -0.175832   109.322552
	   30 B(8,10,14)      =    109.481864    -0.000160    -0.216021   109.265843
	   31 B(9,10,14)      =    109.411105    -0.000154    -0.181410   109.229695
	   32 B(10,14,11)     =    109.503967     0.000447     0.804583   110.308550
	   33 B(10,14,12)     =    109.464048     0.000169     0.293086   109.757135
	   34 B(10,14,13)     =    109.501738     0.000183     0.316743   109.818481
	   35 B(11,14,12)     =    109.469327    -0.000290    -0.509767   108.959560
	   36 B(11,14,13)     =    109.495732    -0.000301    -0.527991   108.967741
	   37 B(12,14,13)     =    109.392450    -0.000208    -0.390266   109.002184
	   38 D(1,4,7,5)      =    179.965873     0.000019     0.187604   180.153476
	   39 D(1,4,7,6)      =    -60.025575    -0.000027    -0.272357   -60.297932
	   40 D(1,4,7,10)     =     60.013132    -0.000003    -0.039695    59.973437
	   41 D(2,4,7,5)      =    -60.028143     0.000024     0.241221   -59.786922
	   42 D(2,4,7,6)      =     59.980409    -0.000023    -0.218740    59.761670
	   43 D(2,4,7,10)     =   -179.980883     0.000002     0.013922  -179.966961
	   44 D(3,4,7,5)      =     59.933911     0.000030     0.307040    60.240951
	   45 D(3,4,7,6)      =    179.942463    -0.000017    -0.152921   179.789542
	   46 D(3,4,7,10)     =    -60.018830     0.000008     0.079741   -59.939088
	   47 D(4,7,10,8)     =    -49.995150     0.000024     0.242177   -49.752973
	   48 D(4,7,10,9)     =     70.023458    -0.000039    -0.379236    69.644222
	   49 D(4,7,10,14)    =   -170.008269    -0.000008    -0.059253  -170.067522
	   50 D(5,7,10,8)     =   -169.944026    -0.000006    -0.073943  -170.017968
	   51 D(5,7,10,9)     =    -49.925418    -0.000069    -0.695356   -50.620774
	   52 D(5,7,10,14)    =     70.042855    -0.000038    -0.375373    69.667482
	   53 D(6,7,10,8)     =     70.085776     0.000056     0.534210    70.619986
	   54 D(6,7,10,9)     =   -169.895617    -0.000007    -0.087203  -169.982820
	   55 D(6,7,10,14)    =    -49.927344     0.000024     0.232780   -49.694564
	   56 D(7,10,14,11)   =    179.986752     0.000003     0.027336   180.014088
	   57 D(7,10,14,12)   =     59.973408    -0.000002    -0.027469    59.945940
	   58 D(7,10,14,13)   =    -59.944412     0.000007     0.075813   -59.868599
	   59 D(8,10,14,11)   =     60.008338    -0.000022    -0.214174    59.794164
	   60 D(8,10,14,12)   =    -60.005006    -0.000027    -0.268979   -60.273984
	   61 D(8,10,14,13)   =   -179.922826    -0.000018    -0.165697  -180.088523
	   62 D(9,10,14,11)   =    -59.994632     0.000024     0.241044   -59.753589
	   63 D(9,10,14,12)   =    179.992024     0.000019     0.186239   180.178263
	   64 D(9,10,14,13)   =     60.074204     0.000028     0.289520    60.363724
	 ---------------------------------------------------------------------------
	 Forces used to impose fixed constraints are not included.
	  Forces zeroed: 49 

  ==> Convergence Check <==

  Measures of convergence in internal coordinates in au.
  Criteria marked as inactive (o), active & met (*), and active & unmet ( ).
  --------------------------------------------------------------------------------------------- ~
   Step     Total Energy     Delta E     MAX Force     RMS Force      MAX Disp      RMS Disp    ~
  --------------------------------------------------------------------------------------------- ~
    Convergence Criteria    1.00e-06 *    3.00e-04 *             o    1.20e-03 *             o  ~
  --------------------------------------------------------------------------------------------- ~
      1    -157.83818932   -1.58e+02      1.79e-02      7.29e-03 o    2.82e-02      1.25e-02 o  ~
  ---------------------------------------------------------------------------------------------

	Writing optimization data to binary file.
	Structure for next step:
	Cartesian Geometry (in Angstrom)
	    H    -2.3152176258   0.0732343495   0.2567618162
	    H    -2.1683929603   1.7159692712  -0.3709831184
	    H    -1.8705400625   0.3375611900  -1.4309700034
	    C    -1.7607544537   0.7121787596  -0.4202157392
	    H     0.2730769508   1.3646216071  -0.7071902514
	    H    -0.1724674421   1.1003391445   0.9847855848
	    C    -0.2733921989   0.7207497544  -0.0262027958
	    H    -0.3337990361  -1.3776747731   0.4470436489
	    H     0.3779363771  -1.0080386054  -1.1303916683
	    C     0.3158655058  -0.6973861216  -0.0930992036
	    H     2.1295910923  -1.7368616911   0.4803991849
	    H     1.6683727693  -0.4279001361   1.5696866182
	    H     2.3784435382  -0.0579704190  -0.0026981588
	    C     1.7209951600  -0.7339635229   0.5316500649
			--------------------------
			 OPTKING Finished Execution 
			--------------------------

    Structure for next step:
    Molecular point group: c1
    Full point group: C1

    Geometry (in Angstrom), charge = 0, multiplicity = 1:

    H           -2.315205806553     0.073198268239     0.256713842217
    H           -2.168381141063     1.715933189970    -0.371031092358
    H           -1.870528243326     0.337525108742    -1.431017977386
    C           -1.760742634478     0.712142678329    -0.420263713173
    H            0.273088770029     1.364585525828    -0.707238225341
    H           -0.172455622933     1.100303063192     0.984737610885
    C           -0.273380379700     0.720713673147    -0.026250769759
    H           -0.333787216877    -1.377710854383     0.446995674963
    H            0.377948196266    -1.008074686660    -1.130439642280
    C            0.315877325024    -0.697422202902    -0.093147177527
    H            2.129602911483    -1.736897772364     0.480351210986
    H            1.668384588464    -0.427936217387     1.569638644291
    H            2.378455357424    -0.058006500258    -0.002746132706
    C            1.721006979163    -0.733999604117     0.531602090962

gradient() will perform analytic gradient computation.
    SCF Algorithm Type (re)set to DF.

*** tstart() called on lski1497
*** at Mon Feb 20 17:21:05 2017


         ---------------------------------------------------------
                                   SCF
            by Justin Turney, Rob Parrish, and Andy Simmonett
                              RHF Reference
                        1 Threads,   1000 MiB Core
         ---------------------------------------------------------

  ==> Geometry <==

    Molecular point group: c1
    Full point group: C1

    Geometry (in Angstrom), charge = 0, multiplicity = 1:

       Center              X                  Y                   Z               Mass       
    ------------   -----------------  -----------------  -----------------  -----------------
           H         -2.315205806553     0.073198268239     0.256713842217     1.007825032070
           H         -2.168381141063     1.715933189970    -0.371031092358     1.007825032070
           H         -1.870528243326     0.337525108742    -1.431017977386     1.007825032070
           C         -1.760742634478     0.712142678329    -0.420263713173    12.000000000000
           H          0.273088770029     1.364585525828    -0.707238225341     1.007825032070
           H         -0.172455622933     1.100303063192     0.984737610885     1.007825032070
           C         -0.273380379700     0.720713673147    -0.026250769759    12.000000000000
           H         -0.333787216877    -1.377710854383     0.446995674963     1.007825032070
           H          0.377948196266    -1.008074686660    -1.130439642280     1.007825032070
           C          0.315877325024    -0.697422202902    -0.093147177527    12.000000000000
           H          2.129602911483    -1.736897772364     0.480351210986     1.007825032070
           H          1.668384588464    -0.427936217387     1.569638644291     1.007825032070
           H          2.378455357424    -0.058006500258    -0.002746132706     1.007825032070
           C          1.721006979163    -0.733999604117     0.531602090962    12.000000000000

  Running in c1 symmetry.

  Rotational constants: A =      0.76352  B =      0.12309  C =      0.11549 [cm^-1]
  Rotational constants: A =  22889.89571  B =   3690.26880  C =   3462.44947 [MHz]
  Nuclear repulsion =  131.081956290135281

  Charge       = 0
  Multiplicity = 1
  Electrons    = 34
  Nalpha       = 17
  Nbeta        = 17

  ==> Algorithm <==

  SCF Algorithm Type is DF.
  DIIS enabled.
  MOM disabled.
  Fractional occupation disabled.
  Guess Type is READ.
  Energy threshold   = 1.00e-10
  Density threshold  = 1.00e-10
  Integral threshold = 0.00e+00

  ==> Primary Basis <==

  Basis Set: 6-31G(D)
    Number of shells: 44
    Number of basis function: 80
    Number of Cartesian functions: 80
    Spherical Harmonics?: false
    Max angular momentum: 2

  ==> Pre-Iterations <==

   -------------------------------------------------------
    Irrep   Nso     Nmo     Nalpha   Nbeta   Ndocc  Nsocc
   -------------------------------------------------------
     A         80      80       0       0       0       0
   -------------------------------------------------------
    Total      80      80      17      17      17       0
   -------------------------------------------------------

  ==> Integral Setup <==

  ==> DFJK: Density-Fitted J/K Matrices <==

    J tasked:                  Yes
    K tasked:                  Yes
    wK tasked:                  No
    OpenMP threads:              1
    Integrals threads:           1
    Memory (MB):               715
    Algorithm:                Core
    Integral Cache:           NONE
    Schwarz Cutoff:          1E-12
    Fitting Condition:       1E-12

   => Auxiliary Basis Set <=

  Basis Set: 
    Number of shells: 186
    Number of basis function: 574
    Number of Cartesian functions: 574
    Spherical Harmonics?: false
    Max angular momentum: 3

  Minimum eigenvalue in the overlap matrix is 4.5724301894E-03.
  Using Symmetric Orthogonalization.
  SCF Guess was Projection but file not found.
  Switching over to SAD guess.

  SCF Guess: Superposition of Atomic Densities via on-the-fly atomic UHF.

  ==> Iterations <==

                           Total Energy        Delta E     RMS |[F,P]|

   @DF-RHF iter   0:  -158.88335011057319   -1.58883e+02   4.66173e-02 
   @DF-RHF iter   1:  -157.20718212486258    1.67617e+00   3.94624e-03 
   @DF-RHF iter   2:  -157.28811981621823   -8.09377e-02   1.10616e-03 DIIS
   @DF-RHF iter   3:  -157.29611717383273   -7.99736e-03   2.67188e-04 DIIS
   @DF-RHF iter   4:  -157.29652103059220   -4.03857e-04   7.67582e-05 DIIS
   @DF-RHF iter   5:  -157.29655881134317   -3.77808e-05   1.28726e-05 DIIS
   @DF-RHF iter   6:  -157.29656009585318   -1.28451e-06   2.08070e-06 DIIS
   @DF-RHF iter   7:  -157.29656011888915   -2.30360e-08   7.02789e-07 DIIS
   @DF-RHF iter   8:  -157.29656012109848   -2.20933e-09   1.04323e-07 DIIS
   @DF-RHF iter   9:  -157.29656012118613   -8.76526e-11   2.21529e-08 DIIS
   @DF-RHF iter  10:  -157.29656012119040   -4.26326e-12   3.89149e-09 DIIS
   @DF-RHF iter  11:  -157.29656012119062   -2.27374e-13   7.79742e-10 DIIS
   @DF-RHF iter  12:  -157.29656012119040    2.27374e-13   2.41767e-10 DIIS
   @DF-RHF iter  13:  -157.29656012119068   -2.84217e-13   6.53236e-11 DIIS

  ==> Post-Iterations <==

    Orbital Energies (a.u.)
    -----------------------

    Doubly Occupied:                                                      

       1A    -11.212814     2A    -11.212232     3A    -11.206149  
       4A    -11.206089     5A     -1.068933     6A     -0.978692  
       7A     -0.859118     8A     -0.788720     9A     -0.643781  
      10A     -0.584044    11A     -0.575317    12A     -0.567212  
      13A     -0.512511    14A     -0.500376    15A     -0.469986  
      16A     -0.465172    17A     -0.447343  

    Virtual:                                                              

      18A      0.231638    19A      0.262815    20A      0.284910  
      21A      0.296206    22A      0.322243    23A      0.337474  
      24A      0.339005    25A      0.342492    26A      0.354719  
      27A      0.358222    28A      0.418127    29A      0.422144  
      30A      0.435791    31A      0.700361    32A      0.706725  
      33A      0.751254    34A      0.753209    35A      0.763691  
      36A      0.847858    37A      0.861998    38A      0.928903  
      39A      0.954534    40A      1.023464    41A      1.066179  
      42A      1.103792    43A      1.142998    44A      1.173963  
      45A      1.192767    46A      1.198921    47A      1.207245  
      48A      1.213050    49A      1.235977    50A      1.237335  
      51A      1.245487    52A      1.278604    53A      1.293858  
      54A      1.613791    55A      1.683358    56A      1.718930  
      57A      1.722409    58A      1.923388    59A      1.932050  
      60A      2.153797    61A      2.203030    62A      2.207856  
      63A      2.286291    64A      2.300793    65A      2.335360  
      66A      2.397285    67A      2.518508    68A      2.610381  
      69A      2.614929    70A      2.645272    71A      2.733118  
      72A      2.735027    73A      2.756593    74A      2.887011  
      75A      3.010868    76A      3.109938    77A      4.568543  
      78A      4.676648    79A      4.794628    80A      4.946046  

    Final Occupation by Irrep:
              A 
    DOCC [    17 ]

  Energy converged.

  @DF-RHF Final Energy:  -157.29656012119068

   => Energetics <=

    Nuclear Repulsion Energy =            131.0819562901352811
    One-Electron Energy =                -470.1600525459981554
    Two-Electron Energy =                 181.7815361346723080
    DFT Exchange-Correlation Energy =       0.0000000000000000
    Empirical Dispersion Energy =           0.0000000000000000
    PCM Polarization Energy =               0.0000000000000000
    EFP Energy =                            0.0000000000000000
    Total Energy =                       -157.2965601211905664


  Saving occupied orbitals to File 180.

*** tstop() called on lski1497 at Mon Feb 20 17:21:15 2017
Module time:
	user time   =       4.77 seconds =       0.08 minutes
	system time =       0.15 seconds =       0.00 minutes
	total time  =         10 seconds =       0.17 minutes
Total time:
	user time   =      26.95 seconds =       0.45 minutes
	system time =       0.82 seconds =       0.01 minutes
	total time  =         39 seconds =       0.65 minutes


Properties will be evaluated at   0.000000,   0.000000,   0.000000 Bohr

Properties computed using the SCF density matrix

  Nuclear Dipole Moment: (a.u.)
     X:    -0.0308      Y:    -0.0160      Z:     0.0900

  Electronic Dipole Moment: (a.u.)
     X:     0.0332      Y:     0.0172      Z:    -0.0966

  Dipole Moment: (a.u.)
     X:     0.0023      Y:     0.0012      Z:    -0.0067     Total:     0.0072

  Dipole Moment: (Debye)
     X:     0.0060      Y:     0.0030      Z:    -0.0170     Total:     0.0182


  //>>>>>>>>>>>>>>>>>>>>>>>>>>>>>>>>>>>//
  //               DFMP2               //
  //<<<<<<<<<<<<<<<<<<<<<<<<<<<<<<<<<<<//


*** tstart() called on lski1497
*** at Mon Feb 20 17:21:15 2017


*** tstop() called on lski1497 at Mon Feb 20 17:21:15 2017
Module time:
	user time   =       0.50 seconds =       0.01 minutes
	system time =       0.01 seconds =       0.00 minutes
	total time  =          0 seconds =       0.00 minutes
Total time:
	user time   =      27.46 seconds =       0.46 minutes
	system time =       0.83 seconds =       0.01 minutes
	total time  =         39 seconds =       0.65 minutes
	 --------------------------------------------------------
	                          DF-MP2                         
	      2nd-Order Density-Fitted Moller-Plesset Theory     
	              RMP2 Wavefunction,   1 Threads             
	                                                         
	        Rob Parrish, Justin Turney, Andy Simmonett,      
	           Ed Hohenstein, and C. David Sherrill          
	 --------------------------------------------------------

   => Auxiliary Basis Set <=

  Basis Set: 
    Number of shells: 132
    Number of basis function: 364
    Number of Cartesian functions: 414
    Spherical Harmonics?: true
    Max angular momentum: 3

	 --------------------------------------------------------
	                 NBF =    80, NAUX =   364
	 --------------------------------------------------------
	   CLASS    FOCC     OCC    AOCC    AVIR     VIR    FVIR
	   PAIRS       0      17      17      63      63       0
	 --------------------------------------------------------

DGAS Warning! /src/lib/libfock/apps.cc:80 is not currently checking restricted

         ------------------------------------------------------------
                                     CPHF                           
                                  Rob Parrish                       
         ------------------------------------------------------------

  ==> Geometry <==

    Molecular point group: c1
    Full point group: C1

    Geometry (in Angstrom), charge = 0, multiplicity = 1:

       Center              X                  Y                   Z               Mass       
    ------------   -----------------  -----------------  -----------------  -----------------
           H         -2.315205806553     0.073198268239     0.256713842217     1.007825032070
           H         -2.168381141063     1.715933189970    -0.371031092358     1.007825032070
           H         -1.870528243326     0.337525108742    -1.431017977386     1.007825032070
           C         -1.760742634478     0.712142678329    -0.420263713173    12.000000000000
           H          0.273088770029     1.364585525828    -0.707238225341     1.007825032070
           H         -0.172455622933     1.100303063192     0.984737610885     1.007825032070
           C         -0.273380379700     0.720713673147    -0.026250769759    12.000000000000
           H         -0.333787216877    -1.377710854383     0.446995674963     1.007825032070
           H          0.377948196266    -1.008074686660    -1.130439642280     1.007825032070
           C          0.315877325024    -0.697422202902    -0.093147177527    12.000000000000
           H          2.129602911483    -1.736897772364     0.480351210986     1.007825032070
           H          1.668384588464    -0.427936217387     1.569638644291     1.007825032070
           H          2.378455357424    -0.058006500258    -0.002746132706     1.007825032070
           C          1.721006979163    -0.733999604117     0.531602090962    12.000000000000

  Nuclear repulsion =  131.081956290135281
  Reference energy  = -157.296560121190680

  ==> Basis Set <==

  Basis Set: 6-31G(D)
    Number of shells: 44
    Number of basis function: 80
    Number of Cartesian functions: 80
    Spherical Harmonics?: false
    Max angular momentum: 2

  ==> CGRSolver (by Rob Parrish) <==

   Number of roots    =         1
   Preconditioning    =    JACOBI
   Convergence cutoff =     1E-06
   Maximum iterations =       100

  ==> CPHFRHamiltonian (by Rob Parrish) <== 

  ==> DFJK: Density-Fitted J/K Matrices <==

    J tasked:                  Yes
    K tasked:                  Yes
    wK tasked:                  No
    OpenMP threads:              1
    Integrals threads:           1
    Memory (MB):               715
    Algorithm:                Core
    Integral Cache:           NONE
    Schwarz Cutoff:          1E-12
    Fitting Condition:       1E-12

   => Auxiliary Basis Set <=

  Basis Set: 
    Number of shells: 186
    Number of basis function: 574
    Number of Cartesian functions: 574
    Spherical Harmonics?: false
    Max angular momentum: 3

  ==> CPHF Iterations <==

  => Iterations <=

             Iter  Converged  Remaining    Residual
  CGR           1          0          1   7.325E-02
  CGR           2          0          1   8.896E-03
  CGR           3          0          1   2.833E-03
  CGR           4          0          1   3.569E-04
  CGR           5          0          1   5.685E-05
  CGR           6          0          1   1.051E-05
  CGR           7          0          1   2.061E-06
  CGR           8          1          0   4.299E-07

    CGRSolver converged.

  ==> DFCorrGrad: Density-Fitted Correlated Gradients <==

    OpenMP threads:              1
    Integrals threads:           1
    Memory (MB):               715
    Schwarz Cutoff:          0E+00
    Fitting Condition:       1E-12

   => Auxiliary Basis Set <=

  Basis Set: 
    Number of shells: 186
    Number of basis function: 510
    Number of Cartesian functions: 574
    Spherical Harmonics?: true
    Max angular momentum: 3

	-----------------------------------------------------------
	 ==================> DF-MP2 Energies <==================== 
	-----------------------------------------------------------
	 Reference Energy          =    -157.2965601211906801 [Eh]
	 Singles Energy            =      -0.0000000000000000 [Eh]
	 Same-Spin Energy          =      -0.1243172551634765 [Eh]
	 Opposite-Spin Energy      =      -0.4214393033658491 [Eh]
	 Correlation Energy        =      -0.5457565585293256 [Eh]
	 Total Energy              =    -157.8423166797199997 [Eh]
	-----------------------------------------------------------
	 ================> DF-SCS-MP2 Energies <================== 
	-----------------------------------------------------------
	 SCS Same-Spin Scale       =       0.3333333333333333 [-]
	 SCS Opposite-Spin Scale   =       1.2000000000000000 [-]
	 SCS Same-Spin Energy      =      -0.0414390850544922 [Eh]
	 SCS Opposite-Spin Energy  =      -0.5057271640390189 [Eh]
	 SCS Correlation Energy    =      -0.5471662490935110 [Eh]
	 SCS Total Energy          =    -157.8437263702842017 [Eh]
	-----------------------------------------------------------


  -Total Gradient:
     Atom            X                  Y                   Z
    ------   -----------------  -----------------  -----------------
       1        0.005165884534     0.003486432715    -0.002921103095
       2        0.004896705763    -0.004718067085     0.000658725250
       3        0.002961099245     0.002348527066     0.005991040471
       4       -0.016325109202    -0.004524128029    -0.004299496063
       5       -0.005211635937    -0.006152100536     0.001119288268
       6       -0.002404208792    -0.004646522221    -0.005735418713
       7        0.014917320344     0.019141354966     0.007636824875
       8        0.004814357201     0.005974333703    -0.001014553688
       9        0.002735495065     0.004776020957     0.006220202493
      10       -0.013839792179    -0.018615116482    -0.010284863848
      11       -0.004913215180     0.004986338050    -0.000859975645
      12       -0.001801079419    -0.001624029024    -0.006463528738
      13       -0.005579255212    -0.003618515035     0.001717826398
      14        0.014583433767     0.003185470954     0.008235032035


			-----------------------------------------
			 OPTKING 2.0: for geometry optimizations 
			  - R.A. King,  Bethel University        
			-----------------------------------------

	Previous internal coordinate definitions found.
	---Fragment 1 Geometry and Gradient---
	 H          -4.3751049157        0.1383246804        0.4851188563
	 H          -4.0976465083        3.2426437914       -0.7011471513
	 H          -3.5347861037        0.6378300185       -2.7042320685
	 C          -3.3273213697        1.3457546296       -0.7941833215
	 H           0.5160629853        2.5786929287       -1.3364865566
	 H          -0.3258938974        2.0792714526        1.8608843973
	 C          -0.5166140477        1.3619514625       -0.0496067656
	 H          -0.6307664266       -2.6034962051        0.8446994083
	 H           0.7142185834       -1.9049850793       -2.1362213337
	 C           0.5969216359       -1.3179369625       -0.1760226556
	 H           4.0243662745       -3.2822611106        0.9077322364
	 H           3.1527899565       -0.8086822532        2.9661871653
	 H           4.4946292448       -0.1096163994       -0.0051894387
	 C           3.2522318634       -1.3870582334        1.0045823636
	             0.0051658845        0.0034864327       -0.0029211031
	             0.0048967058       -0.0047180671        0.0006587253
	             0.0029610992        0.0023485271        0.0059910405
	            -0.0163251092       -0.0045241280       -0.0042994961
	            -0.0052116359       -0.0061521005        0.0011192883
	            -0.0024042088       -0.0046465222       -0.0057354187
	             0.0149173203        0.0191413550        0.0076368249
	             0.0048143572        0.0059743337       -0.0010145537
	             0.0027354951        0.0047760210        0.0062202025
	            -0.0138397922       -0.0186151165       -0.0102848638
	            -0.0049132152        0.0049863380       -0.0008599756
	            -0.0018010794       -0.0016240290       -0.0064635287
	            -0.0055792552       -0.0036185150        0.0017178264
	             0.0145834338        0.0031854710        0.0082350320

	---Fragment 1 Intrafragment Coordinates---
	 - Coordinate -           - BOHR/RAD -       - ANG/DEG -
	 R(1,4)           =         2.047523	       1.083503
	 R(2,4)           =         2.049450	       1.084522
	 R(3,4)           =         2.047556	       1.083520
	 R(4,7)           =         2.907702	       1.538690
	 R(5,7)           =         2.050108	       1.084870
	 R(6,7)           =         2.049609	       1.084607
	 R(7,10)          =         2.904780	       1.537143
	 R(8,10)          =         2.049818	       1.084717
	 R(9,10)          =         2.049576	       1.084589
	 R(10,14)         =         2.906764	       1.538193
	 R(11,14)         =         2.048747	       1.084150
	 R(12,14)         =         2.047511	       1.083496
	 R(13,14)         =         2.048182	       1.083851
	 B(1,4,2)         =         1.901911	     108.971481
	 B(1,4,3)         =         1.904040	     109.093459
	 B(1,4,7)         =         1.915537	     109.752189
	 B(2,4,3)         =         1.901033	     108.921183
	 B(2,4,7)         =         1.924688	     110.276494
	 B(3,4,7)         =         1.916377	     109.800288
	 B(4,7,5)         =         1.906552	     109.237376
	 B(4,7,6)         =         1.907722	     109.304405
	 B(4,7,10)        =         1.932935	     110.749027
	 B(5,7,6)         =         1.907653	     109.300465
	 B(5,7,10)        =         1.904067	     109.094988
	 B(6,7,10)        =         1.904747	     109.133968
	 B(7,10,8)        =         1.904279	     109.107146
	 B(7,10,9)        =         1.904781	     109.135896
	 B(7,10,14)       =         1.933118	     110.759528
	 B(8,10,9)        =         1.908038	     109.322552
	 B(8,10,14)       =         1.907049	     109.265843
	 B(9,10,14)       =         1.906418	     109.229695
	 B(10,14,11)      =         1.925247	     110.308550
	 B(10,14,12)      =         1.915623	     109.757135
	 B(10,14,13)      =         1.916694	     109.818481
	 B(11,14,12)      =         1.901703	     108.959560
	 B(11,14,13)      =         1.901846	     108.967741
	 B(12,14,13)      =         1.902447	     109.002184
	 D(1,4,7,5)       =        -3.138914	    -179.846524
	 D(1,4,7,6)       =        -1.052397	     -60.297932
	 D(1,4,7,10)      =         1.046734	      59.973437
	 D(2,4,7,5)       =        -1.043479	     -59.786922
	 D(2,4,7,6)       =         1.043038	      59.761670
	 D(2,4,7,10)      =        -3.141016	    -179.966961
	 D(3,4,7,5)       =         1.051403	      60.240951
	 D(3,4,7,6)       =         3.137919	     179.789542
	 D(3,4,7,10)      =        -1.046134	     -59.939088
	 D(4,7,10,8)      =        -0.868353	     -49.752973
	 D(4,7,10,9)      =         1.215521	      69.644222
	 D(4,7,10,14)     =        -2.968238	    -170.067522
	 D(5,7,10,8)      =        -2.967373	    -170.017968
	 D(5,7,10,9)      =        -0.883499	     -50.620774
	 D(5,7,10,14)     =         1.215927	      69.667482
	 D(6,7,10,8)      =         1.232551	      70.619986
	 D(6,7,10,9)      =        -2.966760	    -169.982820
	 D(6,7,10,14)     =        -0.867334	     -49.694564
	 D(7,10,14,11)    =        -3.141347	    -179.985912
	 D(7,10,14,12)    =         1.046254	      59.945940
	 D(7,10,14,13)    =        -1.044904	     -59.868599
	 D(8,10,14,11)    =         1.043605	      59.794164
	 D(8,10,14,12)    =        -1.051979	     -60.273984
	 D(8,10,14,13)    =         3.140048	     179.911477
	 D(9,10,14,11)    =        -1.042897	     -59.753589
	 D(9,10,14,12)    =        -3.138481	    -179.821737
	 D(9,10,14,13)    =         1.053546	      60.363724

	Current energy   :      -157.8423166797

	Energy change for the previous step:
		Projected    :        -0.0060711239
		Actual       :        -0.0041273646

	Performing BFGS update.
	Previous computed or guess Hessian on step 1.
	Steps to be used in Hessian update: 1
	Adding user-defined constraint: Fragment 1; Coordinate 49:
		Value =    -2.968238; Fixed value    =    -2.967060
		Force =     0.000619; Force constant =     0.525000
	Removing off-diagonal coupling between coordinate 49 and others.
	Taking RFO optimization step.
	Going to follow RFO solution 1.
	Using RFO vector 1.

	Determining step-restricting scale parameter for RS-RFO.
	Maximum step size allowed    0.10000

	 Iter      |step|        alpha        rfo_root  
	------------------------------------------------
	    0     0.18162       1.00000           1
	    1     0.14399       6.01740           1
	    2     0.11588      15.89204           1
	    3     0.10321      24.28570           1
	    4     0.10018      26.92972           1
	    5     0.10000      27.09380           1
	------------------------------------------------
	Norm of target step-size    0.10000
	Projected energy change by RFO approximation:        -0.0023303729

	Back-transformation to cartesian coordinates...
	Successfully converged to displaced geometry.

	--- Internal Coordinate Step in ANG or DEG, aJ/ANG or AJ/DEG ---
	 ---------------------------------------------------------------------------
	   Coordinate                Previous        Force       Change         New 
	   ----------                --------       ------       ------       ------
	    1 R(1,4)          =      1.083503     0.053755     0.008269     1.091772
	    2 R(2,4)          =      1.084522     0.050894     0.007550     1.092072
	    3 R(3,4)          =      1.083520     0.055206     0.008461     1.091981
	    4 R(4,7)          =      1.538690    -0.027652    -0.007498     1.531191
	    5 R(5,7)          =      1.084870     0.057498     0.008883     1.093753
	    6 R(6,7)          =      1.084607     0.059286     0.009199     1.093806
	    7 R(7,10)         =      1.537143    -0.025761    -0.006354     1.530789
	    8 R(8,10)         =      1.084717     0.058787     0.009126     1.093843
	    9 R(9,10)         =      1.084589     0.058992     0.009088     1.093677
	   10 R(10,14)        =      1.538193    -0.025457    -0.007069     1.531124
	   11 R(11,14)        =      1.084150     0.052922     0.007829     1.091979
	   12 R(12,14)        =      1.083496     0.054076     0.008307     1.091803
	   13 R(13,14)        =      1.083851     0.053454     0.008216     1.092067
	   14 B(1,4,2)        =    108.971481    -0.000195    -0.705460   108.266021
	   15 B(1,4,3)        =    109.093459    -0.000181    -0.770055   108.323404
	   16 B(1,4,7)        =    109.752189     0.000149     0.608392   110.360582
	   17 B(2,4,3)        =    108.921183    -0.000199    -0.715085   108.206098
	   18 B(2,4,7)        =    110.276494     0.000254     0.860813   111.137307
	   19 B(3,4,7)        =    109.800288     0.000161     0.656891   110.457180
	   20 B(4,7,5)        =    109.237376    -0.000052     0.109630   109.347007
	   21 B(4,7,6)        =    109.304405    -0.000066    -0.067240   109.237165
	   22 B(4,7,10)       =    110.749027     0.000387     1.240422   111.989449
	   23 B(5,7,6)        =    109.300465    -0.000085    -1.025607   108.274858
	   24 B(5,7,10)       =    109.094988    -0.000097    -0.147231   108.947757
	   25 B(6,7,10)       =    109.133968    -0.000092    -0.163483   108.970485
	   26 B(7,10,8)       =    109.107146    -0.000088    -0.147716   108.959430
	   27 B(7,10,9)       =    109.135896    -0.000102    -0.171534   108.964362
	   28 B(7,10,14)      =    110.759528     0.000384     1.230710   111.990238
	   29 B(8,10,9)       =    109.322552    -0.000088    -1.036739   108.285813
	   30 B(8,10,14)      =    109.265843    -0.000063    -0.050778   109.215065
	   31 B(9,10,14)      =    109.229695    -0.000048     0.122568   109.352263
	   32 B(10,14,11)     =    110.308550     0.000252     0.845029   111.153579
	   33 B(10,14,12)     =    109.757135     0.000147     0.599691   110.356825
	   34 B(10,14,13)     =    109.818481     0.000159     0.647864   110.466345
	   35 B(11,14,12)     =    108.959560    -0.000193    -0.696931   108.262629
	   36 B(11,14,13)     =    108.967741    -0.000202    -0.733932   108.233809
	   37 B(12,14,13)     =    109.002184    -0.000173    -0.726129   108.276055
	   38 D(1,4,7,5)      =   -179.846524     0.000018     0.614980  -179.231544
	   39 D(1,4,7,6)      =    -60.297932    -0.000022    -0.605181   -60.903113
	   40 D(1,4,7,10)     =     59.973437    -0.000002    -0.063769    59.909668
	   41 D(2,4,7,5)      =    -59.786922     0.000021     0.681906   -59.105016
	   42 D(2,4,7,6)      =     59.761670    -0.000019    -0.538255    59.223415
	   43 D(2,4,7,10)     =   -179.966961     0.000001     0.003157  -179.963804
	   44 D(3,4,7,5)      =     60.240951     0.000025     0.769320    61.010270
	   45 D(3,4,7,6)      =    179.789542    -0.000015    -0.450841   179.338701
	   46 D(3,4,7,10)     =    -59.939088     0.000005     0.090571   -59.848517
	   47 D(4,7,10,8)     =    -49.752973     0.000020     0.523486   -49.229487
	   48 D(4,7,10,9)     =     69.644222    -0.000031    -0.914277    68.729945
	   49 D(4,7,10,14)    =   -170.067522    -0.000004    -0.094418  -170.161940
	   50 D(5,7,10,8)     =   -170.017968    -0.000007    -0.301249  -170.319217
	   51 D(5,7,10,9)     =    -50.620774    -0.000057    -1.739012   -52.359785
	   52 D(5,7,10,14)    =     69.667482    -0.000030    -0.919152    68.748330
	   53 D(6,7,10,8)     =     70.619986     0.000043     1.117703    71.737688
	   54 D(6,7,10,9)     =   -169.982820    -0.000007    -0.320060  -170.302880
	   55 D(6,7,10,14)    =    -49.694564     0.000019     0.499799   -49.194765
	   56 D(7,10,14,11)   =   -179.985912     0.000002     0.029557  -179.956355
	   57 D(7,10,14,12)   =     59.945940    -0.000001    -0.032707    59.913233
	   58 D(7,10,14,13)   =    -59.868599     0.000004     0.079123   -59.789476
	   59 D(8,10,14,11)   =     59.794164    -0.000019    -0.534926    59.259238
	   60 D(8,10,14,12)   =    -60.273984    -0.000022    -0.597190   -60.871175
	   61 D(8,10,14,13)   =    179.911477    -0.000016    -0.485360   179.426117
	   62 D(9,10,14,11)   =    -59.753589     0.000021     0.681026   -59.072563
	   63 D(9,10,14,12)   =   -179.821737     0.000018     0.618762  -179.202975
	   64 D(9,10,14,13)   =     60.363724     0.000023     0.730592    61.094316
	 ---------------------------------------------------------------------------
	 Forces used to impose fixed constraints are not included.
	  Forces zeroed: 49 

  ==> Convergence Check <==

  Measures of convergence in internal coordinates in au.
  Criteria marked as inactive (o), active & met (*), and active & unmet ( ).
  ---------------------------------------------------------------------------------------------
   Step     Total Energy     Delta E     MAX Force     RMS Force      MAX Disp      RMS Disp   
  ---------------------------------------------------------------------------------------------
    Convergence Criteria    1.00e-06 *    3.00e-04 *             o    1.20e-03 *             o
  ---------------------------------------------------------------------------------------------
      2    -157.84231668   -4.13e-03      7.20e-03      3.23e-03 o    3.04e-02      1.25e-02 o  ~
  ---------------------------------------------------------------------------------------------

	Writing optimization data to binary file.
	Structure for next step:
	Cartesian Geometry (in Angstrom)
	    H    -2.3357158549   0.0681633197   0.2516447794
	    H    -2.1867941818   1.7150046929  -0.3790067135
	    H    -1.8884985845   0.3316370944  -1.4408592676
	    C    -1.7649053330   0.7086999916  -0.4235242024
	    H     0.2682246468   1.3690094606  -0.7078912902
	    H    -0.1832285772   1.1041064131   0.9859263440
	    C    -0.2850760284   0.7125015099  -0.0302841398
	    H    -0.3251160735  -1.3837124963   0.4515230206
	    H     0.3825743014  -1.0110912190  -1.1307704030
	    C     0.3266489887  -0.6896041136  -0.0869084118
	    H     2.1499935708  -1.7351630593   0.4837895305
	    H     1.6874446442  -0.4249379098   1.5797064443
	    H     2.3978239553  -0.0504570268   0.0024992328
	    C     1.7265076089  -0.7298029880   0.5320594206
			--------------------------
			 OPTKING Finished Execution 
			--------------------------

    Structure for next step:
    Molecular point group: c1
    Full point group: C1

    Geometry (in Angstrom), charge = 0, multiplicity = 1:

    H           -2.335794200385     0.068095211679     0.251757915177
    H           -2.186872527257     1.714936584879    -0.378893577796
    H           -1.888576929963     0.331568986392    -1.440746131871
    C           -1.764983678482     0.708631883582    -0.423411066673
    H            0.268146301288     1.368941352572    -0.707778154427
    H           -0.183306922654     1.104038305118     0.986039479706
    C           -0.285154373879     0.712433401927    -0.030171004047
    H           -0.325194418943    -1.383780604291     0.451636156369
    H            0.382495955936    -1.011159326986    -1.130657267310
    C            0.326570643216    -0.689672221621    -0.086795276048
    H            2.149915225271    -1.735231167337     0.483902666207
    H            1.687366298742    -0.425006017812     1.579819580035
    H            2.397745609860    -0.050525134796     0.002612368495
    C            1.726429263382    -0.729871096026     0.532172556293

gradient() will perform analytic gradient computation.
    SCF Algorithm Type (re)set to DF.

*** tstart() called on lski1497
*** at Mon Feb 20 17:21:38 2017


         ---------------------------------------------------------
                                   SCF
            by Justin Turney, Rob Parrish, and Andy Simmonett
                              RHF Reference
                        1 Threads,   1000 MiB Core
         ---------------------------------------------------------

  ==> Geometry <==

    Molecular point group: c1
    Full point group: C1

    Geometry (in Angstrom), charge = 0, multiplicity = 1:

       Center              X                  Y                   Z               Mass       
    ------------   -----------------  -----------------  -----------------  -----------------
           H         -2.335794200385     0.068095211679     0.251757915177     1.007825032070
           H         -2.186872527257     1.714936584879    -0.378893577796     1.007825032070
           H         -1.888576929963     0.331568986392    -1.440746131871     1.007825032070
           C         -1.764983678482     0.708631883582    -0.423411066673    12.000000000000
           H          0.268146301288     1.368941352572    -0.707778154427     1.007825032070
           H         -0.183306922654     1.104038305118     0.986039479706     1.007825032070
           C         -0.285154373879     0.712433401927    -0.030171004047    12.000000000000
           H         -0.325194418943    -1.383780604291     0.451636156369     1.007825032070
           H          0.382495955936    -1.011159326986    -1.130657267310     1.007825032070
           C          0.326570643216    -0.689672221621    -0.086795276048    12.000000000000
           H          2.149915225271    -1.735231167337     0.483902666207     1.007825032070
           H          1.687366298742    -0.425006017812     1.579819580035     1.007825032070
           H          2.397745609860    -0.050525134796     0.002612368495     1.007825032070
           C          1.726429263382    -0.729871096026     0.532172556293    12.000000000000

  Running in c1 symmetry.

  Rotational constants: A =      0.77017  B =      0.12221  C =      0.11490 [cm^-1]
  Rotational constants: A =  23089.12204  B =   3663.70026  C =   3444.54885 [MHz]
  Nuclear repulsion =  130.806817338674648

  Charge       = 0
  Multiplicity = 1
  Electrons    = 34
  Nalpha       = 17
  Nbeta        = 17

  ==> Algorithm <==

  SCF Algorithm Type is DF.
  DIIS enabled.
  MOM disabled.
  Fractional occupation disabled.
  Guess Type is READ.
  Energy threshold   = 1.00e-10
  Density threshold  = 1.00e-10
  Integral threshold = 0.00e+00

  ==> Primary Basis <==

  Basis Set: 6-31G(D)
    Number of shells: 44
    Number of basis function: 80
    Number of Cartesian functions: 80
    Spherical Harmonics?: false
    Max angular momentum: 2

  ==> Pre-Iterations <==

   -------------------------------------------------------
    Irrep   Nso     Nmo     Nalpha   Nbeta   Ndocc  Nsocc
   -------------------------------------------------------
     A         80      80       0       0       0       0
   -------------------------------------------------------
    Total      80      80      17      17      17       0
   -------------------------------------------------------

  ==> Integral Setup <==

  ==> DFJK: Density-Fitted J/K Matrices <==

    J tasked:                  Yes
    K tasked:                  Yes
    wK tasked:                  No
    OpenMP threads:              1
    Integrals threads:           1
    Memory (MB):               715
    Algorithm:                Core
    Integral Cache:           NONE
    Schwarz Cutoff:          1E-12
    Fitting Condition:       1E-12

   => Auxiliary Basis Set <=

  Basis Set: 
    Number of shells: 186
    Number of basis function: 574
    Number of Cartesian functions: 574
    Spherical Harmonics?: false
    Max angular momentum: 3

  Minimum eigenvalue in the overlap matrix is 4.5797538942E-03.
  Using Symmetric Orthogonalization.
  SCF Guess was Projection but file not found.
  Switching over to SAD guess.

  SCF Guess: Superposition of Atomic Densities via on-the-fly atomic UHF.

  ==> Iterations <==

                           Total Energy        Delta E     RMS |[F,P]|

   @DF-RHF iter   0:  -158.85842553070819   -1.58858e+02   4.63798e-02 
   @DF-RHF iter   1:  -157.20747608342134    1.65095e+00   3.93839e-03 
   @DF-RHF iter   2:  -157.28873027595586   -8.12542e-02   1.11707e-03 DIIS
   @DF-RHF iter   3:  -157.29684108166663   -8.11081e-03   2.83947e-04 DIIS
   @DF-RHF iter   4:  -157.29728674299918   -4.45661e-04   7.79426e-05 DIIS
   @DF-RHF iter   5:  -157.29732737373320   -4.06307e-05   1.26764e-05 DIIS
   @DF-RHF iter   6:  -157.29732865894863   -1.28522e-06   1.65819e-06 DIIS
   @DF-RHF iter   7:  -157.29732867771628   -1.87677e-08   5.01943e-07 DIIS
   @DF-RHF iter   8:  -157.29732867881575   -1.09947e-09   1.12553e-07 DIIS
   @DF-RHF iter   9:  -157.29732867889908   -8.33325e-11   2.21479e-08 DIIS
   @DF-RHF iter  10:  -157.29732867890328   -4.20641e-12   3.80719e-09 DIIS
   @DF-RHF iter  11:  -157.29732867890323    5.68434e-14   6.93645e-10 DIIS
   @DF-RHF iter  12:  -157.29732867890340   -1.70530e-13   1.83055e-10 DIIS
   @DF-RHF iter  13:  -157.29732867890340    0.00000e+00   5.33371e-11 DIIS

  ==> Post-Iterations <==

    Orbital Energies (a.u.)
    -----------------------

    Doubly Occupied:                                                      

       1A    -11.215243     2A    -11.214651     3A    -11.209429  
       4A    -11.209419     5A     -1.069433     6A     -0.978647  
       7A     -0.858661     8A     -0.785827     9A     -0.640768  
      10A     -0.582724    11A     -0.574962    12A     -0.566401  
      13A     -0.512251    14A     -0.496938    15A     -0.465318  
      16A     -0.464561    17A     -0.452833  

    Virtual:                                                              

      18A      0.231282    19A      0.261505    20A      0.282423  
      21A      0.293566    22A      0.320830    23A      0.335532  
      24A      0.335629    25A      0.340748    26A      0.352145  
      27A      0.353332    28A      0.419604    29A      0.424573  
      30A      0.439939    31A      0.701137    32A      0.703140  
      33A      0.752026    34A      0.755993    35A      0.764569  
      36A      0.850386    37A      0.866631    38A      0.930961  
      39A      0.959961    40A      1.022294    41A      1.064049  
      42A      1.108423    43A      1.134247    44A      1.167443  
      45A      1.184398    46A      1.189153    47A      1.200262  
      48A      1.203277    49A      1.228593    50A      1.230470  
      51A      1.237832    52A      1.269087    53A      1.287867  
      54A      1.609791    55A      1.682144    56A      1.718837  
      57A      1.726246    58A      1.918552    59A      1.929610  
      60A      2.149544    61A      2.198395    62A      2.215626  
      63A      2.279250    64A      2.293663    65A      2.334704  
      66A      2.394179    67A      2.501503    68A      2.602566  
      69A      2.603954    70A      2.638592    71A      2.729072  
      72A      2.733711    73A      2.755771    74A      2.891927  
      75A      3.023675    76A      3.107786    77A      4.564726  
      78A      4.671934    79A      4.791723    80A      4.943656  

    Final Occupation by Irrep:
              A 
    DOCC [    17 ]

  Energy converged.

  @DF-RHF Final Energy:  -157.29732867890340

   => Energetics <=

    Nuclear Repulsion Energy =            130.8068173386746480
    One-Electron Energy =                -469.6121596922836261
    Two-Electron Energy =                 181.5080136747054667
    DFT Exchange-Correlation Energy =       0.0000000000000000
    Empirical Dispersion Energy =           0.0000000000000000
    PCM Polarization Energy =               0.0000000000000000
    EFP Energy =                            0.0000000000000000
    Total Energy =                       -157.2973286789035114


  Saving occupied orbitals to File 180.

*** tstop() called on lski1497 at Mon Feb 20 17:21:46 2017
Module time:
	user time   =       4.66 seconds =       0.08 minutes
	system time =       0.13 seconds =       0.00 minutes
	total time  =          8 seconds =       0.13 minutes
Total time:
	user time   =      49.20 seconds =       0.82 minutes
	system time =       1.41 seconds =       0.02 minutes
	total time  =         70 seconds =       1.17 minutes


Properties will be evaluated at   0.000000,   0.000000,   0.000000 Bohr

Properties computed using the SCF density matrix

  Nuclear Dipole Moment: (a.u.)
     X:    -0.0319      Y:    -0.0170      Z:     0.0916

  Electronic Dipole Moment: (a.u.)
     X:     0.0338      Y:     0.0181      Z:    -0.0970

  Dipole Moment: (a.u.)
     X:     0.0019      Y:     0.0011      Z:    -0.0054     Total:     0.0059

  Dipole Moment: (Debye)
     X:     0.0048      Y:     0.0027      Z:    -0.0139     Total:     0.0149


  //>>>>>>>>>>>>>>>>>>>>>>>>>>>>>>>>>>>//
  //               DFMP2               //
  //<<<<<<<<<<<<<<<<<<<<<<<<<<<<<<<<<<<//


*** tstart() called on lski1497
*** at Mon Feb 20 17:21:46 2017


*** tstop() called on lski1497 at Mon Feb 20 17:21:46 2017
Module time:
	user time   =       0.50 seconds =       0.01 minutes
	system time =       0.00 seconds =       0.00 minutes
	total time  =          0 seconds =       0.00 minutes
Total time:
	user time   =      49.72 seconds =       0.83 minutes
	system time =       1.41 seconds =       0.02 minutes
	total time  =         70 seconds =       1.17 minutes
	 --------------------------------------------------------
	                          DF-MP2                         
	      2nd-Order Density-Fitted Moller-Plesset Theory     
	              RMP2 Wavefunction,   1 Threads             
	                                                         
	        Rob Parrish, Justin Turney, Andy Simmonett,      
	           Ed Hohenstein, and C. David Sherrill          
	 --------------------------------------------------------

   => Auxiliary Basis Set <=

  Basis Set: 
    Number of shells: 132
    Number of basis function: 364
    Number of Cartesian functions: 414
    Spherical Harmonics?: true
    Max angular momentum: 3

	 --------------------------------------------------------
	                 NBF =    80, NAUX =   364
	 --------------------------------------------------------
	   CLASS    FOCC     OCC    AOCC    AVIR     VIR    FVIR
	   PAIRS       0      17      17      63      63       0
	 --------------------------------------------------------

DGAS Warning! /src/lib/libfock/apps.cc:80 is not currently checking restricted

         ------------------------------------------------------------
                                     CPHF                           
                                  Rob Parrish                       
         ------------------------------------------------------------

  ==> Geometry <==

    Molecular point group: c1
    Full point group: C1

    Geometry (in Angstrom), charge = 0, multiplicity = 1:

       Center              X                  Y                   Z               Mass       
    ------------   -----------------  -----------------  -----------------  -----------------
           H         -2.335794200385     0.068095211679     0.251757915177     1.007825032070
           H         -2.186872527257     1.714936584879    -0.378893577796     1.007825032070
           H         -1.888576929963     0.331568986392    -1.440746131871     1.007825032070
           C         -1.764983678482     0.708631883582    -0.423411066673    12.000000000000
           H          0.268146301288     1.368941352572    -0.707778154427     1.007825032070
           H         -0.183306922654     1.104038305118     0.986039479706     1.007825032070
           C         -0.285154373879     0.712433401927    -0.030171004047    12.000000000000
           H         -0.325194418943    -1.383780604291     0.451636156369     1.007825032070
           H          0.382495955936    -1.011159326986    -1.130657267310     1.007825032070
           C          0.326570643216    -0.689672221621    -0.086795276048    12.000000000000
           H          2.149915225271    -1.735231167337     0.483902666207     1.007825032070
           H          1.687366298742    -0.425006017812     1.579819580035     1.007825032070
           H          2.397745609860    -0.050525134796     0.002612368495     1.007825032070
           C          1.726429263382    -0.729871096026     0.532172556293    12.000000000000

  Nuclear repulsion =  130.806817338674648
  Reference energy  = -157.297328678903398

  ==> Basis Set <==

  Basis Set: 6-31G(D)
    Number of shells: 44
    Number of basis function: 80
    Number of Cartesian functions: 80
[...]
    Memory (MB):               715
    Algorithm:                Core
    Integral Cache:           NONE
    Schwarz Cutoff:          1E-12
    Fitting Condition:       1E-12

   => Auxiliary Basis Set <=

  Basis Set: 
    Number of shells: 186
    Number of basis function: 574
    Number of Cartesian functions: 574
    Spherical Harmonics?: false
    Max angular momentum: 3

  ==> CPHF Iterations <==

  => Iterations <=

             Iter  Converged  Remaining    Residual
  CGR           1          0          1   7.498E-02
  CGR           2          0          1   9.315E-03
  CGR           3          0          1   2.936E-03
  CGR           4          0          1   3.591E-04
  CGR           5          0          1   6.097E-05
  CGR           6          0          1   1.107E-05
  CGR           7          0          1   2.155E-06
  CGR           8          1          0   4.177E-07

    CGRSolver converged.

  ==> DFCorrGrad: Density-Fitted Correlated Gradients <==

    OpenMP threads:              1
    Integrals threads:           1
    Memory (MB):               715
    Schwarz Cutoff:          0E+00
    Fitting Condition:       1E-12

   => Auxiliary Basis Set <=

  Basis Set: 
    Number of shells: 186
    Number of basis function: 510
    Number of Cartesian functions: 574
    Spherical Harmonics?: true
    Max angular momentum: 3

	-----------------------------------------------------------
	 ==================> DF-MP2 Energies <==================== 
	-----------------------------------------------------------
	 Reference Energy          =    -157.2975524847786630 [Eh]
	 Singles Energy            =      -0.0000000000000000 [Eh]
	 Same-Spin Energy          =      -0.1244356547420005 [Eh]
	 Opposite-Spin Energy      =      -0.4222022243848270 [Eh]
	 Correlation Energy        =      -0.5466378791268275 [Eh]
	 Total Energy              =    -157.8441903639054829 [Eh]
	-----------------------------------------------------------
	 ================> DF-SCS-MP2 Energies <================== 
	-----------------------------------------------------------
	 SCS Same-Spin Scale       =       0.3333333333333333 [-]
	 SCS Opposite-Spin Scale   =       1.2000000000000000 [-]
	 SCS Same-Spin Energy      =      -0.0414785515806668 [Eh]
	 SCS Opposite-Spin Energy  =      -0.5066426692617924 [Eh]
	 SCS Correlation Energy    =      -0.5481212208424592 [Eh]
	 SCS Total Energy          =    -157.8456737056211239 [Eh]
	-----------------------------------------------------------


  -Total Gradient:
     Atom            X                  Y                   Z
    ------   -----------------  -----------------  -----------------
       1       -0.000010209171     0.000000770537    -0.000004992368
       2       -0.000014498155     0.000002159344    -0.000001191621
       3        0.000006424570     0.000000688225     0.000000962781
       4       -0.000373749528    -0.000218817518     0.001436137928
       5        0.000009374051    -0.000007112774    -0.000000557540
       6       -0.000004159014    -0.000003760256    -0.000013892958
       7        0.000283271373     0.000215718685    -0.001456243718
       8        0.000011169223     0.000006833920    -0.000006186332
       9       -0.000008076383     0.000008561742    -0.000003455923
      10        0.000688552054     0.000319019231    -0.001290216392
      11        0.000012493136    -0.000003619954     0.000007166806
      12        0.000010649288    -0.000000613701     0.000002142931
      13       -0.000005737597    -0.000000573337    -0.000003134174
      14       -0.000605503847    -0.000319254145     0.001333460581


			-----------------------------------------
			 OPTKING 2.0: for geometry optimizations 
			  - R.A. King,  Bethel University        
			-----------------------------------------

	Previous internal coordinate definitions found.
	---Fragment 1 Geometry and Gradient---
	 H          -4.4357438757        0.1536617075        0.4813062782
	 H          -4.1321529602        3.2481798995       -0.7444004411
	 H          -3.5936982700        0.6069345027       -2.7183176555
	 C          -3.3353592039        1.3423082432       -0.8029393608
	 H           0.5167289390        2.6121163130       -1.2975191696
	 H          -0.3559802942        2.0914103835        1.8589360313
	 C          -0.5510263176        1.3361686159       -0.0620468916
	 H          -0.6041388197       -2.6195999540        0.8538973422
	 H           0.6936416788       -1.9462701039       -2.1224015640
	 C           0.6284154683       -1.2935990357       -0.1566196619
	 H           4.0800658219       -3.2768320651        0.8916030399
	 H           3.2056904318       -0.8303753870        2.9941919118
	 H           4.5458158582       -0.0831065130        0.0280908074
	 C           3.2646696952       -1.3811924410        1.0026767277
	            -0.0000102092        0.0000007705       -0.0000049924
	            -0.0000144982        0.0000021593       -0.0000011916
	             0.0000064246        0.0000006882        0.0000009628
	            -0.0003737495       -0.0002188175        0.0014361379
	             0.0000093741       -0.0000071128       -0.0000005575
	            -0.0000041590       -0.0000037603       -0.0000138930
	             0.0002832714        0.0002157187       -0.0014562437
	             0.0000111692        0.0000068339       -0.0000061863
	            -0.0000080764        0.0000085617       -0.0000034559
	             0.0006885521        0.0003190192       -0.0012902164
	             0.0000124931       -0.0000036200        0.0000071668
	             0.0000106493       -0.0000006137        0.0000021429
	            -0.0000057376       -0.0000005733       -0.0000031342
	            -0.0006055038       -0.0003192541        0.0013334606

	---Fragment 1 Intrafragment Coordinates---
	 - Coordinate -           - BOHR/RAD -       - ANG/DEG -
	 R(1,4)           =         2.067127	       1.093876
	 R(2,4)           =         2.066556	       1.093574
	 R(3,4)           =         2.067894	       1.094283
	 R(4,7)           =         2.881227	       1.524680
	 R(5,7)           =         2.072326	       1.096628
	 R(6,7)           =         2.073309	       1.097148
	 R(7,10)          =         2.883696	       1.525986
	 R(8,10)          =         2.073310	       1.097148
	 R(9,10)          =         2.072325	       1.096627
	 R(10,14)         =         2.881228	       1.524680
	 R(11,14)         =         2.066557	       1.093575
	 R(12,14)         =         2.067126	       1.093876
	 R(13,14)         =         2.067893	       1.094282
	 B(1,4,2)         =         1.883327	     107.906672
	 B(1,4,3)         =         1.880168	     107.725673
	 B(1,4,7)         =         1.932044	     110.697985
	 B(2,4,3)         =         1.881820	     107.820346
	 B(2,4,7)         =         1.946880	     111.548012
	 B(3,4,7)         =         1.937081	     110.986546
	 B(4,7,5)         =         1.921226	     110.078159
	 B(4,7,6)         =         1.905392	     109.170917
	 B(4,7,10)        =         1.970080	     112.877298
	 B(5,7,6)         =         1.854195	     106.237574
	 B(5,7,10)        =         1.908373	     109.341739
	 B(6,7,10)        =         1.900858	     108.911169
	 B(7,10,8)        =         1.900866	     108.911597
	 B(7,10,9)        =         1.908367	     109.341385
	 B(7,10,14)       =         1.970078	     112.877172
	 B(8,10,9)        =         1.854195	     106.237539
	 B(8,10,14)       =         1.905394	     109.171007
	 B(9,10,14)       =         1.921226	     110.078168
	 B(10,14,11)      =         1.946880	     111.547994
	 B(10,14,12)      =         1.932039	     110.697701
	 B(10,14,13)      =         1.937083	     110.986687
	 B(11,14,12)      =         1.883326	     107.906632
	 B(11,14,13)      =         1.881821	     107.820374
	 B(12,14,13)      =         1.880171	     107.725856
	 D(1,4,7,5)       =        -3.088676	    -176.968096
	 D(1,4,7,6)       =        -1.059749	     -60.719157
	 D(1,4,7,10)      =         1.056873	      60.554373
	 D(2,4,7,5)       =        -0.991304	     -56.797539
	 D(2,4,7,6)       =         1.037623	      59.451400
	 D(2,4,7,10)      =        -3.128940	    -179.275070
	 D(3,4,7,5)       =         1.107577	      63.459469
	 D(3,4,7,6)       =         3.136503	     179.708407
	 D(3,4,7,10)      =        -1.030060	     -59.018063
	 D(4,7,10,8)      =        -0.852203	     -48.827640
	 D(4,7,10,9)      =         1.166978	      66.862916
	 D(4,7,10,14)     =        -2.971400	    -170.248672
	 D(5,7,10,8)      =        -2.997016	    -171.716384
	 D(5,7,10,9)      =        -0.977835	     -56.025828
	 D(5,7,10,14)     =         1.166972	      66.862583
	 D(6,7,10,8)      =         1.266988	      72.593061
	 D(6,7,10,9)      =        -2.997016	    -171.716383
	 D(6,7,10,14)     =        -0.852209	     -48.827972
	 D(7,10,14,11)    =        -3.128908	    -179.273215
	 D(7,10,14,12)    =         1.056910	      60.556483
	 D(7,10,14,13)    =        -1.030025	     -59.016088
	 D(8,10,14,11)    =         1.037646	      59.452731
	 D(8,10,14,12)    =        -1.059722	     -60.717571
	 D(8,10,14,13)    =         3.136529	     179.709858
	 D(9,10,14,11)    =        -0.991281	     -56.796223
	 D(9,10,14,12)    =        -3.088649	    -176.966525
	 D(9,10,14,13)    =         1.107602	      63.460904

	Current energy   :      -157.8441903639

	Energy change for the previous step:
		Projected    :         0.0000018286
		Actual       :         0.0000002422

	Performing BFGS update.
	Previous computed or guess Hessian on step 1.
	Steps to be used in Hessian update: 5 4
	Adding user-defined constraint: Fragment 1; Coordinate 49:
		Value =    -2.971400; Fixed value    =    -2.967060
		Force =     0.002712; Force constant =     0.625000
	Removing off-diagonal coupling between coordinate 49 and others.
	Taking RFO optimization step.
	Going to follow RFO solution 1.
	Using RFO vector 1.
	Norm of target step-size    0.00551
	Projected energy change by RFO approximation:        -0.0000005483

	Back-transformation to cartesian coordinates...
	Successfully converged to displaced geometry.

	--- Internal Coordinate Step in ANG or DEG, aJ/ANG or AJ/DEG ---
	 ---------------------------------------------------------------------------
	   Coordinate                Previous        Force       Change         New 
	   ----------                --------       ------       ------       ------
	    1 R(1,4)          =      1.093876    -0.000015     0.000055     1.093931
	    2 R(2,4)          =      1.093574    -0.000063     0.000041     1.093616
	    3 R(3,4)          =      1.094283     0.000016     0.000054     1.094336
	    4 R(4,7)          =      1.524680    -0.000085    -0.000068     1.524611
	    5 R(5,7)          =      1.096628    -0.000007     0.000030     1.096658
	    6 R(6,7)          =      1.097148     0.000120     0.000013     1.097160
	    7 R(7,10)         =      1.525986    -0.000262    -0.000044     1.525942
	    8 R(8,10)         =      1.097148     0.000115     0.000011     1.097159
	    9 R(9,10)         =      1.096627    -0.000003     0.000033     1.096660
	   10 R(10,14)        =      1.524680    -0.000088    -0.000067     1.524614
	   11 R(11,14)        =      1.093575    -0.000065     0.000043     1.093618
	   12 R(12,14)        =      1.093876    -0.000013     0.000056     1.093932
	   13 R(13,14)        =      1.094282     0.000021     0.000051     1.094333
	   14 B(1,4,2)        =    107.906672     0.000001     0.001610   107.908283
	   15 B(1,4,3)        =    107.725673     0.000000     0.002330   107.728003
	   16 B(1,4,7)        =    110.697985    -0.000001    -0.001278   110.696707
	   17 B(2,4,3)        =    107.820346     0.000000     0.001767   107.822113
	   18 B(2,4,7)        =    111.548012    -0.000001    -0.011159   111.536853
	   19 B(3,4,7)        =    110.986546     0.000001     0.007099   110.993646
	   20 B(4,7,5)        =    110.078159     0.000001    -0.009898   110.068261
	   21 B(4,7,6)        =    109.170917    -0.000001     0.008668   109.179586
	   22 B(4,7,10)       =    112.877298    -0.000000    -0.007763   112.869535
	   23 B(5,7,6)        =    106.237574    -0.000000     0.009049   106.246623
	   24 B(5,7,10)       =    109.341739     0.000001    -0.002806   109.338933
	   25 B(6,7,10)       =    108.911169    -0.000000     0.003966   108.915135
	   26 B(7,10,8)       =    108.911597    -0.000000     0.003070   108.914667
	   27 B(7,10,9)       =    109.341385     0.000001    -0.001584   109.339801
	   28 B(7,10,14)      =    112.877172    -0.000000    -0.008066   112.869106
	   29 B(8,10,9)       =    106.237539    -0.000000     0.009095   106.246634
	   30 B(8,10,14)      =    109.171007    -0.000001     0.008179   109.179186
	   31 B(9,10,14)      =    110.078168     0.000001    -0.009477   110.068691
	   32 B(10,14,11)     =    111.547994    -0.000001    -0.011035   111.536960
	   33 B(10,14,12)     =    110.697701    -0.000001    -0.001308   110.696393
	   34 B(10,14,13)     =    110.986687     0.000001     0.006767   110.993454
	   35 B(11,14,12)     =    107.906632     0.000001     0.001747   107.908379
	   36 B(11,14,13)     =    107.820374     0.000000     0.001847   107.822222
	   37 B(12,14,13)     =    107.725856     0.000000     0.002363   107.728220
	   38 D(1,4,7,5)      =   -176.968096     0.000000     0.068699  -176.899396
	   39 D(1,4,7,6)      =    -60.719157     0.000000     0.079016   -60.640141
	   40 D(1,4,7,10)     =     60.554373    -0.000000     0.085023    60.639396
	   41 D(2,4,7,5)      =    -56.797539     0.000000     0.062435   -56.735103
	   42 D(2,4,7,6)      =     59.451400     0.000000     0.072752    59.524152
	   43 D(2,4,7,10)     =   -179.275070    -0.000000     0.078759  -179.196311
	   44 D(3,4,7,5)      =     63.459469     0.000000     0.061985    63.521454
	   45 D(3,4,7,6)      =    179.708407     0.000000     0.072302   179.780709
	   46 D(3,4,7,10)     =    -59.018063    -0.000000     0.078309   -58.939754
	   47 D(4,7,10,8)     =    -48.827640     0.000000     0.013814   -48.813825
	   48 D(4,7,10,9)     =     66.862916     0.000000     0.025503    66.888419
	   49 D(4,7,10,14)    =   -170.248672     0.000001     0.006586  -170.242087
	   50 D(5,7,10,8)     =   -171.716384     0.000000     0.033955  -171.682429
	   51 D(5,7,10,9)     =    -56.025828     0.000000     0.045644   -55.980185
	   52 D(5,7,10,14)    =     66.862583     0.000000     0.026726    66.889309
	   53 D(6,7,10,8)     =     72.593061    -0.000000     0.022495    72.615556
	   54 D(6,7,10,9)     =   -171.716383     0.000000     0.034184  -171.682199
	   55 D(6,7,10,14)    =    -48.827972     0.000000     0.015267   -48.812705
	   56 D(7,10,14,11)   =   -179.273215    -0.000000     0.072980  -179.200235
	   57 D(7,10,14,12)   =     60.556483    -0.000000     0.079009    60.635492
	   58 D(7,10,14,13)   =    -59.016088    -0.000000     0.072490   -58.943599
	   59 D(8,10,14,11)   =     59.452731     0.000000     0.068660    59.521391
	   60 D(8,10,14,12)   =    -60.717571     0.000000     0.074688   -60.642883
	   61 D(8,10,14,13)   =    179.709858     0.000000     0.068169   179.778027
	   62 D(9,10,14,11)   =    -56.796223     0.000000     0.058332   -56.737890
	   63 D(9,10,14,12)   =   -176.966525     0.000000     0.064361  -176.902164
	   64 D(9,10,14,13)   =     63.460904     0.000000     0.057842    63.518746
	 ---------------------------------------------------------------------------
	 Forces used to impose fixed constraints are not included.
	  Forces zeroed: 49 

  ==> Convergence Check <==

  Measures of convergence in internal coordinates in au.
  Criteria marked as inactive (o), active & met (*), and active & unmet ( ).
  ---------------------------------------------------------------------------------------------
   Step     Total Energy     Delta E     MAX Force     RMS Force      MAX Disp      RMS Disp   
  ---------------------------------------------------------------------------------------------
    Convergence Criteria    1.00e-06 *    3.00e-04 *             o    1.20e-03 *             o
  ---------------------------------------------------------------------------------------------
      6    -157.84419036    2.42e-07 *    3.19e-05 *    1.04e-05 o    1.48e-03      6.88e-04 o  ~
  ---------------------------------------------------------------------------------------------


  **** Optimization is complete! (in 6 steps) ****

  ==> Optimization Summary <==

  Measures of convergence in internal coordinates in au.
  --------------------------------------------------------------------------------------------------------------- ~
   Step         Total Energy             Delta E       MAX Force       RMS Force        MAX Disp        RMS Disp  ~
  --------------------------------------------------------------------------------------------------------------- ~
      1    -157.838189315082   -157.838189315082      0.01786551      0.00729246      0.02824585      0.01250307  ~
      2    -157.842316679720     -0.004127364638      0.00719601      0.00322537      0.03035148      0.01252604  ~
      3    -157.843805888435     -0.001489208715      0.00201513      0.00094334      0.04561232      0.01251491  ~
      4    -157.844162905633     -0.000357017198      0.00085601      0.00022622      0.02103146      0.00906435  ~
      5    -157.844190606118     -0.000027700485      0.00008961      0.00003564      0.00277963      0.00125446  ~
      6    -157.844190363905      0.000000242213      0.00003780      0.00001147      0.00148393      0.00068832  ~
  --------------------------------------------------------------------------------------------------------------- ~

	Writing optimization data to binary file.
	Final energy is   -157.8441903639055
	Final (previous) structure:
	Cartesian Geometry (in Angstrom)
	    H    -2.3472945622   0.0813142735   0.2546963128
	    H    -2.1866411689   1.7188627722  -0.3939197475
	    H    -1.9017032190   0.3211759059  -1.4384717490
	    C    -1.7649960731   0.7103189292  -0.4248972096
	    H     0.2734411775   1.3822724190  -0.6866175723
	    H    -0.1883766584   1.1067267088   0.9837065800
	    C    -0.2915905686   0.7070699784  -0.0328338009
	    H    -0.3196964942  -1.3862325913   0.4518630120
	    H     0.3670593673  -1.0299217807  -1.1231265351
	    C     0.3325431433  -0.6845431267  -0.0828795555
	    H     2.1590778425  -1.7340248452   0.4718160078
	    H     1.6963783143  -0.4394157294   1.5844581178
	    H     2.4055421466  -0.0439780726   0.0148650151
	    C     1.7275887963  -0.7308955605   0.5305936719
	Saving final (previous) structure.
			--------------------------
			 OPTKING Finished Execution 
			--------------------------

    Final optimized geometry and variables:
    Molecular point group: c1
    Full point group: C1

    Geometry (in Angstrom), charge = 0, multiplicity = 1:

    H           -2.347294562153     0.081314273461     0.254696312756
    H           -2.186641168946     1.718862772198    -0.393919747474
    H           -1.901703219018     0.321175905939    -1.438471749021
    C           -1.764996073141     0.710318929224    -0.424897209607
    H            0.273441177524     1.382272419006    -0.686617572259
    H           -0.188376658399     1.106726708754     0.983706579976
    C           -0.291590568609     0.707069978369    -0.032833800875
    H           -0.319696494209    -1.386232591273     0.451863011973
    H            0.367059367339    -1.029921780729    -1.123126535148
    C            0.332543143332    -0.684543126749    -0.082879555475
    H            2.159077842487    -1.734024845232     0.471816007841
    H            1.696378314283    -0.439415729356     1.584458117847
    H            2.405542146600    -0.043978072581     0.014865015055
    C            1.727588796299    -0.730895560476     0.530593671895

	Cleaning optimization helper files.

*** Psi4 exiting successfully. Buy a developer a beer!
