    -----------------------------------------------------------------------
          Psi4: An Open-Source Ab Initio Electronic Structure Package
                              Psi4 1.0.0 Driver

                          Git: Rev {master} 6a9a71b 

    J. M. Turney, A. C. Simmonett, R. M. Parrish, E. G. Hohenstein,
    F. A. Evangelista, J. T. Fermann, B. J. Mintz, L. A. Burns, J. J. Wilke,
    M. L. Abrams, N. J. Russ, M. L. Leininger, C. L. Janssen, E. T. Seidl,
    W. D. Allen, H. F. Schaefer, R. A. King, E. F. Valeev, C. D. Sherrill,
    and T. D. Crawford, WIREs Comput. Mol. Sci. 2, 556-565 (2012)
    (doi: 10.1002/wcms.93)

                         Additional Contributions by
    A. E. DePrince, U. Bozkaya, A. Yu. Sokolov, D. G. A. Smith, R. Di Remigio,
    R. M. Richard, J. F. Gonthier, H. R. McAlexander, M. Saitow, and
    B. P. Pritchard
    -----------------------------------------------------------------------


    Psi4 started on: Tue Feb 21 18:44:52 2017

    Process ID:  40491
    PSI4DATADIR: /Users/sternc1/anaconda/share/psi4
    Memory level set to 256.000 MB

  ==> Input File <==

--------------------------------------------------------------------------

memory 1000 mb

molecule butane {
  symmetry C1
  0 1 
  H      1.604   0.760   -8.260
  H      1.745   2.388   -8.880
  H      2.043   1.024   -9.930
  C      2.142   1.395   -8.932
  H      4.169   2.051   -9.210
  H      3.731   1.788   -7.539
  C      3.631   1.416   -8.537
  H      5.006   -0.037   -9.318
  H      4.567   -0.302   -7.649
  C      4.203   -0.012   -8.612
  H      3.495   -1.978   -9.109
  H      2.733   -0.697   -10.020
  H      2.293   -0.961   -8.350
  C      3.097   -0.986   -9.057
  units Angstrom
}

dih_string = "4 7 10 14 360.001"
set optking fixed_dihedral = $dih_string

optimize('B3LYP/cc-PVDZ')
--------------------------------------------------------------------------

  Memory set to 1000.000 MiB by Python script.
gradient() will perform analytic gradient computation.

*** tstart() called on lski1497
*** at Tue Feb 21 18:44:54 2017


         ---------------------------------------------------------
                                   SCF
            by Justin Turney, Rob Parrish, and Andy Simmonett
                              RKS Reference
                        1 Threads,   1000 MiB Core
         ---------------------------------------------------------

  ==> Geometry <==

    Molecular point group: c1
    Full point group: C1

    Geometry (in Angstrom), charge = 0, multiplicity = 1:

       Center              X                  Y                   Z               Mass       
    ------------   -----------------  -----------------  -----------------  -----------------
           H         -1.641751988320     0.315365705977     0.531788210494     1.007825032070
           H         -1.500751988320     1.943365705977    -0.088211789506     1.007825032070
           H         -1.202751988320     0.579365705977    -1.138211789506     1.007825032070
           C         -1.103751988320     0.950365705977    -0.140211789506    12.000000000000
           H          0.923248011680     1.606365705977    -0.418211789506     1.007825032070
           H          0.485248011680     1.343365705977     1.252788210494     1.007825032070
           C          0.385248011680     0.971365705977     0.254788210494    12.000000000000
           H          1.760248011680    -0.481634294023    -0.526211789506     1.007825032070
           H          1.321248011680    -0.746634294023     1.142788210494     1.007825032070
           C          0.957248011680    -0.456634294023     0.179788210494    12.000000000000
           H          0.249248011680    -2.422634294023    -0.317211789506     1.007825032070
           H         -0.512751988320    -1.141634294023    -1.228211789506     1.007825032070
           H         -0.952751988320    -1.405634294023     0.441788210494     1.007825032070
           C         -0.148751988320    -1.430634294023    -0.265211789506    12.000000000000

  Running in c1 symmetry.

  Rotational constants: A =      0.37737  B =      0.21144  C =      0.15038 [cm^-1]
  Rotational constants: A =  11313.23143  B =   6338.94822  C =   4508.41915 [MHz]
  Nuclear repulsion =  136.585801064848738

  Charge       = 0
  Multiplicity = 1
  Electrons    = 34
  Nalpha       = 17
  Nbeta        = 17

  ==> Algorithm <==

  SCF Algorithm Type is DF.
  DIIS enabled.
  MOM disabled.
  Fractional occupation disabled.
  Guess Type is SAD.
  Energy threshold   = 1.00e-08
  Density threshold  = 1.00e-08
  Integral threshold = 0.00e+00

  ==> Primary Basis <==

  Basis Set: CC-PVDZ
    Number of shells: 54
    Number of basis function: 106
    Number of Cartesian functions: 110
    Spherical Harmonics?: true
    Max angular momentum: 2

  ==> DFT Potential <==

   => B3LYP Composite Functional <= 

    B3LYP Hybrid-GGA Exchange-Correlation Functional (VWN1-RPA)

    P.J. Stephens et. al., J. Phys. Chem., 98, 11623-11627, 1994

    Points   =           5000
    Deriv    =              1
    GGA      =           TRUE
    Meta     =          FALSE

    X_LRC        =          FALSE
    X_Hybrid     =           TRUE
    X_Alpha      =   2.000000E-01
    X_Omega      =   0.000000E+00
    C_LRC        =          FALSE
    C_Hybrid     =          FALSE
    C_Alpha      =   0.000000E+00
    C_Omega      =   0.000000E+00

   => Exchange Functionals <=

    0.8000    B3_X
    0.2000      HF 

   => Correlation Functionals <=

    0.1900 VWN3RPA_C
    0.8100   LYP_C

   => Molecular Quadrature <=

    Radial Scheme    =       TREUTLER
    Pruning Scheme   =           FLAT
    Nuclear Scheme   =       TREUTLER

    BS radius alpha  =              1
    Pruning alpha    =              1
    Radial Points    =             75
    Spherical Points =            302
    Total Points     =         312664
    Total Blocks     =            264
    Max Points       =           4984
    Max Functions    =            106

  ==> Pre-Iterations <==

   -------------------------------------------------------
    Irrep   Nso     Nmo     Nalpha   Nbeta   Ndocc  Nsocc
   -------------------------------------------------------
     A        106     106       0       0       0       0
   -------------------------------------------------------
    Total     106     106      17      17      17       0
   -------------------------------------------------------

  ==> Integral Setup <==

  ==> DFJK: Density-Fitted J/K Matrices <==

    J tasked:                  Yes
    K tasked:                  Yes
    wK tasked:                  No
    OpenMP threads:              1
    Integrals threads:           1
    Memory (MB):               715
    Algorithm:                Core
    Integral Cache:           NONE
    Schwarz Cutoff:          1E-12
    Fitting Condition:       1E-12

   => Auxiliary Basis Set <=

  Basis Set: 
    Number of shells: 186
    Number of basis function: 510
    Number of Cartesian functions: 574
    Spherical Harmonics?: true
    Max angular momentum: 3

  Minimum eigenvalue in the overlap matrix is 2.6769498593E-03.
  Using Symmetric Orthogonalization.
  SCF Guess: Superposition of Atomic Densities via on-the-fly atomic UHF.

  ==> Iterations <==

                           Total Energy        Delta E     RMS |[F,P]|

   @DF-RKS iter   0:  -159.03930846243904   -1.59039e+02   3.37450e-02 
   @DF-RKS iter   1:  -158.24061752028763    7.98691e-01   5.48568e-03 
   @DF-RKS iter   2:  -158.15644131578927    8.41762e-02   6.69610e-03 DIIS
   @DF-RKS iter   3:  -158.42937420984069   -2.72933e-01   4.09169e-04 DIIS
   @DF-RKS iter   4:  -158.43031606079862   -9.41851e-04   1.11045e-04 DIIS
   @DF-RKS iter   5:  -158.43037747971673   -6.14189e-05   4.28322e-05 DIIS
   @DF-RKS iter   6:  -158.43038722398197   -9.74427e-06   7.93715e-06 DIIS
   @DF-RKS iter   7:  -158.43038760879543   -3.84813e-07   9.91641e-07 DIIS
   @DF-RKS iter   8:  -158.43038761521186   -6.41643e-09   1.85363e-07 DIIS
   @DF-RKS iter   9:  -158.43038761537676   -1.64903e-10   8.90581e-08 DIIS
   @DF-RKS iter  10:  -158.43038761542024   -4.34852e-11   1.42749e-08 DIIS
   @DF-RKS iter  11:  -158.43038761542118   -9.37916e-13   1.39896e-09 DIIS

  ==> Post-Iterations <==

    Orbital Energies (a.u.)
    -----------------------

    Doubly Occupied:                                                      

       1A    -10.168550     2A    -10.168329     3A    -10.160870  
       4A    -10.160835     5A     -0.800244     6A     -0.710129  
       7A     -0.653171     8A     -0.557472     9A     -0.478095  
      10A     -0.457542    11A     -0.402776    12A     -0.391063  
      13A     -0.381814    14A     -0.360151    15A     -0.321086  
      16A     -0.316920    17A     -0.310946  

    Virtual:                                                              

      18A      0.058791    19A      0.092259    20A      0.097089  
      21A      0.112252    22A      0.130929    23A      0.131362  
      24A      0.158629    25A      0.181985    26A      0.186933  
      27A      0.194523    28A      0.244381    29A      0.250689  
      30A      0.300027    31A      0.409355    32A      0.417728  
      33A      0.434085    34A      0.446858    35A      0.464476  
      36A      0.502703    37A      0.510140    38A      0.582321  
      39A      0.602436    40A      0.630618    41A      0.652041  
      42A      0.652663    43A      0.662499    44A      0.668985  
      45A      0.673734    46A      0.695340    47A      0.703984  
      48A      0.724725    49A      0.742467    50A      0.761406  
      51A      0.770251    52A      0.849199    53A      0.859195  
      54A      0.904874    55A      0.962532    56A      1.065750  
      57A      1.187235    58A      1.248763    59A      1.249917  
      60A      1.273025    61A      1.300762    62A      1.348018  
      63A      1.373052    64A      1.521076    65A      1.557926  
      66A      1.568332    67A      1.581259    68A      1.595986  
      69A      1.619285    70A      1.648530    71A      1.673294  
      72A      1.676104    73A      1.683363    74A      1.695910  
      75A      1.716925    76A      1.717505    77A      1.728006  
      78A      1.732282    79A      1.743343    80A      1.792786  
      81A      1.830981    82A      1.910389    83A      1.919467  
      84A      1.922511    85A      1.949532    86A      2.004469  
      87A      2.006811    88A      2.124711    89A      2.134288  
      90A      2.210255    91A      2.221810    92A      2.232806  
      93A      2.270181    94A      2.336973    95A      2.395724  
      96A      2.466454    97A      2.478096    98A      2.487671  
      99A      2.508767   100A      2.519157   101A      2.606344  
     102A      2.629015   103A      2.652001   104A      2.661985  
     105A      2.696653   106A      2.800166  

    Final Occupation by Irrep:
              A 
    DOCC [    17 ]

  Energy converged.

  @DF-RKS Final Energy:  -158.43038761542118

   => Energetics <=

    Nuclear Repulsion Energy =            136.5858010648487380
    One-Electron Energy =                -481.5543126968152023
    Two-Electron Energy =                 207.2378313581899647
    DFT Exchange-Correlation Energy =     -20.6997073416446824
    Empirical Dispersion Energy =           0.0000000000000000
    PCM Polarization Energy =               0.0000000000000000
    EFP Energy =                            0.0000000000000000
    Total Energy =                       -158.4303876154211821


  Saving occupied orbitals to File 180.

*** tstop() called on lski1497 at Tue Feb 21 18:47:28 2017
Module time:
	user time   =     127.68 seconds =       2.13 minutes
	system time =       1.70 seconds =       0.03 minutes
	total time  =        154 seconds =       2.57 minutes
Total time:
	user time   =     127.68 seconds =       2.13 minutes
	system time =       1.70 seconds =       0.03 minutes
	total time  =        154 seconds =       2.57 minutes


Properties will be evaluated at   0.000000,   0.000000,   0.000000 Bohr

Properties computed using the SCF density matrix

  Nuclear Dipole Moment: (a.u.)
     X:    -1.0045      Y:    -0.3847      Z:    -0.3254

  Electronic Dipole Moment: (a.u.)
     X:     1.0119      Y:     0.3870      Z:     0.3274

  Dipole Moment: (a.u.)
     X:     0.0074      Y:     0.0024      Z:     0.0019     Total:     0.0080

  Dipole Moment: (Debye)
     X:     0.0188      Y:     0.0060      Z:     0.0049     Total:     0.0203


*** tstart() called on lski1497
*** at Tue Feb 21 18:47:28 2017


         ------------------------------------------------------------
                                   SCF GRAD                          
                          Rob Parrish, Justin Turney,                
                       Andy Simmonett, and Alex Sokolov              
         ------------------------------------------------------------

  ==> Geometry <==

    Molecular point group: c1
    Full point group: C1

    Geometry (in Angstrom), charge = 0, multiplicity = 1:

       Center              X                  Y                   Z               Mass       
    ------------   -----------------  -----------------  -----------------  -----------------
           H         -1.641751988320     0.315365705977     0.531788210494     1.007825032070
           H         -1.500751988320     1.943365705977    -0.088211789506     1.007825032070
           H         -1.202751988320     0.579365705977    -1.138211789506     1.007825032070
           C         -1.103751988320     0.950365705977    -0.140211789506    12.000000000000
           H          0.923248011680     1.606365705977    -0.418211789506     1.007825032070
           H          0.485248011680     1.343365705977     1.252788210494     1.007825032070
           C          0.385248011680     0.971365705977     0.254788210494    12.000000000000
           H          1.760248011680    -0.481634294023    -0.526211789506     1.007825032070
           H          1.321248011680    -0.746634294023     1.142788210494     1.007825032070
           C          0.957248011680    -0.456634294023     0.179788210494    12.000000000000
           H          0.249248011680    -2.422634294023    -0.317211789506     1.007825032070
           H         -0.512751988320    -1.141634294023    -1.228211789506     1.007825032070
           H         -0.952751988320    -1.405634294023     0.441788210494     1.007825032070
           C         -0.148751988320    -1.430634294023    -0.265211789506    12.000000000000

  Nuclear repulsion =  136.585801064848738

  ==> Basis Set <==

  Basis Set: CC-PVDZ
    Number of shells: 54
    Number of basis function: 106
    Number of Cartesian functions: 110
    Spherical Harmonics?: true
    Max angular momentum: 2

  ==> DFJKGrad: Density-Fitted SCF Gradients <==

    Gradient:                    1
    J tasked:                  Yes
    K tasked:                  Yes
    wK tasked:                  No
    OpenMP threads:              1
    Integrals threads:           1
    Memory (MB):               715
    Schwarz Cutoff:          0E+00
    Fitting Condition:       1E-12

   => Auxiliary Basis Set <=

  Basis Set: 
    Number of shells: 186
    Number of basis function: 510
    Number of Cartesian functions: 574
    Spherical Harmonics?: true
    Max angular momentum: 3

  ==> DFT Potential <==

   => B3LYP Composite Functional <= 

    B3LYP Hybrid-GGA Exchange-Correlation Functional (VWN1-RPA)

    P.J. Stephens et. al., J. Phys. Chem., 98, 11623-11627, 1994

    Points   =           5000
    Deriv    =              1
    GGA      =           TRUE
    Meta     =          FALSE

    X_LRC        =          FALSE
    X_Hybrid     =           TRUE
    X_Alpha      =   2.000000E-01
    X_Omega      =   0.000000E+00
    C_LRC        =          FALSE
    C_Hybrid     =          FALSE
    C_Alpha      =   0.000000E+00
    C_Omega      =   0.000000E+00

   => Exchange Functionals <=

    0.8000    B3_X
    0.2000      HF 

   => Correlation Functionals <=

    0.1900 VWN3RPA_C
    0.8100   LYP_C

   => Molecular Quadrature <=

    Radial Scheme    =       TREUTLER
    Pruning Scheme   =           FLAT
    Nuclear Scheme   =       TREUTLER

    BS radius alpha  =              1
    Pruning alpha    =              1
    Radial Points    =             75
    Spherical Points =            302
    Total Points     =         312664
    Total Blocks     =            264
    Max Points       =           4984
    Max Functions    =            106


  -Total Gradient:
     Atom            X                  Y                   Z
    ------   -----------------  -----------------  -----------------
       1        0.015053380665     0.006219054549    -0.010152329160
       2        0.011067436591    -0.019632979267    -0.000232329373
       3        0.007753313619     0.002027750682     0.017691969828
       4       -0.023792131739    -0.020889073634    -0.009870477519
       5       -0.010721773403    -0.016625201229     0.010708580982
       6       -0.002906834951    -0.012124459831    -0.019190126611
       7        0.019643070657     0.020735832462     0.008862409188
       8       -0.019243562051     0.003651983887     0.012234054243
       9       -0.011189363624     0.008357500952    -0.018323624560
      10        0.029011158630    -0.002502459350     0.007225857402
      11       -0.005647812463     0.022172659113     0.002020852109
      12        0.007630317337     0.002327746363     0.017767660190
      13        0.014087744130     0.006799940570    -0.009575071114
      14       -0.030756396416    -0.000524384603    -0.009171480986


*** tstop() called on lski1497 at Tue Feb 21 18:48:15 2017
Module time:
	user time   =      41.22 seconds =       0.69 minutes
	system time =       0.69 seconds =       0.01 minutes
	total time  =         47 seconds =       0.78 minutes
Total time:
	user time   =     168.92 seconds =       2.82 minutes
	system time =       2.39 seconds =       0.04 minutes
	total time  =        201 seconds =       3.35 minutes

			-----------------------------------------
			 OPTKING 2.0: for geometry optimizations 
			  - R.A. King,  Bethel University        
			-----------------------------------------

	Internal coordinates to be generated automatically.
	Detected frag 1 with atoms:  1 2 3 4 5 6 7 8 9 10 11 12 13 14
	---Fragment 1 Bond Connectivity---
	 1 : 4
	 2 : 4
	 3 : 4
	 4 : 1 2 3 7
	 5 : 7
	 6 : 7
	 7 : 4 5 6 10
	 8 : 10
	 9 : 10
	 10 : 7 8 9 14
	 11 : 14
	 12 : 14
	 13 : 14
	 14 : 10 11 12 13

	Assuming in current code that numbering for constraints corresponds to unified fragment.
	Fixed dihedral atom list: 
	     4     7    10    14
	---Fragment 1 Geometry and Gradient---
	 H          -3.1024616360        0.5959548160        1.0049340785
	 H          -2.8360102513        3.6724289603       -0.1666961239
	 H          -2.2728718637        1.0948425151       -2.1509085634
	 C          -2.0857889766        1.7959309104       -0.2649618828
	 H           1.7446858948        3.0355912536       -0.7903057477
	 H           0.9169858486        2.5385932806        2.3674266203
	 C           0.7280132353        1.8356151592        0.4814799397
	 H           3.3263866680       -0.9101569119       -0.9943961701
	 H           2.4967968957       -1.4109343371        2.1595567457
	 C           1.8089365833       -0.8629137586        0.3397504798
	 H           0.4710104812       -4.5781153358       -0.5994434083
	 H          -0.9689608320       -2.1573761596       -2.3209839153
	 H          -1.8004403305       -2.6562638587        0.8348587266
	 C          -0.2811005196       -2.7035070120       -0.5011776494
	             0.0150533807        0.0062190545       -0.0101523292
	             0.0110674366       -0.0196329793       -0.0002323294
	             0.0077533136        0.0020277507        0.0176919698
	            -0.0237921317       -0.0208890736       -0.0098704775
	            -0.0107217734       -0.0166252012        0.0107085810
	            -0.0029068350       -0.0121244598       -0.0191901266
	             0.0196430707        0.0207358325        0.0088624092
	            -0.0192435621        0.0036519839        0.0122340542
	            -0.0111893636        0.0083575010       -0.0183236246
	             0.0290111586       -0.0025024593        0.0072258574
	            -0.0056478125        0.0221726591        0.0020208521
	             0.0076303173        0.0023277464        0.0177676602
	             0.0140877441        0.0067999406       -0.0095750711
	            -0.0307563964       -0.0005243846       -0.0091714810

	Previous optimization step data not found.  Starting new optimization.

	---Fragment 1 Intrafragment Coordinates---
	 - Coordinate -           - BOHR/RAD -       - ANG/DEG -
	 R(1,4)           =         2.021436	       1.069698
	 R(2,4)           =         2.023298	       1.070683
	 R(3,4)           =         2.020723	       1.069320
	 R(4,7)           =         2.911397	       1.540645
	 R(5,7)           =         2.022623	       1.070326
	 R(6,7)           =         2.021555	       1.069761
	 R(7,10)          =         2.910419	       1.540128
	 R(8,10)          =         2.021097	       1.069519
	 R(9,10)          =         2.021181	       1.069563
	 R(10,14)         =         2.909158	       1.539460
	 R(11,14)         =         2.022247	       1.070127
	 R(12,14)         =         2.020670	       1.069292
	 R(13,14)         =         2.023763	       1.070930
	 B(1,4,2)         =         1.910870	     109.484805
	 B(1,4,3)         =         1.911121	     109.499161
	 B(1,4,7)         =         1.910399	     109.457783
	 B(2,4,3)         =         1.910042	     109.437340
	 B(2,4,7)         =         1.910564	     109.467262
	 B(3,4,7)         =         1.910803	     109.480971
	 B(4,7,5)         =         1.909937	     109.431343
	 B(4,7,6)         =         1.911630	     109.528316
	 B(4,7,10)        =         1.911154	     109.501062
	 B(5,7,6)         =         1.910605	     109.469614
	 B(5,7,10)        =         1.910047	     109.437654
	 B(6,7,10)        =         1.910425	     109.459295
	 B(7,10,8)        =         1.909926	     109.430678
	 B(7,10,9)        =         1.911287	     109.508677
	 B(7,10,14)       =         1.911212	     109.504376
	 B(8,10,9)        =         1.909734	     109.419706
	 B(8,10,14)       =         1.911130	     109.499680
	 B(9,10,14)       =         1.910510	     109.464178
	 B(10,14,11)      =         1.910647	     109.471985
	 B(10,14,12)      =         1.911227	     109.505266
	 B(10,14,13)      =         1.911089	     109.497319
	 B(11,14,12)      =         1.910687	     109.474289
	 B(11,14,13)      =         1.910213	     109.447136
	 B(12,14,13)      =         1.909937	     109.431306
	 D(1,4,7,5)       =         3.140997	     179.965873
	 D(1,4,7,6)       =        -1.047644	     -60.025575
	 D(1,4,7,10)      =         1.047427	      60.013132
	 D(2,4,7,5)       =        -1.047689	     -60.028143
	 D(2,4,7,6)       =         1.046856	      59.980409
	 D(2,4,7,10)      =        -3.141259	    -179.980883
	 D(3,4,7,5)       =         1.046044	      59.933911
	 D(3,4,7,6)       =         3.140588	     179.942463
	 D(3,4,7,10)      =        -1.047526	     -60.018830
	 D(4,7,10,8)      =         2.095109	     120.040906
	 D(4,7,10,9)      =        -2.094815	    -120.024080
	 D(4,7,10,14)     =         0.000185	       0.010589
	 D(5,7,10,8)      =         0.001606	       0.092031
	 D(5,7,10,9)      =         2.094867	     120.027044
	 D(5,7,10,14)     =        -2.093318	    -119.938287
	 D(6,7,10,8)      =        -2.092269	    -119.878168
	 D(6,7,10,9)      =         0.000992	       0.056845
	 D(6,7,10,14)     =         2.095992	     120.091515
	 D(7,10,14,11)    =         3.141528	     179.996267
	 D(7,10,14,12)    =         1.046695	      59.971179
	 D(7,10,14,13)    =        -1.047490	     -60.016781
	 D(8,10,14,11)    =         1.047340	      60.008175
	 D(8,10,14,12)    =        -1.047493	     -60.016914
	 D(8,10,14,13)    =         3.141508	     179.995127
	 D(9,10,14,11)    =        -1.046183	     -59.941843
	 D(9,10,14,12)    =        -3.141016	    -179.966932
	 D(9,10,14,13)    =         1.047985	      60.045109

	Current energy   :      -158.4303876154

	Generating empirical Hessian (Schlegel '84) for each fragment.
	Adding user-defined constraint: Fragment 1; Coordinate 49:
		Value =     0.000185; Fixed value    =     0.000017
		Force =    -0.000084; Force constant =     0.500000
	Removing off-diagonal coupling between coordinate 49 and others.
	Taking RFO optimization step.
	Going to follow RFO solution 1.
	Using RFO vector 1.

	Determining step-restricting scale parameter for RS-RFO.
	Maximum step size allowed    0.10000

	 Iter      |step|        alpha        rfo_root  
	------------------------------------------------
	    0     0.51857       1.00000           1
	    1     0.33825       4.24276           1
	    2     0.22313      13.00983           1
	    3     0.15547      31.01136           1
	    4     0.11925      56.67179           1
	    5     0.10378      77.09789           1
	    6     0.10020      83.27042           1
	    7     0.10000      83.63522           1
	------------------------------------------------
	Norm of target step-size    0.10000
	Projected energy change by RFO approximation:        -0.0143694489

	Back-transformation to cartesian coordinates...
	Could not converge backtransformation.
	Using first guess instead.

	--- Internal Coordinate Step in ANG or DEG, aJ/ANG or AJ/DEG ---
	 ---------------------------------------------------------------------------
	   Coordinate                Previous        Force       Change         New 
	   ----------                --------       ------       ------       ------
	    1 R(1,4)          =      1.069698     0.145341     0.006464     1.076162
	    2 R(2,4)          =      1.070683     0.183916     0.008687     1.079370
	    3 R(3,4)          =      1.069320     0.147752     0.006556     1.075876
	    4 R(4,7)          =      1.540645     0.071269     0.004928     1.545573
	    5 R(5,7)          =      1.070326     0.181132     0.007370     1.077696
	    6 R(6,7)          =      1.069761     0.184467     0.007500     1.077261
	    7 R(7,10)         =      1.540128     0.357886     0.015188     1.555316
	    8 R(8,10)         =      1.069519     0.186269     0.007571     1.077090
	    9 R(9,10)         =      1.069563     0.185962     0.007561     1.077124
	   10 R(10,14)        =      1.539460     0.076007     0.005130     1.544590
	   11 R(11,14)        =      1.070127     0.187453     0.008826     1.078953
	   12 R(12,14)        =      1.069292     0.148052     0.006572     1.075865
	   13 R(13,14)        =      1.070930     0.137910     0.006170     1.077100
	   14 B(1,4,2)        =    109.484805    -0.000448    -0.221986   109.262819
	   15 B(1,4,3)        =    109.499161    -0.000347    -0.272977   109.226184
	   16 B(1,4,7)        =    109.457783     0.000606     0.343819   109.801602
	   17 B(2,4,3)        =    109.437340    -0.000442    -0.218115   109.219225
	   18 B(2,4,7)        =    109.467262     0.000034     0.027595   109.494857
	   19 B(3,4,7)        =    109.480971     0.000597     0.338463   109.819434
	   20 B(4,7,5)        =    109.431343    -0.001608    -0.828369   108.602973
	   21 B(4,7,6)        =    109.528316    -0.001618    -0.833835   108.694481
	   22 B(4,7,10)       =    109.501062     0.005454     2.844066   112.345128
	   23 B(5,7,6)        =    109.469614     0.000680     0.286240   109.755854
	   24 B(5,7,10)       =    109.437654    -0.001453    -0.737513   108.700141
	   25 B(6,7,10)       =    109.459295    -0.001455    -0.738215   108.721079
	   26 B(7,10,8)       =    109.430678    -0.001454    -0.737553   108.693125
	   27 B(7,10,9)       =    109.508677    -0.001463    -0.742867   108.765810
	   28 B(7,10,14)      =    109.504376     0.005457     2.845641   112.350017
	   29 B(8,10,9)       =    109.419706     0.000684     0.288220   109.707926
	   30 B(8,10,14)      =    109.499680    -0.001615    -0.831896   108.667784
	   31 B(9,10,14)      =    109.464178    -0.001614    -0.831078   108.633100
	   32 B(10,14,11)     =    109.471985     0.000038     0.030007   109.501992
	   33 B(10,14,12)     =    109.505266     0.000599     0.339876   109.845142
	   34 B(10,14,13)     =    109.497319     0.000597     0.339503   109.836823
	   35 B(11,14,12)     =    109.474289    -0.000447    -0.221053   109.253236
	   36 B(11,14,13)     =    109.447136    -0.000446    -0.221485   109.225651
	   37 B(12,14,13)     =    109.431306    -0.000342    -0.270510   109.160796
	   38 D(1,4,7,5)      =    179.965873     0.000167     0.364069   180.329942
	   39 D(1,4,7,6)      =    -60.025575    -0.000095    -0.277193   -60.302768
	   40 D(1,4,7,10)     =     60.013132     0.000036     0.044377    60.057510
	   41 D(2,4,7,5)      =    -60.028143     0.000131     0.319957   -59.708186
	   42 D(2,4,7,6)      =     59.980409    -0.000131    -0.321306    59.659104
	   43 D(2,4,7,10)     =   -179.980883     0.000000     0.000265  -179.980618
	   44 D(3,4,7,5)      =     59.933911     0.000095     0.277205    60.211116
	   45 D(3,4,7,6)      =    179.942463    -0.000167    -0.364057   179.578406
	   46 D(3,4,7,10)     =    -60.018830    -0.000035    -0.042486   -60.061316
	   47 D(4,7,10,8)     =    120.040906     0.000109     0.266152   120.307058
	   48 D(4,7,10,9)     =   -120.024080    -0.000108    -0.265813  -120.289893
	   49 D(4,7,10,14)    =      0.010589     0.000000     0.000772     0.011361
	   50 D(5,7,10,8)     =      0.092031    -0.000000    -0.001152     0.090878
	   51 D(5,7,10,9)     =    120.027044    -0.000218    -0.533117   119.493927
	   52 D(5,7,10,14)    =   -119.938287    -0.000109    -0.266532  -120.204818
	   53 D(6,7,10,8)     =   -119.878168     0.000216     0.530123  -119.348045
	   54 D(6,7,10,9)     =      0.056845    -0.000001    -0.001842     0.055004
	   55 D(6,7,10,14)    =    120.091515     0.000108     0.264743   120.356258
	   56 D(7,10,14,11)   =    179.996267     0.000001     0.002089   179.998357
	   57 D(7,10,14,12)   =     59.971179     0.000037     0.045807    60.016986
	   58 D(7,10,14,13)   =    -60.016781    -0.000035    -0.042528   -60.059308
	   59 D(8,10,14,11)   =     60.008175    -0.000131    -0.320175    59.688000
	   60 D(8,10,14,12)   =    -60.016914    -0.000095    -0.276457   -60.293371
	   61 D(8,10,14,13)   =    179.995127    -0.000167    -0.364793   179.630335
	   62 D(9,10,14,11)   =    -59.941843     0.000130     0.318201   -59.623642
	   63 D(9,10,14,12)   =   -179.966932     0.000166     0.361919  -179.605012
	   64 D(9,10,14,13)   =     60.045109     0.000094     0.273584    60.318693
	 ---------------------------------------------------------------------------
	 Forces used to impose fixed constraints are not included.
	  Forces zeroed: 49 

  ==> Convergence Check <==

  Measures of convergence in internal coordinates in au.
  Criteria marked as inactive (o), active & met (*), and active & unmet ( ).
  --------------------------------------------------------------------------------------------- ~
   Step     Total Energy     Delta E     MAX Force     RMS Force      MAX Disp      RMS Disp    ~
  --------------------------------------------------------------------------------------------- ~
    Convergence Criteria    1.00e-06 *    3.00e-04 *             o    1.20e-03 *             o  ~
  --------------------------------------------------------------------------------------------- ~
      1    -158.43038762   -1.58e+02      7.17e-02      1.84e-02 o    4.97e-02      1.27e-02 o  ~
  ---------------------------------------------------------------------------------------------

	Writing optimization data to binary file.
	Structure for next step:
	Cartesian Geometry (in Angstrom)
	    H    -1.6995531162   0.4088568046   0.5353657715
	    H    -1.4802961079   2.0456395934  -0.0666673654
	    H    -1.2585929535   0.6739061541  -1.1419745449
	    C    -1.1279621792   1.0276415798  -0.1343452062
	    H     0.9205791100   1.6025378434  -0.4274582588
	    H     0.4788029951   1.3373174304   1.2581425156
	    C     0.3679385635   0.9729093590   0.2504684850
	    H     1.7554708470  -0.4797854099  -0.5352620412
	    H     1.3126032425  -0.7470087429   1.1485573011
	    C     0.9455968097  -0.4691673474   0.1747473288
	    H     0.3351708050  -2.4842512741  -0.3042407894
	    H    -0.4883232568  -1.2479348993  -1.2426128804
	    H    -0.9299760091  -1.5130688572   0.4345775050
	    C    -0.1129865866  -1.5034723504  -0.2672628739
			--------------------------
			 OPTKING Finished Execution 
			--------------------------

    Structure for next step:
    Molecular point group: c1
    Full point group: C1

    Geometry (in Angstrom), charge = 0, multiplicity = 1:

    H           -1.696258877234     0.410096789320     0.536415265926
    H           -1.477001868942     2.046879578196    -0.065617870948
    H           -1.255298714502     0.675146138889    -1.140925050495
    C           -1.124667940232     1.028881564531    -0.133295711730
    H            0.923873348913     1.603777828198    -0.426408764324
    H            0.482097234032     1.338557415118     1.259192010036
    C            0.371232802458     0.974149343783     0.251517979435
    H            1.758765086006    -0.478545425135    -0.534212546800
    H            1.315897481430    -0.745768758105     1.149606795557
    C            0.948891048654    -0.467927362608     0.175796823232
    H            0.338465043979    -2.483011289303    -0.303191295004
    H           -0.485029017799    -1.246694914591    -1.241563385927
    H           -0.926681770141    -1.511828872405     0.435626999477
    C           -0.109692347686    -1.502232365628    -0.266213379501

gradient() will perform analytic gradient computation.

*** tstart() called on lski1497
*** at Tue Feb 21 18:48:16 2017


         ---------------------------------------------------------
                                   SCF
            by Justin Turney, Rob Parrish, and Andy Simmonett
                              RKS Reference
                        1 Threads,   1000 MiB Core
         ---------------------------------------------------------

  ==> Geometry <==

    Molecular point group: c1
    Full point group: C1

    Geometry (in Angstrom), charge = 0, multiplicity = 1:

       Center              X                  Y                   Z               Mass       
    ------------   -----------------  -----------------  -----------------  -----------------
           H         -1.696258877234     0.410096789320     0.536415265926     1.007825032070
           H         -1.477001868942     2.046879578196    -0.065617870948     1.007825032070
           H         -1.255298714502     0.675146138889    -1.140925050495     1.007825032070
           C         -1.124667940232     1.028881564531    -0.133295711730    12.000000000000
           H          0.923873348913     1.603777828198    -0.426408764324     1.007825032070
           H          0.482097234032     1.338557415118     1.259192010036     1.007825032070
           C          0.371232802458     0.974149343783     0.251517979435    12.000000000000
           H          1.758765086006    -0.478545425135    -0.534212546800     1.007825032070
           H          1.315897481430    -0.745768758105     1.149606795557     1.007825032070
           C          0.948891048654    -0.467927362608     0.175796823232    12.000000000000
           H          0.338465043979    -2.483011289303    -0.303191295004     1.007825032070
           H         -0.485029017799    -1.246694914591    -1.241563385927     1.007825032070
           H         -0.926681770141    -1.511828872405     0.435626999477     1.007825032070
           C         -0.109692347686    -1.502232365628    -0.266213379501    12.000000000000

  Running in c1 symmetry.

  Rotational constants: A =      0.38386  B =      0.19395  C =      0.14241 [cm^-1]
  Rotational constants: A =  11507.80198  B =   5814.35778  C =   4269.39347 [MHz]
  Nuclear repulsion =  134.481409197267709

  Charge       = 0
  Multiplicity = 1
  Electrons    = 34
  Nalpha       = 17
  Nbeta        = 17

  ==> Algorithm <==

  SCF Algorithm Type is DF.
  DIIS enabled.
  MOM disabled.
  Fractional occupation disabled.
  Guess Type is READ.
  Energy threshold   = 1.00e-08
  Density threshold  = 1.00e-08
  Integral threshold = 0.00e+00

  ==> Primary Basis <==

  Basis Set: CC-PVDZ
    Number of shells: 54
    Number of basis function: 106
    Number of Cartesian functions: 110
    Spherical Harmonics?: true
    Max angular momentum: 2

  ==> DFT Potential <==

   => B3LYP Composite Functional <= 

    B3LYP Hybrid-GGA Exchange-Correlation Functional (VWN1-RPA)

    P.J. Stephens et. al., J. Phys. Chem., 98, 11623-11627, 1994

    Points   =           5000
    Deriv    =              1
    GGA      =           TRUE
    Meta     =          FALSE

    X_LRC        =          FALSE
    X_Hybrid     =           TRUE
    X_Alpha      =   2.000000E-01
    X_Omega      =   0.000000E+00
    C_LRC        =          FALSE
    C_Hybrid     =          FALSE
    C_Alpha      =   0.000000E+00
    C_Omega      =   0.000000E+00

   => Exchange Functionals <=

    0.8000    B3_X
    0.2000      HF 

   => Correlation Functionals <=

    0.1900 VWN3RPA_C
    0.8100   LYP_C

   => Molecular Quadrature <=

    Radial Scheme    =       TREUTLER
    Pruning Scheme   =           FLAT
    Nuclear Scheme   =       TREUTLER

    BS radius alpha  =              1
    Pruning alpha    =              1
    Radial Points    =             75
    Spherical Points =            302
    Total Points     =         312704
    Total Blocks     =            263
    Max Points       =           4932
    Max Functions    =            106

  ==> Pre-Iterations <==

   -------------------------------------------------------
    Irrep   Nso     Nmo     Nalpha   Nbeta   Ndocc  Nsocc
   -------------------------------------------------------
     A        106     106       0       0       0       0
   -------------------------------------------------------
    Total     106     106      17      17      17       0
   -------------------------------------------------------

  ==> Integral Setup <==

  ==> DFJK: Density-Fitted J/K Matrices <==

    J tasked:                  Yes
    K tasked:                  Yes
    wK tasked:                  No
    OpenMP threads:              1
    Integrals threads:           1
    Memory (MB):               715
    Algorithm:                Core
    Integral Cache:           NONE
    Schwarz Cutoff:          1E-12
    Fitting Condition:       1E-12

   => Auxiliary Basis Set <=

  Basis Set: 
    Number of shells: 186
    Number of basis function: 510
    Number of Cartesian functions: 574
    Spherical Harmonics?: true
    Max angular momentum: 3

  Minimum eigenvalue in the overlap matrix is 2.9862647674E-03.
  Using Symmetric Orthogonalization.
  SCF Guess was Projection but file not found.
  Switching over to SAD guess.

  SCF Guess: Superposition of Atomic Densities via on-the-fly atomic UHF.

  ==> Iterations <==

                           Total Energy        Delta E     RMS |[F,P]|

   @DF-RKS iter   0:  -158.95584702627428   -1.58956e+02   3.29275e-02 
   @DF-RKS iter   1:  -158.25433401265877    7.01513e-01   5.42435e-03 
   @DF-RKS iter   2:  -158.17366688135209    8.06671e-02   6.58269e-03 DIIS
   @DF-RKS iter   3:  -158.44023243353473   -2.66566e-01   3.94922e-04 DIIS
   @DF-RKS iter   4:  -158.44111758171098   -8.85148e-04   1.16466e-04 DIIS
   @DF-RKS iter   5:  -158.44118503708398   -6.74554e-05   4.58994e-05 DIIS
   @DF-RKS iter   6:  -158.44119636499278   -1.13279e-05   7.62542e-06 DIIS
   @DF-RKS iter   7:  -158.44119672516970   -3.60177e-07   9.54236e-07 DIIS
   @DF-RKS iter   8:  -158.44119673113181   -5.96211e-09   1.78573e-07 DIIS
   @DF-RKS iter   9:  -158.44119673128230   -1.50493e-10   8.85439e-08 DIIS
   @DF-RKS iter  10:  -158.44119673132485   -4.25473e-11   1.43550e-08 DIIS
   @DF-RKS iter  11:  -158.44119673132568   -8.24230e-13   1.96303e-09 DIIS

  ==> Post-Iterations <==

    Orbital Energies (a.u.)
    -----------------------

    Doubly Occupied:                                                      

       1A    -10.172044     2A    -10.171861     3A    -10.165567  
       4A    -10.165531     5A     -0.792495     6A     -0.713151  
       7A     -0.647598     8A     -0.557588     9A     -0.472655  
      10A     -0.450667    11A     -0.406357    12A     -0.385697  
      13A     -0.375039    14A     -0.369182    15A     -0.319504  
      16A     -0.318023    17A     -0.312888  

    Virtual:                                                              

      18A      0.056987    19A      0.093670    20A      0.097376  
      21A      0.110008    22A      0.127773    23A      0.130678  
      24A      0.156465    25A      0.179071    26A      0.182280  
      27A      0.185960    28A      0.237842    29A      0.239642  
      30A      0.295832    31A      0.410904    32A      0.420303  
      33A      0.429050    34A      0.434844    35A      0.465815  
      36A      0.504317    37A      0.511056    38A      0.585261  
      39A      0.590788    40A      0.620872    41A      0.648854  
      42A      0.655672    43A      0.662977    44A      0.667960  
      45A      0.668871    46A      0.692535    47A      0.697246  
      48A      0.712902    49A      0.734995    50A      0.748070  
      51A      0.751104    52A      0.857049    53A      0.862611  
      54A      0.871103    55A      0.958175    56A      1.069305  
      57A      1.201570    58A      1.243530    59A      1.251703  
      60A      1.260660    61A      1.273699    62A      1.334084  
      63A      1.382605    64A      1.506664    65A      1.523143  
      66A      1.546890    67A      1.558641    68A      1.583768  
      69A      1.612874    70A      1.640535    71A      1.658269  
      72A      1.677987    73A      1.678281    74A      1.685814  
      75A      1.691818    76A      1.716628    77A      1.719621  
      78A      1.724739    79A      1.747356    80A      1.794767  
      81A      1.815767    82A      1.876337    83A      1.887281  
      84A      1.920415    85A      1.933277    86A      2.003920  
      87A      2.024336    88A      2.104206    89A      2.124982  
      90A      2.196361    91A      2.211751    92A      2.224481  
      93A      2.240604    94A      2.296941    95A      2.368816  
      96A      2.404537    97A      2.471779    98A      2.489371  
      99A      2.491892   100A      2.498118   101A      2.585365  
     102A      2.612824   103A      2.622082   104A      2.631230  
     105A      2.643561   106A      2.773985  

    Final Occupation by Irrep:
              A 
    DOCC [    17 ]

  Energy converged.

  @DF-RKS Final Energy:  -158.44119673132568

   => Energetics <=

    Nuclear Repulsion Energy =            134.4814091972677090
    One-Electron Energy =                -477.4020187858312170
    Two-Electron Energy =                 205.1400907228516530
    DFT Exchange-Correlation Energy =     -20.6606778656138523
    Empirical Dispersion Energy =           0.0000000000000000
    PCM Polarization Energy =               0.0000000000000000
    EFP Energy =                            0.0000000000000000
    Total Energy =                       -158.4411967313256753


  Saving occupied orbitals to File 180.

*** tstop() called on lski1497 at Tue Feb 21 18:50:41 2017
Module time:
	user time   =     124.35 seconds =       2.07 minutes
	system time =       1.54 seconds =       0.03 minutes
	total time  =        145 seconds =       2.42 minutes
Total time:
	user time   =     293.91 seconds =       4.90 minutes
	system time =       3.95 seconds =       0.07 minutes
	total time  =        347 seconds =       5.78 minutes


Properties will be evaluated at   0.000000,   0.000000,   0.000000 Bohr

Properties computed using the SCF density matrix

  Nuclear Dipole Moment: (a.u.)
     X:    -0.9573      Y:    -0.3669      Z:    -0.3104

  Electronic Dipole Moment: (a.u.)
     X:     0.9676      Y:     0.3705      Z:     0.3133

  Dipole Moment: (a.u.)
     X:     0.0103      Y:     0.0036      Z:     0.0029     Total:     0.0113

  Dipole Moment: (Debye)
     X:     0.0261      Y:     0.0092      Z:     0.0075     Total:     0.0287


*** tstart() called on lski1497
*** at Tue Feb 21 18:50:41 2017


         ------------------------------------------------------------
                                   SCF GRAD                          
                          Rob Parrish, Justin Turney,                
                       Andy Simmonett, and Alex Sokolov              
         ------------------------------------------------------------

  ==> Geometry <==

    Molecular point group: c1
    Full point group: C1

    Geometry (in Angstrom), charge = 0, multiplicity = 1:

       Center              X                  Y                   Z               Mass       
    ------------   -----------------  -----------------  -----------------  -----------------
           H         -1.696258877234     0.410096789320     0.536415265926     1.007825032070
           H         -1.477001868942     2.046879578196    -0.065617870948     1.007825032070
           H         -1.255298714502     0.675146138889    -1.140925050495     1.007825032070
           C         -1.124667940232     1.028881564531    -0.133295711730    12.000000000000
           H          0.923873348913     1.603777828198    -0.426408764324     1.007825032070
           H          0.482097234032     1.338557415118     1.259192010036     1.007825032070
           C          0.371232802458     0.974149343783     0.251517979435    12.000000000000
           H          1.758765086006    -0.478545425135    -0.534212546800     1.007825032070
           H          1.315897481430    -0.745768758105     1.149606795557     1.007825032070
           C          0.948891048654    -0.467927362608     0.175796823232    12.000000000000
           H          0.338465043979    -2.483011289303    -0.303191295004     1.007825032070
           H         -0.485029017799    -1.246694914591    -1.241563385927     1.007825032070
           H         -0.926681770141    -1.511828872405     0.435626999477     1.007825032070
           C         -0.109692347686    -1.502232365628    -0.266213379501    12.000000000000

  Nuclear repulsion =  134.481409197267709

  ==> Basis Set <==

  Basis Set: CC-PVDZ
    Number of shells: 54
    Number of basis function: 106
    Number of Cartesian functions: 110
    Spherical Harmonics?: true
    Max angular momentum: 2

  ==> DFJKGrad: Density-Fitted SCF Gradients <==

    Gradient:                    1
    J tasked:                  Yes
    K tasked:                  Yes
    wK tasked:                  No
    OpenMP threads:              1
    Integrals threads:           1
    Memory (MB):               715
    Schwarz Cutoff:          0E+00
    Fitting Condition:       1E-12

   => Auxiliary Basis Set <=

  Basis Set: 
    Number of shells: 186
    Number of basis function: 510
    Number of Cartesian functions: 574
    Spherical Harmonics?: true
    Max angular momentum: 3

  ==> DFT Potential <==

   => B3LYP Composite Functional <= 

    B3LYP Hybrid-GGA Exchange-Correlation Functional (VWN1-RPA)

    P.J. Stephens et. al., J. Phys. Chem., 98, 11623-11627, 1994

    Points   =           5000
    Deriv    =              1
    GGA      =           TRUE
    Meta     =          FALSE

    X_LRC        =          FALSE
    X_Hybrid     =           TRUE
    X_Alpha      =   2.000000E-01
    X_Omega      =   0.000000E+00
    C_LRC        =          FALSE
    C_Hybrid     =          FALSE
    C_Alpha      =   0.000000E+00
    C_Omega      =   0.000000E+00

   => Exchange Functionals <=

    0.8000    B3_X
    0.2000      HF 

   => Correlation Functionals <=

    0.1900 VWN3RPA_C
    0.8100   LYP_C

   => Molecular Quadrature <=

    Radial Scheme    =       TREUTLER
    Pruning Scheme   =           FLAT
    Nuclear Scheme   =       TREUTLER

    BS radius alpha  =              1
    Pruning alpha    =              1
    Radial Points    =             75
    Spherical Points =            302
    Total Points     =         312704
    Total Blocks     =            263
    Max Points       =           4932
    Max Functions    =            106


  -Total Gradient:
     Atom            X                  Y                   Z
    ------   -----------------  -----------------  -----------------
       1        0.012380763402     0.006418686944    -0.008274161405
       2        0.007498114783    -0.013658661961    -0.000225323284
       3        0.006316025826     0.002924825513     0.014837924797
       4       -0.024360576516    -0.009068334077    -0.008082417466
       5       -0.008946680452    -0.013278383897     0.006535393506
       6       -0.003608638440    -0.010219711447    -0.013814186321
       7        0.017378017684     0.020201765030     0.008095760711
       8       -0.015672558443     0.002836959404     0.007727612398
       9       -0.010175201017     0.006012661934    -0.013119925500
      10        0.026894164914    -0.003528596086     0.006513280392
      11       -0.004099039335     0.015293546542     0.001346299681
      12        0.007089737969     0.000945642299     0.014783827110
      13        0.012540153448     0.004611732158    -0.007986036378
      14       -0.023230360823    -0.009491485165    -0.008336941488


*** tstop() called on lski1497 at Tue Feb 21 18:51:30 2017
Module time:
	user time   =      41.06 seconds =       0.68 minutes
	system time =       0.71 seconds =       0.01 minutes
	total time  =         49 seconds =       0.82 minutes
Total time:
	user time   =     335.00 seconds =       5.58 minutes
	system time =       4.66 seconds =       0.08 minutes
	total time  =        396 seconds =       6.60 minutes

			-----------------------------------------
			 OPTKING 2.0: for geometry optimizations 
			  - R.A. King,  Bethel University        
			-----------------------------------------

	Previous internal coordinate definitions found.
	---Fragment 1 Geometry and Gradient---
	 H          -3.2054647284        0.7749706198        1.0136779461
	 H          -2.7911290301        3.8680418298       -0.1239998055
	 H          -2.3721707854        1.2758413022       -2.1560358836
	 C          -2.1253143975        1.9443043801       -0.2518923899
	 H           1.7458676109        3.0307008733       -0.8057957852
	 H           0.9110317417        2.5295069277        2.3795280477
	 C           0.7015283282        1.8408754723        0.4753000986
	 H           3.3235843446       -0.9043197957       -1.0095154102
	 H           2.4866858589       -1.4092987113        2.1724420041
	 C           1.7931442119       -0.8842545654        0.3322078509
	 H           0.6396062387       -4.6922113216       -0.5729485134
	 H          -0.9165720101       -2.3559119598       -2.3462147760
	 H          -1.7511747579       -2.8569425286        0.8232157251
	 C          -0.2072884960       -2.8388077590       -0.5030703802
	             0.0123807634        0.0064186869       -0.0082741614
	             0.0074981148       -0.0136586620       -0.0002253233
	             0.0063160258        0.0029248255        0.0148379248
	            -0.0243605765       -0.0090683341       -0.0080824175
	            -0.0089466805       -0.0132783839        0.0065353935
	            -0.0036086384       -0.0102197114       -0.0138141863
	             0.0173780177        0.0202017650        0.0080957607
	            -0.0156725584        0.0028369594        0.0077276124
	            -0.0101752010        0.0060126619       -0.0131199255
	             0.0268941649       -0.0035285961        0.0065132804
	            -0.0040990393        0.0152935465        0.0013462997
	             0.0070897380        0.0009456423        0.0147838271
	             0.0125401534        0.0046117322       -0.0079860364
	            -0.0232303608       -0.0094914852       -0.0083369415

	---Fragment 1 Intrafragment Coordinates---
	 - Coordinate -           - BOHR/RAD -       - ANG/DEG -
	 R(1,4)           =         2.033651	       1.076162
	 R(2,4)           =         2.039714	       1.079370
	 R(3,4)           =         2.033112	       1.075876
	 R(4,7)           =         2.920710	       1.545573
	 R(5,7)           =         2.036550	       1.077696
	 R(6,7)           =         2.035728	       1.077261
	 R(7,10)          =         2.939121	       1.555316
	 R(8,10)          =         2.035404	       1.077090
	 R(9,10)          =         2.035469	       1.077124
	 R(10,14)         =         2.918852	       1.544590
	 R(11,14)         =         2.038926	       1.078953
	 R(12,14)         =         2.033089	       1.075865
	 R(13,14)         =         2.035423	       1.077100
	 B(1,4,2)         =         1.906996	     109.262819
	 B(1,4,3)         =         1.906357	     109.226184
	 B(1,4,7)         =         1.916399	     109.801602
	 B(2,4,3)         =         1.906235	     109.219225
	 B(2,4,7)         =         1.911046	     109.494857
	 B(3,4,7)         =         1.916711	     109.819434
	 B(4,7,5)         =         1.895479	     108.602973
	 B(4,7,6)         =         1.897077	     108.694481
	 B(4,7,10)        =         1.960792	     112.345128
	 B(5,7,6)         =         1.915601	     109.755854
	 B(5,7,10)        =         1.897175	     108.700141
	 B(6,7,10)        =         1.897541	     108.721079
	 B(7,10,8)        =         1.897053	     108.693125
	 B(7,10,9)        =         1.898321	     108.765810
	 B(7,10,14)       =         1.960878	     112.350017
	 B(8,10,9)        =         1.914765	     109.707926
	 B(8,10,14)       =         1.896611	     108.667784
	 B(9,10,14)       =         1.896005	     108.633100
	 B(10,14,11)      =         1.911170	     109.501992
	 B(10,14,12)      =         1.917159	     109.845142
	 B(10,14,13)      =         1.917014	     109.836823
	 B(11,14,12)      =         1.906829	     109.253236
	 B(11,14,13)      =         1.906347	     109.225651
	 B(12,14,13)      =         1.905215	     109.160796
	 D(1,4,7,5)       =        -3.135834	    -179.670058
	 D(1,4,7,6)       =        -1.052482	     -60.302768
	 D(1,4,7,10)      =         1.048201	      60.057510
	 D(2,4,7,5)       =        -1.042104	     -59.708186
	 D(2,4,7,6)       =         1.041248	      59.659104
	 D(2,4,7,10)      =        -3.141254	    -179.980618
	 D(3,4,7,5)       =         1.050882	      60.211116
	 D(3,4,7,6)       =         3.134234	     179.578406
	 D(3,4,7,10)      =        -1.048268	     -60.061316
	 D(4,7,10,8)      =         2.099754	     120.307058
	 D(4,7,10,9)      =        -2.099455	    -120.289893
	 D(4,7,10,14)     =         0.000198	       0.011361
	 D(5,7,10,8)      =         0.001586	       0.090878
	 D(5,7,10,9)      =         2.085562	     119.493927
	 D(5,7,10,14)     =        -2.097970	    -120.204818
	 D(6,7,10,8)      =        -2.083016	    -119.348045
	 D(6,7,10,9)      =         0.000960	       0.055004
	 D(6,7,10,14)     =         2.100613	     120.356258
	 D(7,10,14,11)    =         3.141564	     179.998357
	 D(7,10,14,12)    =         1.047494	      60.016986
	 D(7,10,14,13)    =        -1.048233	     -60.059308
	 D(8,10,14,11)    =         1.041752	      59.688000
	 D(8,10,14,12)    =        -1.052318	     -60.293371
	 D(8,10,14,13)    =         3.135141	     179.630335
	 D(9,10,14,11)    =        -1.040629	     -59.623642
	 D(9,10,14,12)    =        -3.134699	    -179.605012
	 D(9,10,14,13)    =         1.052760	      60.318693

	Current energy   :      -158.4411967313

	Energy change for the previous step:
		Projected    :        -0.0143694489
		Actual       :        -0.0108091159

	Performing BFGS update.
	Previous computed or guess Hessian on step 1.
	Steps to be used in Hessian update: 1
	Adding user-defined constraint: Fragment 1; Coordinate 49:
		Value =     0.000198; Fixed value    =     0.000020
		Force =    -0.000094; Force constant =     0.525000
	Removing off-diagonal coupling between coordinate 49 and others.
	Taking RFO optimization step.
	Going to follow RFO solution 1.
	Using RFO vector 1.

	Determining step-restricting scale parameter for RS-RFO.
	Maximum step size allowed    0.10000

	 Iter      |step|        alpha        rfo_root  
	------------------------------------------------
	    0     0.21174       1.00000           1
	    1     0.15806       8.35556           1
	    2     0.12275      22.72199           1
	    3     0.10545      37.20482           1
	    4     0.10044      43.12619           1
	    5     0.10000      43.69496           1
	------------------------------------------------
	Norm of target step-size    0.10000
	Projected energy change by RFO approximation:        -0.0068682526

	Back-transformation to cartesian coordinates...
	Successfully converged to displaced geometry.

	--- Internal Coordinate Step in ANG or DEG, aJ/ANG or AJ/DEG ---
	 ---------------------------------------------------------------------------
	   Coordinate                Previous        Force       Change         New 
	   ----------                --------       ------       ------       ------
	    1 R(1,4)          =      1.076162     0.127005     0.013970     1.090132
	    2 R(2,4)          =      1.079370     0.126413     0.012710     1.092080
	    3 R(3,4)          =      1.075876     0.128731     0.014131     1.090007
	    4 R(4,7)          =      1.545573     0.014945    -0.000079     1.545494
	    5 R(5,7)          =      1.077696     0.135583     0.013632     1.091328
	    6 R(6,7)          =      1.077261     0.138002     0.013862     1.091122
	    7 R(7,10)         =      1.555316     0.148154     0.008338     1.563654
	    8 R(8,10)         =      1.077090     0.139288     0.013983     1.091073
	    9 R(9,10)         =      1.077124     0.139066     0.013963     1.091087
	   10 R(10,14)        =      1.544590     0.018732     0.000358     1.544948
	   11 R(11,14)        =      1.078953     0.128942     0.012951     1.091904
	   12 R(12,14)        =      1.075865     0.128946     0.014154     1.090018
	   13 R(13,14)        =      1.077100     0.121574     0.013454     1.090553
	   14 B(1,4,2)        =    109.262819    -0.000322    -0.463795   108.799024
	   15 B(1,4,3)        =    109.226184    -0.000303    -0.549570   108.676614
	   16 B(1,4,7)        =    109.801602     0.000420     0.614306   110.415908
	   17 B(2,4,3)        =    109.219225    -0.000316    -0.449912   108.769314
	   18 B(2,4,7)        =    109.494857     0.000100     0.226607   109.721465
	   19 B(3,4,7)        =    109.819434     0.000412     0.597136   110.416570
	   20 B(4,7,5)        =    108.602973    -0.000655    -0.395351   108.207623
	   21 B(4,7,6)        =    108.694481    -0.000662    -0.407359   108.287122
	   22 B(4,7,10)       =    112.345128     0.002259     1.422927   113.768055
	   23 B(5,7,6)        =    109.755854     0.000128    -0.200748   109.555106
	   24 B(5,7,10)       =    108.700141    -0.000543    -0.223805   108.476336
	   25 B(6,7,10)       =    108.721079    -0.000542    -0.225181   108.495899
	   26 B(7,10,8)       =    108.693125    -0.000542    -0.219448   108.473677
	   27 B(7,10,9)       =    108.765810    -0.000551    -0.242762   108.523048
	   28 B(7,10,14)      =    112.350017     0.002263     1.428126   113.778142
	   29 B(8,10,9)       =    109.707926     0.000132    -0.194724   109.513201
	   30 B(8,10,14)      =    108.667784    -0.000661    -0.405982   108.261802
	   31 B(9,10,14)      =    108.633100    -0.000658    -0.395528   108.237572
	   32 B(10,14,11)     =    109.501992     0.000104     0.231905   109.733897
	   33 B(10,14,12)     =    109.845142     0.000413     0.598055   110.443197
	   34 B(10,14,13)     =    109.836823     0.000411     0.599089   110.435912
	   35 B(11,14,12)     =    109.253236    -0.000320    -0.457117   108.796120
	   36 B(11,14,13)     =    109.225651    -0.000319    -0.458315   108.767336
	   37 B(12,14,13)     =    109.160796    -0.000298    -0.539656   108.621140
	   38 D(1,4,7,5)      =   -179.670058     0.000086     0.394385  -179.275673
	   39 D(1,4,7,6)      =    -60.302768    -0.000053    -0.300636   -60.603404
	   40 D(1,4,7,10)     =     60.057510     0.000017     0.043481    60.100991
	   41 D(2,4,7,5)      =    -59.708186     0.000069     0.346712   -59.361474
	   42 D(2,4,7,6)      =     59.659104    -0.000070    -0.348308    59.310796
	   43 D(2,4,7,10)     =   -179.980618    -0.000000    -0.004192  -179.984810
	   44 D(3,4,7,5)      =     60.211116     0.000053     0.305248    60.516364
	   45 D(3,4,7,6)      =    179.578406    -0.000086    -0.389772   179.188634
	   46 D(3,4,7,10)     =    -60.061316    -0.000017    -0.045656   -60.106972
	   47 D(4,7,10,8)     =    120.307058     0.000055     0.252651   120.559709
	   48 D(4,7,10,9)     =   -120.289893    -0.000054    -0.246303  -120.536197
	   49 D(4,7,10,14)    =      0.011361     0.000000     0.002503     0.013865
	   50 D(5,7,10,8)     =      0.090878    -0.000000    -0.003554     0.087324
	   51 D(5,7,10,9)     =    119.493927    -0.000109    -0.502509   118.991418
	   52 D(5,7,10,14)    =   -120.204818    -0.000055    -0.253702  -120.458520
	   53 D(6,7,10,8)     =   -119.348045     0.000109     0.494985  -118.853060
	   54 D(6,7,10,9)     =      0.055004    -0.000001    -0.003969     0.051035
	   55 D(6,7,10,14)    =    120.356258     0.000054     0.244838   120.601096
	   56 D(7,10,14,11)   =    179.998357     0.000001     0.007809   180.006166
	   57 D(7,10,14,12)   =     60.016986     0.000018     0.053525    60.070511
	   58 D(7,10,14,13)   =    -60.059308    -0.000016    -0.039096   -60.098404
	   59 D(8,10,14,11)   =     59.688000    -0.000069    -0.346607    59.341393
	   60 D(8,10,14,12)   =    -60.293371    -0.000052    -0.300891   -60.594262
	   61 D(8,10,14,13)   =    179.630335    -0.000086    -0.393511   179.236823
	   62 D(9,10,14,11)   =    -59.623642     0.000069     0.340070   -59.283572
	   63 D(9,10,14,12)   =   -179.605012     0.000086     0.385786  -179.219226
	   64 D(9,10,14,13)   =     60.318693     0.000052     0.293166    60.611859
	 ---------------------------------------------------------------------------
	 Forces used to impose fixed constraints are not included.
	  Forces zeroed: 49 

  ==> Convergence Check <==

  Measures of convergence in internal coordinates in au.
  Criteria marked as inactive (o), active & met (*), and active & unmet ( ).
  ---------------------------------------------------------------------------------------------
   Step     Total Energy     Delta E     MAX Force     RMS Force      MAX Disp      RMS Disp   
  ---------------------------------------------------------------------------------------------
    Convergence Criteria    1.00e-06 *    3.00e-04 *             o    1.20e-03 *             o
  ---------------------------------------------------------------------------------------------
      2    -158.44119673   -1.08e-02      2.97e-02      9.43e-03 o    2.67e-02      1.25e-02 o  ~
  ---------------------------------------------------------------------------------------------

	Writing optimization data to binary file.
	Structure for next step:
	Cartesian Geometry (in Angstrom)
	    H    -1.7203247875   0.4582063855   0.5789520077
	    H    -1.4723422153   2.1023142036  -0.0405028528
	    H    -1.3178821870   0.7091287699  -1.1276822738
	    C    -1.1372041080   1.0654987246  -0.1135461521
	    H     0.9142355837   1.6074550698  -0.4761038228
	    H     0.5105550215   1.3558741679   1.2421596601
	    C     0.3674613237   0.9784484186   0.2284426209
	    H     1.7527058707  -0.4833097119  -0.5845822359
	    H     1.3476986371  -0.7366312678   1.1323882615
	    C     0.9481896764  -0.4713711567   0.1523374647
	    H     0.3806447508  -2.5223769955  -0.2830728115
	    H    -0.5066581531  -1.3157751355  -1.2339490326
	    H    -0.9093204254  -1.5668100668   0.4723426431
	    C    -0.0931674786  -1.5391717353  -0.2504556076
			--------------------------
			 OPTKING Finished Execution 
			--------------------------

    Structure for next step:
    Molecular point group: c1
    Full point group: C1

    Geometry (in Angstrom), charge = 0, multiplicity = 1:

    H           -1.720233154941     0.458105493884     0.581039104828
    H           -1.472250582746     2.102213311918    -0.038415755604
    H           -1.317790554406     0.709027878251    -1.125595176624
    C           -1.137112475471     1.065397832909    -0.111459054949
    H            0.914327216294     1.607354178116    -0.474016725675
    H            0.510646654059     1.355773276278     1.244246757242
    C            0.367552956216     0.978347526912     0.230529718059
    H            1.752797503280    -0.483410603561    -0.582495138738
    H            1.347790269647    -0.736732159457     1.134475358704
    C            0.948281308924    -0.471472048336     0.154424561835
    H            0.380736383332    -2.522477887155    -0.280985714380
    H           -0.506566520566    -1.315876027184    -1.231861935413
    H           -0.909228792811    -1.566910958487     0.474429740216
    C           -0.093075845988    -1.539272626934    -0.248368510402

gradient() will perform analytic gradient computation.

*** tstart() called on lski1497
*** at Tue Feb 21 18:51:30 2017


         ---------------------------------------------------------
                                   SCF
            by Justin Turney, Rob Parrish, and Andy Simmonett
                              RKS Reference
                        1 Threads,   1000 MiB Core
         ---------------------------------------------------------

  ==> Geometry <==

    Molecular point group: c1
    Full point group: C1

    Geometry (in Angstrom), charge = 0, multiplicity = 1:

       Center              X                  Y                   Z               Mass       
    ------------   -----------------  -----------------  -----------------  -----------------
           H         -1.720233154941     0.458105493884     0.581039104828     1.007825032070
           H         -1.472250582746     2.102213311918    -0.038415755604     1.007825032070
           H         -1.317790554406     0.709027878251    -1.125595176624     1.007825032070
           C         -1.137112475471     1.065397832909    -0.111459054949    12.000000000000
           H          0.914327216294     1.607354178116    -0.474016725675     1.007825032070
           H          0.510646654059     1.355773276278     1.244246757242     1.007825032070
           C          0.367552956216     0.978347526912     0.230529718059    12.000000000000
           H          1.752797503280    -0.483410603561    -0.582495138738     1.007825032070
           H          1.347790269647    -0.736732159457     1.134475358704     1.007825032070
           C          0.948281308924    -0.471472048336     0.154424561835    12.000000000000
           H          0.380736383332    -2.522477887155    -0.280985714380     1.007825032070
           H         -0.506566520566    -1.315876027184    -1.231861935413     1.007825032070
           H         -0.909228792811    -1.566910958487     0.474429740216     1.007825032070
           C         -0.093075845988    -1.539272626934    -0.248368510402    12.000000000000

  Running in c1 symmetry.

  Rotational constants: A =      0.38610  B =      0.18552  C =      0.13841 [cm^-1]
  Rotational constants: A =  11575.04656  B =   5561.84132  C =   4149.29759 [MHz]
  Nuclear repulsion =  133.096989655371004

  Charge       = 0
  Multiplicity = 1
  Electrons    = 34
  Nalpha       = 17
  Nbeta        = 17

  ==> Algorithm <==

  SCF Algorithm Type is DF.
  DIIS enabled.
  MOM disabled.
  Fractional occupation disabled.
  Guess Type is READ.
  Energy threshold   = 1.00e-08
  Density threshold  = 1.00e-08
  Integral threshold = 0.00e+00

  ==> Primary Basis <==

  Basis Set: CC-PVDZ
    Number of shells: 54
    Number of basis function: 106
    Number of Cartesian functions: 110
    Spherical Harmonics?: true
    Max angular momentum: 2

  ==> DFT Potential <==

   => B3LYP Composite Functional <= 

    B3LYP Hybrid-GGA Exchange-Correlation Functional (VWN1-RPA)

    P.J. Stephens et. al., J. Phys. Chem., 98, 11623-11627, 1994

    Points   =           5000
    Deriv    =              1
    GGA      =           TRUE
    Meta     =          FALSE

    X_LRC        =          FALSE
    X_Hybrid     =           TRUE
    X_Alpha      =   2.000000E-01
    X_Omega      =   0.000000E+00
    C_LRC        =          FALSE
    C_Hybrid     =          FALSE
    C_Alpha      =   0.000000E+00
    C_Omega      =   0.000000E+00

   => Exchange Functionals <=

    0.8000    B3_X
    0.2000      HF 

   => Correlation Functionals <=

    0.1900 VWN3RPA_C
    0.8100   LYP_C

   => Molecular Quadrature <=

    Radial Scheme    =       TREUTLER
    Pruning Scheme   =           FLAT
    Nuclear Scheme   =       TREUTLER

    BS radius alpha  =              1
    Pruning alpha    =              1
    Radial Points    =             75
    Spherical Points =            302
    Total Points     =         312723
    Total Blocks     =            264
    Max Points       =           4923
    Max Functions    =            106

  ==> Pre-Iterations <==

   -------------------------------------------------------
    Irrep   Nso     Nmo     Nalpha   Nbeta   Ndocc  Nsocc
   -------------------------------------------------------
     A        106     106       0       0       0       0
   -------------------------------------------------------
    Total     106     106      17      17      17       0
   -------------------------------------------------------

  ==> Integral Setup <==

  ==> DFJK: Density-Fitted J/K Matrices <==

    J tasked:                  Yes
    K tasked:                  Yes
    wK tasked:                  No
    OpenMP threads:              1
    Integrals threads:           1
    Memory (MB):               715
    Algorithm:                Core
    Integral Cache:           NONE
    Schwarz Cutoff:          1E-12
    Fitting Condition:       1E-12

   => Auxiliary Basis Set <=

  Basis Set: 
    Number of shells: 186
    Number of basis function: 510
    Number of Cartesian functions: 574
    Spherical Harmonics?: true
    Max angular momentum: 3

  Minimum eigenvalue in the overlap matrix is 3.1337499342E-03.
  Using Symmetric Orthogonalization.
  SCF Guess was Projection but file not found.
  Switching over to SAD guess.

  SCF Guess: Superposition of Atomic Densities via on-the-fly atomic UHF.

  ==> Iterations <==

                           Total Energy        Delta E     RMS |[F,P]|

   @DF-RKS iter   0:  -158.87888115948084   -1.58879e+02   3.21185e-02 
