    -----------------------------------------------------------------------
          Psi4: An Open-Source Ab Initio Electronic Structure Package
                              Psi4 1.0.0 Driver

                          Git: Rev {master} 6a9a71b 

    J. M. Turney, A. C. Simmonett, R. M. Parrish, E. G. Hohenstein,
    F. A. Evangelista, J. T. Fermann, B. J. Mintz, L. A. Burns, J. J. Wilke,
    M. L. Abrams, N. J. Russ, M. L. Leininger, C. L. Janssen, E. T. Seidl,
    W. D. Allen, H. F. Schaefer, R. A. King, E. F. Valeev, C. D. Sherrill,
    and T. D. Crawford, WIREs Comput. Mol. Sci. 2, 556-565 (2012)
    (doi: 10.1002/wcms.93)

                         Additional Contributions by
    A. E. DePrince, U. Bozkaya, A. Yu. Sokolov, D. G. A. Smith, R. Di Remigio,
    R. M. Richard, J. F. Gonthier, H. R. McAlexander, M. Saitow, and
    B. P. Pritchard
    -----------------------------------------------------------------------


    Psi4 started on: Thu Feb 16 16:22:31 2017

    Process ID:   1308
    PSI4DATADIR: /Users/sternc1/anaconda/share/psi4
    Memory level set to 256.000 MB

  ==> Input File <==

--------------------------------------------------------------------------

memory 1000 mb

molecule butane {
  symmetry C1
  0 1 
  H      1.604   0.760   -8.260
  H      1.745   2.388   -8.880
  H      2.043   1.024   -9.930
  C      2.142   1.395   -8.932
  H      4.169   2.051   -9.210
  H      3.731   1.788   -7.539
  C      3.631   1.416   -8.537
  H      4.566   -0.301   -7.648
  H      3.434   -0.688   -8.921
  C      4.203   -0.012   -8.612
  H      5.756   -1.042   -9.680
  H      6.128   0.626   -9.320
  H      4.996   0.239   -10.593
  C      5.358   -0.050   -9.629
  units Angstrom
}

dih_string = "4 7 10 14 120"
set optking fixed_dihedral = $dih_string

optimize('MP2/6-31G(d)')
--------------------------------------------------------------------------

  Memory set to 1000.000 MiB by Python script.
gradient() will perform analytic gradient computation.
    SCF Algorithm Type (re)set to DF.

*** tstart() called on lski1497
*** at Thu Feb 16 16:22:33 2017


         ---------------------------------------------------------
                                   SCF
            by Justin Turney, Rob Parrish, and Andy Simmonett
                              RHF Reference
                        1 Threads,   1000 MiB Core
         ---------------------------------------------------------

  ==> Geometry <==

    Molecular point group: c1
    Full point group: C1

    Geometry (in Angstrom), charge = 0, multiplicity = 1:

       Center              X                  Y                   Z               Mass       
    ------------   -----------------  -----------------  -----------------  -----------------
           H         -2.226671480213     0.073227204259     0.679751134783     1.007825032070
           H         -2.085671480213     1.701227204259     0.059751134783     1.007825032070
           H         -1.787671480213     0.337227204259    -0.990248865217     1.007825032070
           C         -1.688671480213     0.708227204259     0.007751134783    12.000000000000
           H          0.338328519787     1.364227204259    -0.270248865217     1.007825032070
           H         -0.099671480213     1.101227204259     1.400751134783     1.007825032070
           C         -0.199671480213     0.729227204259     0.402751134783    12.000000000000
           H          0.735328519787    -0.987772795741     1.291751134783     1.007825032070
           H         -0.396671480213    -1.374772795741     0.018751134783     1.007825032070
           C          0.372328519787    -0.698772795741     0.327751134783    12.000000000000
           H          1.925328519787    -1.728772795741    -0.740248865217     1.007825032070
           H          2.297328519787    -0.060772795741    -0.380248865217     1.007825032070
           H          1.165328519787    -0.447772795741    -1.653248865217     1.007825032070
           C          1.527328519787    -0.736772795741    -0.689248865217    12.000000000000

  Running in c1 symmetry.

  Rotational constants: A =      0.58956  B =      0.13123  C =      0.13113 [cm^-1]
  Rotational constants: A =  17674.59045  B =   3934.21702  C =   3931.23226 [MHz]
  Nuclear repulsion =  132.575322031405932

  Charge       = 0
  Multiplicity = 1
  Electrons    = 34
  Nalpha       = 17
  Nbeta        = 17

  ==> Algorithm <==

  SCF Algorithm Type is DF.
  DIIS enabled.
  MOM disabled.
  Fractional occupation disabled.
  Guess Type is SAD.
  Energy threshold   = 1.00e-10
  Density threshold  = 1.00e-10
  Integral threshold = 0.00e+00

  ==> Primary Basis <==

  Basis Set: 6-31G(D)
    Number of shells: 44
    Number of basis function: 80
    Number of Cartesian functions: 80
    Spherical Harmonics?: false
    Max angular momentum: 2

  ==> Pre-Iterations <==

   -------------------------------------------------------
    Irrep   Nso     Nmo     Nalpha   Nbeta   Ndocc  Nsocc
   -------------------------------------------------------
     A         80      80       0       0       0       0
   -------------------------------------------------------
    Total      80      80      17      17      17       0
   -------------------------------------------------------

  ==> Integral Setup <==

  ==> DFJK: Density-Fitted J/K Matrices <==

    J tasked:                  Yes
    K tasked:                  Yes
    wK tasked:                  No
    OpenMP threads:              1
    Integrals threads:           1
    Memory (MB):               715
    Algorithm:                Core
    Integral Cache:           NONE
    Schwarz Cutoff:          1E-12
    Fitting Condition:       1E-12

   => Auxiliary Basis Set <=

  Basis Set: 
    Number of shells: 186
    Number of basis function: 574
    Number of Cartesian functions: 574
    Spherical Harmonics?: false
    Max angular momentum: 3

  Minimum eigenvalue in the overlap matrix is 4.8203521016E-03.
  Using Symmetric Orthogonalization.
  SCF Guess: Superposition of Atomic Densities via on-the-fly atomic UHF.

  ==> Iterations <==

                           Total Energy        Delta E     RMS |[F,P]|

   @DF-RHF iter   0:  -158.98052662883148   -1.58981e+02   4.74934e-02 
   @DF-RHF iter   1:  -157.20080574085895    1.77972e+00   3.92370e-03 
   @DF-RHF iter   2:  -157.27960686325181   -7.88011e-02   1.08953e-03 DIIS
   @DF-RHF iter   3:  -157.28748225170906   -7.87539e-03   2.43415e-04 DIIS
   @DF-RHF iter   4:  -157.28781461211813   -3.32360e-04   7.58694e-05 DIIS
   @DF-RHF iter   5:  -157.28784793414044   -3.33220e-05   1.25548e-05 DIIS
   @DF-RHF iter   6:  -157.28784907301988   -1.13888e-06   2.36442e-06 DIIS
   @DF-RHF iter   7:  -157.28784909913421   -2.61143e-08   6.89122e-07 DIIS
   @DF-RHF iter   8:  -157.28784910149867   -2.36446e-09   1.00118e-07 DIIS
   @DF-RHF iter   9:  -157.28784910158399   -8.53220e-11   2.16585e-08 DIIS
   @DF-RHF iter  10:  -157.28784910158819   -4.20641e-12   4.41575e-09 DIIS
   @DF-RHF iter  11:  -157.28784910158842   -2.27374e-13   9.23795e-10 DIIS
   @DF-RHF iter  12:  -157.28784910158842    0.00000e+00   2.94542e-10 DIIS
   @DF-RHF iter  13:  -157.28784910158831    1.13687e-13   7.48235e-11 DIIS

  ==> Post-Iterations <==

    Orbital Energies (a.u.)
    -----------------------

    Doubly Occupied:                                                      

       1A    -11.206152     2A    -11.205569     3A    -11.201025  
       4A    -11.200939     5A     -1.071536     6A     -0.979905  
       7A     -0.864896     8A     -0.793077     9A     -0.638556  
      10A     -0.604776    11A     -0.583837    12A     -0.553965  
      13A     -0.514892    14A     -0.510292    15A     -0.471006  
      16A     -0.463243    17A     -0.442013  

    Virtual:                                                              

      18A      0.234928    19A      0.272507    20A      0.290141  
      21A      0.298265    22A      0.320845    23A      0.329801  
      24A      0.335703    25A      0.345582    26A      0.350696  
      27A      0.360119    28A      0.414590    29A      0.447147  
      30A      0.453958    31A      0.712456    32A      0.727212  
      33A      0.734345    34A      0.791811    35A      0.806330  
      36A      0.812967    37A      0.825767    38A      0.937492  
      39A      0.938413    40A      1.000658    41A      1.052771  
      42A      1.098879    43A      1.175647    44A      1.178046  
      45A      1.193033    46A      1.210425    47A      1.210536  
      48A      1.225847    49A      1.245192    50A      1.258598  
      51A      1.266203    52A      1.276427    53A      1.286446  
      54A      1.449512    55A      1.672662    56A      1.735508  
      57A      1.785083    58A      1.914332    59A      2.018854  
      60A      2.083757    61A      2.191709    62A      2.243561  
      63A      2.275526    64A      2.305588    65A      2.374578  
      66A      2.460430    67A      2.516573    68A      2.634689  
      69A      2.666403    70A      2.674968    71A      2.730714  
      72A      2.756385    73A      2.784451    74A      2.895885  
      75A      3.009737    76A      3.088686    77A      4.575340  
      78A      4.664118    79A      4.822652    80A      4.970243  

    Final Occupation by Irrep:
              A 
    DOCC [    17 ]

  Energy converged.

  @DF-RHF Final Energy:  -157.28784910158831

   => Energetics <=

    Nuclear Repulsion Energy =            132.5753220314059320
    One-Electron Energy =                -473.1149840364042802
    Two-Electron Energy =                 183.2518129034099275
    DFT Exchange-Correlation Energy =       0.0000000000000000
    Empirical Dispersion Energy =           0.0000000000000000
    PCM Polarization Energy =               0.0000000000000000
    EFP Energy =                            0.0000000000000000
    Total Energy =                       -157.2878491015884492


  Saving occupied orbitals to File 180.

*** tstop() called on lski1497 at Thu Feb 16 16:22:40 2017
Module time:
	user time   =       5.55 seconds =       0.09 minutes
	system time =       0.20 seconds =       0.00 minutes
	total time  =          7 seconds =       0.12 minutes
Total time:
	user time   =       5.55 seconds =       0.09 minutes
	system time =       0.20 seconds =       0.00 minutes
	total time  =          7 seconds =       0.12 minutes


Properties will be evaluated at   0.000000,   0.000000,   0.000000 Bohr

Properties computed using the SCF density matrix

  Nuclear Dipole Moment: (a.u.)
     X:    -0.1263      Y:    -0.0213      Z:    -0.5470

  Electronic Dipole Moment: (a.u.)
     X:     0.1342      Y:     0.0222      Z:     0.5804

  Dipole Moment: (a.u.)
     X:     0.0079      Y:     0.0009      Z:     0.0334     Total:     0.0343

  Dipole Moment: (Debye)
     X:     0.0201      Y:     0.0022      Z:     0.0848     Total:     0.0872


  //>>>>>>>>>>>>>>>>>>>>>>>>>>>>>>>>>>>//
  //               DFMP2               //
  //<<<<<<<<<<<<<<<<<<<<<<<<<<<<<<<<<<<//


*** tstart() called on lski1497
*** at Thu Feb 16 16:22:40 2017


*** tstop() called on lski1497 at Thu Feb 16 16:22:40 2017
Module time:
	user time   =       0.49 seconds =       0.01 minutes
	system time =       0.00 seconds =       0.00 minutes
	total time  =          0 seconds =       0.00 minutes
Total time:
	user time   =       6.05 seconds =       0.10 minutes
	system time =       0.20 seconds =       0.00 minutes
	total time  =          7 seconds =       0.12 minutes
	 --------------------------------------------------------
	                          DF-MP2                         
	      2nd-Order Density-Fitted Moller-Plesset Theory     
	              RMP2 Wavefunction,   1 Threads             
	                                                         
	        Rob Parrish, Justin Turney, Andy Simmonett,      
	           Ed Hohenstein, and C. David Sherrill          
	 --------------------------------------------------------

   => Auxiliary Basis Set <=

  Basis Set: 
    Number of shells: 132
    Number of basis function: 364
    Number of Cartesian functions: 414
    Spherical Harmonics?: true
    Max angular momentum: 3

	 --------------------------------------------------------
	                 NBF =    80, NAUX =   364
	 --------------------------------------------------------
	   CLASS    FOCC     OCC    AOCC    AVIR     VIR    FVIR
	   PAIRS       0      17      17      63      63       0
	 --------------------------------------------------------

DGAS Warning! /src/lib/libfock/apps.cc:80 is not currently checking restricted

         ------------------------------------------------------------
                                     CPHF                           
                                  Rob Parrish                       
         ------------------------------------------------------------

  ==> Geometry <==

    Molecular point group: c1
    Full point group: C1

    Geometry (in Angstrom), charge = 0, multiplicity = 1:

       Center              X                  Y                   Z               Mass       
    ------------   -----------------  -----------------  -----------------  -----------------
           H         -2.226671480213     0.073227204259     0.679751134783     1.007825032070
           H         -2.085671480213     1.701227204259     0.059751134783     1.007825032070
           H         -1.787671480213     0.337227204259    -0.990248865217     1.007825032070
           C         -1.688671480213     0.708227204259     0.007751134783    12.000000000000
           H          0.338328519787     1.364227204259    -0.270248865217     1.007825032070
           H         -0.099671480213     1.101227204259     1.400751134783     1.007825032070
           C         -0.199671480213     0.729227204259     0.402751134783    12.000000000000
           H          0.735328519787    -0.987772795741     1.291751134783     1.007825032070
           H         -0.396671480213    -1.374772795741     0.018751134783     1.007825032070
           C          0.372328519787    -0.698772795741     0.327751134783    12.000000000000
           H          1.925328519787    -1.728772795741    -0.740248865217     1.007825032070
           H          2.297328519787    -0.060772795741    -0.380248865217     1.007825032070
           H          1.165328519787    -0.447772795741    -1.653248865217     1.007825032070
           C          1.527328519787    -0.736772795741    -0.689248865217    12.000000000000

  Nuclear repulsion =  132.575322031405932
  Reference energy  = -157.287849101588307

  ==> Basis Set <==

  Basis Set: 6-31G(D)
    Number of shells: 44
    Number of basis function: 80
    Number of Cartesian functions: 80
    Spherical Harmonics?: false
    Max angular momentum: 2

  ==> CGRSolver (by Rob Parrish) <==

   Number of roots    =         1
   Preconditioning    =    JACOBI
   Convergence cutoff =     1E-06
   Maximum iterations =       100

  ==> CPHFRHamiltonian (by Rob Parrish) <== 

  ==> DFJK: Density-Fitted J/K Matrices <==

    J tasked:                  Yes
    K tasked:                  Yes
    wK tasked:                  No
    OpenMP threads:              1
    Integrals threads:           1
    Memory (MB):               715
    Algorithm:                Core
    Integral Cache:           NONE
    Schwarz Cutoff:          1E-12
    Fitting Condition:       1E-12

   => Auxiliary Basis Set <=

  Basis Set: 
    Number of shells: 186
    Number of basis function: 574
    Number of Cartesian functions: 574
    Spherical Harmonics?: false
    Max angular momentum: 3

  ==> CPHF Iterations <==

  => Iterations <=

             Iter  Converged  Remaining    Residual
  CGR           1          0          1   7.344E-02
  CGR           2          0          1   8.865E-03
  CGR           3          0          1   2.662E-03
  CGR           4          0          1   4.198E-04
  CGR           5          0          1   8.152E-05
  CGR           6          0          1   1.989E-05
  CGR           7          0          1   3.634E-06
  CGR           8          1          0   6.349E-07

    CGRSolver converged.

  ==> DFCorrGrad: Density-Fitted Correlated Gradients <==

    OpenMP threads:              1
    Integrals threads:           1
    Memory (MB):               715
    Schwarz Cutoff:          0E+00
    Fitting Condition:       1E-12

   => Auxiliary Basis Set <=

  Basis Set: 
    Number of shells: 186
    Number of basis function: 510
    Number of Cartesian functions: 574
    Spherical Harmonics?: true
    Max angular momentum: 3

	-----------------------------------------------------------
	 ==================> DF-MP2 Energies <==================== 
	-----------------------------------------------------------
	 Reference Energy          =    -157.2878491015883071 [Eh]
	 Singles Energy            =      -0.0000000000000000 [Eh]
	 Same-Spin Energy          =      -0.1244268998579071 [Eh]
	 Opposite-Spin Energy      =      -0.4204302422042634 [Eh]
	 Correlation Energy        =      -0.5448571420621705 [Eh]
	 Total Energy              =    -157.8327062436504775 [Eh]
	-----------------------------------------------------------
	 ================> DF-SCS-MP2 Energies <================== 
	-----------------------------------------------------------
	 SCS Same-Spin Scale       =       0.3333333333333333 [-]
	 SCS Opposite-Spin Scale   =       1.2000000000000000 [-]
	 SCS Same-Spin Energy      =      -0.0414756332859690 [Eh]
	 SCS Opposite-Spin Energy  =      -0.5045162906451161 [Eh]
	 SCS Correlation Energy    =      -0.5459919239310851 [Eh]
	 SCS Total Energy          =    -157.8338410255194049 [Eh]
	-----------------------------------------------------------


  -Total Gradient:
     Atom            X                  Y                   Z
    ------   -----------------  -----------------  -----------------
       1        0.010438887885     0.009225098630    -0.008996158342
       2        0.010682069288    -0.013756179894     0.000742874098
       3        0.003904233394     0.005836669122     0.015678146386
       4       -0.026989850770    -0.008993317460    -0.009263363710
       5       -0.008393030189    -0.012891040664     0.007652129447
       6       -0.002392738148    -0.010407781861    -0.014294486304
       7        0.023602412652     0.026647934632     0.006120309345
       8       -0.004381732071     0.009211643734    -0.014585555684
       9        0.011160457730     0.013685299250     0.002210937318
      10       -0.017928912964    -0.026131129855     0.017494075853
      11       -0.009577066495     0.014458143651     0.004453912209
      12       -0.012851214801    -0.009569889166    -0.002556684211
      13        0.003610300506    -0.004399996071     0.016036313270
      14        0.019116183982     0.007084545952    -0.020692449674


			-----------------------------------------
			 OPTKING 2.0: for geometry optimizations 
			  - R.A. King,  Bethel University        
			-----------------------------------------

	Previous internal coordinate definitions found.
	---Fragment 1 Geometry and Gradient---
	 H          -4.2077992855        0.1383793615        1.2845434833
	 H          -3.9413479008        3.2148535059        0.1129132809
	 H          -3.3782095132        0.6372670606       -1.8712991587
	 C          -3.1911266260        1.3383554559        0.0146475220
	 H           0.6393482453        2.5780157991       -0.5106963430
	 H          -0.1883518009        2.0810178261        2.6470360251
	 C          -0.3773244142        1.3780397047        0.7610893444
	 H           1.3895695201       -1.8666200655        2.4410558766
	 H          -0.7496004623       -2.5979440789        0.0354345094
	 C           0.7035989339       -1.3204892131        0.6193598845
	 H           3.6383436182       -3.2669071299       -1.3988676254
	 H           4.3413217397       -0.1148439403       -0.7185662176
	 H           2.2021517572       -0.8461679537       -3.1241875848
	 C           2.8862326173       -1.3922988061       -1.3024915927
	             0.0104388879        0.0092250986       -0.0089961583
	             0.0106820693       -0.0137561799        0.0007428741
	             0.0039042334        0.0058366691        0.0156781464
	            -0.0269898508       -0.0089933175       -0.0092633637
	            -0.0083930302       -0.0128910407        0.0076521294
	            -0.0023927381       -0.0104077819       -0.0142944863
	             0.0236024127        0.0266479346        0.0061203093
	            -0.0043817321        0.0092116437       -0.0145855557
	             0.0111604577        0.0136852992        0.0022109373
	            -0.0179289130       -0.0261311299        0.0174940759
	            -0.0095770665        0.0144581437        0.0044539122
	            -0.0128512148       -0.0095698892       -0.0025566842
	             0.0036103005       -0.0043999961        0.0160363133
	             0.0191161840        0.0070845460       -0.0206924497

	Previous optimization step data not found.  Starting new optimization.

	---Fragment 1 Intrafragment Coordinates---
	 - Coordinate -           - BOHR/RAD -       - ANG/DEG -
	 R(1,4)           =         2.021436	       1.069698
	 R(2,4)           =         2.023298	       1.070683
	 R(3,4)           =         2.020723	       1.069320
	 R(4,7)           =         2.911397	       1.540645
	 R(5,7)           =         2.022623	       1.070326
	 R(6,7)           =         2.021555	       1.069761
	 R(7,10)          =         2.910419	       1.540128
	 R(8,10)          =         2.021730	       1.069853
	 R(9,10)          =         2.021051	       1.069494
	 R(10,14)         =         2.909048	       1.539402
	 R(11,14)         =         2.022156	       1.070079
	 R(12,14)         =         2.022410	       1.070214
	 R(13,14)         =         2.021089	       1.069514
	 B(1,4,2)         =         1.910870	     109.484805
	 B(1,4,3)         =         1.911121	     109.499161
	 B(1,4,7)         =         1.910399	     109.457783
	 B(2,4,3)         =         1.910042	     109.437340
	 B(2,4,7)         =         1.910564	     109.467262
	 B(3,4,7)         =         1.910803	     109.480971
	 B(4,7,5)         =         1.909937	     109.431343
	 B(4,7,6)         =         1.911630	     109.528316
	 B(4,7,10)        =         1.911154	     109.501062
	 B(5,7,6)         =         1.910605	     109.469614
	 B(5,7,10)        =         1.910047	     109.437654
	 B(6,7,10)        =         1.910425	     109.459295
	 B(7,10,8)        =         1.909855	     109.426642
	 B(7,10,9)        =         1.910364	     109.455816
	 B(7,10,14)       =         1.911039	     109.494477
	 B(8,10,9)        =         1.910873	     109.484943
	 B(8,10,14)       =         1.911382	     109.514140
	 B(9,10,14)       =         1.910285	     109.451296
	 B(10,14,11)      =         1.910736	     109.477092
	 B(10,14,12)      =         1.910792	     109.480299
	 B(10,14,13)      =         1.912239	     109.563225
	 B(11,14,12)      =         1.908923	     109.373256
	 B(11,14,13)      =         1.910737	     109.477153
	 B(12,14,13)      =         1.910370	     109.456129
	 D(1,4,7,5)       =         3.140997	     179.965873
	 D(1,4,7,6)       =        -1.047644	     -60.025575
	 D(1,4,7,10)      =         1.047427	      60.013132
	 D(2,4,7,5)       =        -1.047689	     -60.028143
	 D(2,4,7,6)       =         1.046856	      59.980409
	 D(2,4,7,10)      =        -3.141259	    -179.980883
	 D(3,4,7,5)       =         1.046044	      59.933911
	 D(3,4,7,6)       =         3.140588	     179.942463
	 D(3,4,7,10)      =        -1.047526	     -60.018830
	 D(4,7,10,8)      =        -2.094067	    -119.981191
	 D(4,7,10,9)      =        -0.000019	      -0.001086
	 D(4,7,10,14)     =         2.094034	     119.979315
	 D(5,7,10,8)      =         2.095616	     120.069933
	 D(5,7,10,9)      =        -2.093522	    -119.949962
	 D(5,7,10,14)     =         0.000531	       0.030440
	 D(6,7,10,8)      =         0.001741	       0.099735
	 D(6,7,10,9)      =         2.095789	     120.079839
	 D(6,7,10,14)     =        -2.093344	    -119.939759
	 D(7,10,14,11)    =         3.140384	     179.930740
	 D(7,10,14,12)    =         1.047923	      60.041550
	 D(7,10,14,13)    =        -1.047232	     -60.001952
	 D(8,10,14,11)    =         1.046234	      59.944798
	 D(8,10,14,12)    =        -1.046227	     -59.944392
	 D(8,10,14,13)    =        -3.141381	    -179.987894
	 D(9,10,14,11)    =        -1.048700	     -60.086091
	 D(9,10,14,12)    =        -3.141161	    -179.975281
	 D(9,10,14,13)    =         1.046870	      59.981218

	Current energy   :      -157.8327062437

	Generating empirical Hessian (Schlegel '84) for each fragment.
	Adding user-defined constraint: Fragment 1; Coordinate 49:
		Value =     2.094034; Fixed value    =     2.094400
		Force =     0.000183; Force constant =     0.500000
	Removing off-diagonal coupling between coordinate 49 and others.
	Taking RFO optimization step.
	Going to follow RFO solution 1.
	Using RFO vector 1.

	Determining step-restricting scale parameter for RS-RFO.
	Maximum step size allowed    0.10000

	 Iter      |step|        alpha        rfo_root  
	------------------------------------------------
	    0     0.23604       1.00000           1
	    1     0.17299       6.56758           1
	    2     0.13228      18.90969           1
	    3     0.10971      35.21089           1
	    4     0.10129      44.97973           1
	    5     0.10003      46.70052           1
	    6     0.10000      46.73943           1
	------------------------------------------------
	Norm of target step-size    0.10000
	Projected energy change by RFO approximation:        -0.0051365135

	Back-transformation to cartesian coordinates...
	Successfully converged to displaced geometry.

	--- Internal Coordinate Step in ANG or DEG, aJ/ANG or AJ/DEG ---
	 ---------------------------------------------------------------------------
	   Coordinate                Previous        Force       Change         New 
	   ----------                --------       ------       ------       ------
	    1 R(1,4)          =      1.069698     0.134934     0.013526     1.083224
	    2 R(2,4)          =      1.070683     0.137445     0.013805     1.084488
	    3 R(3,4)          =      1.069320     0.140215     0.014045     1.083365
	    4 R(4,7)          =      1.540645    -0.020389    -0.002370     1.538275
	    5 R(5,7)          =      1.070326     0.137407     0.013791     1.084117
	    6 R(6,7)          =      1.069761     0.141529     0.014189     1.083950
	    7 R(7,10)         =      1.540128     0.067293     0.007814     1.547942
	    8 R(8,10)         =      1.069853     0.141026     0.014141     1.083995
	    9 R(9,10)         =      1.069494     0.142642     0.014293     1.083787
	   10 R(10,14)        =      1.539402    -0.015319    -0.001777     1.537625
	   11 R(11,14)        =      1.070079     0.141520     0.014197     1.084276
	   12 R(12,14)        =      1.070214     0.132061     0.013252     1.083465
	   13 R(13,14)        =      1.069514     0.138948     0.013924     1.083438
	   14 B(1,4,2)        =    109.484805    -0.000294    -0.508238   108.976566
	   15 B(1,4,3)        =    109.499161    -0.000191    -0.358668   109.140493
	   16 B(1,4,7)        =    109.457783     0.000157     0.269105   109.726888
	   17 B(2,4,3)        =    109.437340    -0.000283    -0.495894   108.941446
	   18 B(2,4,7)        =    109.467262     0.000490     0.874815   110.342077
	   19 B(3,4,7)        =    109.480971     0.000121     0.207834   109.688805
	   20 B(4,7,5)        =    109.431343    -0.000222    -0.356069   109.075274
	   21 B(4,7,6)        =    109.528316    -0.000261    -0.420380   109.107936
	   22 B(4,7,10)       =    109.501062     0.000737     1.200929   110.701991
	   23 B(5,7,6)        =    109.469614    -0.000053    -0.277289   109.192325
	   24 B(5,7,10)       =    109.437654    -0.000139    -0.153471   109.284183
	   25 B(6,7,10)       =    109.459295    -0.000064    -0.002887   109.456408
	   26 B(7,10,8)       =    109.426642    -0.000063    -0.001297   109.425345
	   27 B(7,10,9)       =    109.455816    -0.000143    -0.162166   109.293651
	   28 B(7,10,14)      =    109.494477     0.000743     1.210401   110.704879
	   29 B(8,10,9)       =    109.484943    -0.000053    -0.279204   109.205739
	   30 B(8,10,14)      =    109.514140    -0.000262    -0.420312   109.093828
	   31 B(9,10,14)      =    109.451296    -0.000222    -0.356278   109.095018
	   32 B(10,14,11)     =    109.477092     0.000491     0.877232   110.354324
	   33 B(10,14,12)     =    109.480299     0.000152     0.260310   109.740609
	   34 B(10,14,13)     =    109.563225     0.000112     0.189884   109.753109
	   35 B(11,14,12)     =    109.373256    -0.000285    -0.489354   108.883902
	   36 B(11,14,13)     =    109.477153    -0.000285    -0.501399   108.975754
	   37 B(12,14,13)     =    109.456129    -0.000185    -0.349082   109.107047
	   38 D(1,4,7,5)      =    179.965873     0.000032     0.313029   180.278902
	   39 D(1,4,7,6)      =    -60.025575    -0.000051    -0.491621   -60.517196
	   40 D(1,4,7,10)     =     60.013132    -0.000001    -0.015261    59.997872
	   41 D(2,4,7,5)      =    -60.028143     0.000040     0.398115   -59.630028
	   42 D(2,4,7,6)      =     59.980409    -0.000042    -0.406535    59.573874
	   43 D(2,4,7,10)     =   -179.980883     0.000007     0.069825  -179.911059
	   44 D(3,4,7,5)      =     59.933911     0.000047     0.459450    60.393361
	   45 D(3,4,7,6)      =    179.942463    -0.000036    -0.345200   179.597263
	   46 D(3,4,7,10)     =    -60.018830     0.000013     0.131160   -59.887670
	   47 D(4,7,10,8)     =   -119.981191     0.000023     0.225035  -119.756156
	   48 D(4,7,10,9)     =     -0.001086    -0.000021    -0.215336    -0.216422
	   49 D(4,7,10,14)    =    119.979315     0.000001    -0.007154   119.972161
	   50 D(5,7,10,8)     =    120.069933     0.000001     0.017641   120.087575
	   51 D(5,7,10,9)     =   -119.949962    -0.000043    -0.422730  -120.372692
	   52 D(5,7,10,14)    =      0.030440    -0.000021    -0.214548    -0.184109
	   53 D(6,7,10,8)     =      0.099735     0.000044     0.451477     0.551212
	   54 D(6,7,10,9)     =    120.079839     0.000000     0.011106   120.090945
	   55 D(6,7,10,14)    =   -119.939759     0.000022     0.219287  -119.720472
	   56 D(7,10,14,11)   =    179.930740     0.000009     0.084419   180.015159
	   57 D(7,10,14,12)   =     60.041550    -0.000002    -0.019155    60.022395
	   58 D(7,10,14,13)   =    -60.001952     0.000013     0.131583   -59.870369
	   59 D(8,10,14,11)   =     59.944798    -0.000041    -0.398989    59.545809
	   60 D(8,10,14,12)   =    -59.944392    -0.000052    -0.502562   -60.446954
	   61 D(8,10,14,13)   =   -179.987894    -0.000037    -0.351824  -180.339718
	   62 D(9,10,14,11)   =    -60.086091     0.000041     0.408415   -59.677676
	   63 D(9,10,14,12)   =   -179.975281     0.000031     0.304842  -179.670439
	   64 D(9,10,14,13)   =     59.981218     0.000046     0.455579    60.436797
	 ---------------------------------------------------------------------------
	 Forces used to impose fixed constraints are not included.
	  Forces zeroed: 49 

  ==> Convergence Check <==

  Measures of convergence in internal coordinates in au.
  Criteria marked as inactive (o), active & met (*), and active & unmet ( ).
  --------------------------------------------------------------------------------------------- ~
   Step     Total Energy     Delta E     MAX Force     RMS Force      MAX Disp      RMS Disp    ~
  --------------------------------------------------------------------------------------------- ~
    Convergence Criteria    1.00e-06 *    3.00e-04 *             o    1.20e-03 *             o  ~
  --------------------------------------------------------------------------------------------- ~
      1    -157.83270624   -1.58e+02      1.73e-02      7.30e-03 o    2.70e-02      1.25e-02 o  ~
  ---------------------------------------------------------------------------------------------

	Writing optimization data to binary file.
	Structure for next step:
	Cartesian Geometry (in Angstrom)
	    H    -2.2507848601   0.0561851922   0.6891505374
	    H    -2.1239286081   1.7054154879   0.0747861257
	    H    -1.8136292739   0.3393571709  -0.9976597211
	    C    -1.7057291628   0.7065411045   0.0158560596
	    H     0.3167434438   1.3833467731  -0.2725252598
	    H    -0.1198097395   1.1014240937   1.4165048044
	    C    -0.2174312580   0.7261574119   0.4042834131
	    H     0.7601181888  -0.9871434907   1.2966236033
	    H    -0.3786985429  -1.3943372051   0.0082644001
	    C     0.3886722869  -0.6957422277   0.3208380471
	    H     1.9664491116  -1.7328715632  -0.7443955520
	    H     2.3228416263  -0.0436743718  -0.3844166355
	    H     1.1853507927  -0.4507614711  -1.6715153278
	    C     1.5464352724  -0.7347160451  -0.6902786076
			--------------------------
			 OPTKING Finished Execution 
			--------------------------

    Structure for next step:
    Molecular point group: c1
    Full point group: C1

    Geometry (in Angstrom), charge = 0, multiplicity = 1:

    H           -2.250904676062     0.056122464781     0.688829852058
    H           -2.124048424012     1.705352760476     0.074465440328
    H           -1.813749089827     0.339294443475    -0.997980406466
    C           -1.705848978730     0.706478377121     0.015535374232
    H            0.316623627863     1.383284045654    -0.272845945118
    H           -0.119929555462     1.101361366316     1.416184119066
    C           -0.217551073966     0.726094684453     0.403962727723
    H            0.759998372850    -0.987206218081     1.296302917969
    H           -0.378818358787    -1.394399932506     0.007943714775
    C            0.388552471021    -0.695804955144     0.320517361695
    H            1.966329295649    -1.732934290645    -0.744716237368
    H            2.322721810422    -0.043737099229    -0.384737320823
    H            1.185230976750    -0.450824198485    -1.671836013196
    C            1.546315456476    -0.734778772505    -0.690599292946

gradient() will perform analytic gradient computation.
    SCF Algorithm Type (re)set to DF.

*** tstart() called on lski1497
*** at Thu Feb 16 16:23:01 2017


         ---------------------------------------------------------
                                   SCF
            by Justin Turney, Rob Parrish, and Andy Simmonett
                              RHF Reference
                        1 Threads,   1000 MiB Core
         ---------------------------------------------------------

  ==> Geometry <==

    Molecular point group: c1
    Full point group: C1

    Geometry (in Angstrom), charge = 0, multiplicity = 1:

       Center              X                  Y                   Z               Mass       
    ------------   -----------------  -----------------  -----------------  -----------------
           H         -2.250904676062     0.056122464781     0.688829852058     1.007825032070
           H         -2.124048424012     1.705352760476     0.074465440328     1.007825032070
           H         -1.813749089827     0.339294443475    -0.997980406466     1.007825032070
           C         -1.705848978730     0.706478377121     0.015535374232    12.000000000000
           H          0.316623627863     1.383284045654    -0.272845945118     1.007825032070
           H         -0.119929555462     1.101361366316     1.416184119066     1.007825032070
           C         -0.217551073966     0.726094684453     0.403962727723    12.000000000000
           H          0.759998372850    -0.987206218081     1.296302917969     1.007825032070
           H         -0.378818358787    -1.394399932506     0.007943714775     1.007825032070
           C          0.388552471021    -0.695804955144     0.320517361695    12.000000000000
           H          1.966329295649    -1.732934290645    -0.744716237368     1.007825032070
           H          2.322721810422    -0.043737099229    -0.384737320823     1.007825032070
           H          1.185230976750    -0.450824198485    -1.671836013196     1.007825032070
           C          1.546315456476    -0.734778772505    -0.690599292946    12.000000000000

  Running in c1 symmetry.

  Rotational constants: A =      0.59080  B =      0.12870  C =      0.12870 [cm^-1]
  Rotational constants: A =  17711.81031  B =   3858.31965  C =   3858.23083 [MHz]
  Nuclear repulsion =  131.592092712912745

  Charge       = 0
  Multiplicity = 1
  Electrons    = 34
  Nalpha       = 17
  Nbeta        = 17

  ==> Algorithm <==

  SCF Algorithm Type is DF.
  DIIS enabled.
  MOM disabled.
  Fractional occupation disabled.
  Guess Type is READ.
  Energy threshold   = 1.00e-10
  Density threshold  = 1.00e-10
  Integral threshold = 0.00e+00

  ==> Primary Basis <==

  Basis Set: 6-31G(D)
    Number of shells: 44
    Number of basis function: 80
    Number of Cartesian functions: 80
    Spherical Harmonics?: false
    Max angular momentum: 2

  ==> Pre-Iterations <==

   -------------------------------------------------------
    Irrep   Nso     Nmo     Nalpha   Nbeta   Ndocc  Nsocc
   -------------------------------------------------------
     A         80      80       0       0       0       0
   -------------------------------------------------------
    Total      80      80      17      17      17       0
   -------------------------------------------------------

  ==> Integral Setup <==

  ==> DFJK: Density-Fitted J/K Matrices <==

    J tasked:                  Yes
    K tasked:                  Yes
    wK tasked:                  No
    OpenMP threads:              1
    Integrals threads:           1
    Memory (MB):               715
    Algorithm:                Core
    Integral Cache:           NONE
    Schwarz Cutoff:          1E-12
    Fitting Condition:       1E-12

   => Auxiliary Basis Set <=

  Basis Set: 
    Number of shells: 186
    Number of basis function: 574
    Number of Cartesian functions: 574
    Spherical Harmonics?: false
    Max angular momentum: 3

  Minimum eigenvalue in the overlap matrix is 4.9541460418E-03.
  Using Symmetric Orthogonalization.
  SCF Guess was Projection but file not found.
  Switching over to SAD guess.

  SCF Guess: Superposition of Atomic Densities via on-the-fly atomic UHF.

  ==> Iterations <==

                           Total Energy        Delta E     RMS |[F,P]|

   @DF-RHF iter   0:  -158.87281631771032   -1.58873e+02   4.65088e-02 
   @DF-RHF iter   1:  -157.20260444050598    1.67021e+00   3.90388e-03 
   @DF-RHF iter   2:  -157.28232875210688   -7.97243e-02   1.10337e-03 DIIS
   @DF-RHF iter   3:  -157.29046568411093   -8.13693e-03   2.53378e-04 DIIS
   @DF-RHF iter   4:  -157.29082724218790   -3.61558e-04   7.58481e-05 DIIS
   @DF-RHF iter   5:  -157.29086269275621   -3.54506e-05   1.22411e-05 DIIS
   @DF-RHF iter   6:  -157.29086382336521   -1.13061e-06   1.85214e-06 DIIS
   @DF-RHF iter   7:  -157.29086384279651   -1.94313e-08   6.31765e-07 DIIS
   @DF-RHF iter   8:  -157.29086384454416   -1.74765e-09   1.09151e-07 DIIS
   @DF-RHF iter   9:  -157.29086384463648   -9.23137e-11   2.53074e-08 DIIS
   @DF-RHF iter  10:  -157.29086384464199   -5.51381e-12   5.33033e-09 DIIS
   @DF-RHF iter  11:  -157.29086384464199    0.00000e+00   9.34970e-10 DIIS
   @DF-RHF iter  12:  -157.29086384464222   -2.27374e-13   2.53654e-10 DIIS
   @DF-RHF iter  13:  -157.29086384464210    1.13687e-13   8.00917e-11 DIIS

  ==> Post-Iterations <==

    Orbital Energies (a.u.)
    -----------------------

    Doubly Occupied:                                                      

       1A    -11.211755     2A    -11.211205     3A    -11.206696  
       4A    -11.206658     5A     -1.067660     6A     -0.977854  
       7A     -0.860908     8A     -0.787817     9A     -0.634040  
      10A     -0.601718    11A     -0.580370    12A     -0.551680  
      13A     -0.511257    14A     -0.507578    15A     -0.467340  
      16A     -0.460360    17A     -0.446090  

    Virtual:                                                              

      18A      0.232788    19A      0.269910    20A      0.286619  
      21A      0.294778    22A      0.318444    23A      0.326506  
      24A      0.331664    25A      0.340758    26A      0.347149  
      27A      0.356466    28A      0.411493    29A      0.447373  
      30A      0.454323    31A      0.714136    32A      0.726017  
      33A      0.735524    34A      0.790513    35A      0.806756  
      36A      0.816198    37A      0.831359    38A      0.933957  
      39A      0.938185    40A      0.996042    41A      1.058667  
      42A      1.098733    43A      1.163554    44A      1.165281  
      45A      1.178002    46A      1.196975    47A      1.197078  
      48A      1.212709    49A      1.239198    50A      1.243870  
      51A      1.255998    52A      1.261391    53A      1.270816  
      54A      1.446044    55A      1.676874    56A      1.737760  
      57A      1.776779    58A      1.906926    59A      2.000944  
      60A      2.075870    61A      2.190311    62A      2.233813  
      63A      2.276054    64A      2.304745    65A      2.357976  
      66A      2.447561    67A      2.494943    68A      2.615500  
      69A      2.648220    70A      2.656242    71A      2.718917  
      72A      2.738630    73A      2.774332    74A      2.888052  
      75A      3.007379    76A      3.077365    77A      4.561668  
      78A      4.655258    79A      4.816070    80A      4.962933  

    Final Occupation by Irrep:
              A 
    DOCC [    17 ]

  Energy converged.

  @DF-RHF Final Energy:  -157.29086384464210

   => Energetics <=

    Nuclear Repulsion Energy =            131.5920927129127449
    One-Electron Energy =                -471.1839399677230631
    Two-Electron Energy =                 182.3009834101680724
    DFT Exchange-Correlation Energy =       0.0000000000000000
    Empirical Dispersion Energy =           0.0000000000000000
    PCM Polarization Energy =               0.0000000000000000
    EFP Energy =                            0.0000000000000000
    Total Energy =                       -157.2908638446422458


  Saving occupied orbitals to File 180.

*** tstop() called on lski1497 at Thu Feb 16 16:23:08 2017
Module time:
	user time   =       5.45 seconds =       0.09 minutes
	system time =       0.16 seconds =       0.00 minutes
	total time  =          7 seconds =       0.12 minutes
Total time:
	user time   =      29.69 seconds =       0.49 minutes
	system time =       0.91 seconds =       0.02 minutes
	total time  =         35 seconds =       0.58 minutes


Properties will be evaluated at   0.000000,   0.000000,   0.000000 Bohr

Properties computed using the SCF density matrix

  Nuclear Dipole Moment: (a.u.)
     X:    -0.1280      Y:    -0.0222      Z:    -0.5516

  Electronic Dipole Moment: (a.u.)
     X:     0.1353      Y:     0.0233      Z:     0.5822

  Dipole Moment: (a.u.)
     X:     0.0073      Y:     0.0011      Z:     0.0307     Total:     0.0315

  Dipole Moment: (Debye)
     X:     0.0186      Y:     0.0028      Z:     0.0779     Total:     0.0801


  //>>>>>>>>>>>>>>>>>>>>>>>>>>>>>>>>>>>//
  //               DFMP2               //
  //<<<<<<<<<<<<<<<<<<<<<<<<<<<<<<<<<<<//


*** tstart() called on lski1497
*** at Thu Feb 16 16:23:08 2017


*** tstop() called on lski1497 at Thu Feb 16 16:23:08 2017
Module time:
	user time   =       0.58 seconds =       0.01 minutes
	system time =       0.00 seconds =       0.00 minutes
	total time  =          0 seconds =       0.00 minutes
Total time:
	user time   =      30.29 seconds =       0.50 minutes
	system time =       0.91 seconds =       0.02 minutes
	total time  =         35 seconds =       0.58 minutes
	 --------------------------------------------------------
	                          DF-MP2                         
	      2nd-Order Density-Fitted Moller-Plesset Theory     
	              RMP2 Wavefunction,   1 Threads             
	                                                         
	        Rob Parrish, Justin Turney, Andy Simmonett,      
	           Ed Hohenstein, and C. David Sherrill          
	 --------------------------------------------------------

   => Auxiliary Basis Set <=

  Basis Set: 
    Number of shells: 132
    Number of basis function: 364
    Number of Cartesian functions: 414
    Spherical Harmonics?: true
    Max angular momentum: 3

	 --------------------------------------------------------
	                 NBF =    80, NAUX =   364
	 --------------------------------------------------------
	   CLASS    FOCC     OCC    AOCC    AVIR     VIR    FVIR
	   PAIRS       0      17      17      63      63       0
	 --------------------------------------------------------

DGAS Warning! /src/lib/libfock/apps.cc:80 is not currently checking restricted

         ------------------------------------------------------------
                                     CPHF                           
                                  Rob Parrish                       
         ------------------------------------------------------------

  ==> Geometry <==

    Molecular point group: c1
    Full point group: C1

    Geometry (in Angstrom), charge = 0, multiplicity = 1:

       Center              X                  Y                   Z               Mass       
    ------------   -----------------  -----------------  -----------------  -----------------
           H         -2.250904676062     0.056122464781     0.688829852058     1.007825032070
           H         -2.124048424012     1.705352760476     0.074465440328     1.007825032070
           H         -1.813749089827     0.339294443475    -0.997980406466     1.007825032070
           C         -1.705848978730     0.706478377121     0.015535374232    12.000000000000
           H          0.316623627863     1.383284045654    -0.272845945118     1.007825032070
           H         -0.119929555462     1.101361366316     1.416184119066     1.007825032070
           C         -0.217551073966     0.726094684453     0.403962727723    12.000000000000
           H          0.759998372850    -0.987206218081     1.296302917969     1.007825032070
           H         -0.378818358787    -1.394399932506     0.007943714775     1.007825032070
           C          0.388552471021    -0.695804955144     0.320517361695    12.000000000000
           H          1.966329295649    -1.732934290645    -0.744716237368     1.007825032070
           H          2.322721810422    -0.043737099229    -0.384737320823     1.007825032070
           H          1.185230976750    -0.450824198485    -1.671836013196     1.007825032070
           C          1.546315456476    -0.734778772505    -0.690599292946    12.000000000000

  Nuclear repulsion =  131.592092712912745
  Reference energy  = -157.290863844642104

  ==> Basis Set <==

  Basis Set: 6-31G(D)
    Number of shells: 44
    Number of basis function: 80
    Number of Cartesian functions: 80
    Spherical Harmonics?: false
    Max angular momentum: 2

  ==> CGRSolver (by Rob Parrish) <==

   Number of roots    =         1
   Preconditioning    =    JACOBI
   Convergence cutoff =     1E-06
   Maximum iterations =       100

  ==> CPHFRHamiltonian (by Rob Parrish) <== 

  ==> DFJK: Density-Fitted J/K Matrices <==

    J tasked:                  Yes
    K tasked:                  Yes
    wK tasked:                  No
    OpenMP threads:              1
    Integrals threads:           1
    Memory (MB):               715
    Algorithm:                Core
    Integral Cache:           NONE
    Schwarz Cutoff:          1E-12
    Fitting Condition:       1E-12

   => Auxiliary Basis Set <=

  Basis Set: 
    Number of shells: 186
    Number of basis function: 574
    Number of Cartesian functions: 574
    Spherical Harmonics?: false
    Max angular momentum: 3

  ==> CPHF Iterations <==

  => Iterations <=

             Iter  Converged  Remaining    Residual
  CGR           1          0          1   7.376E-02
  CGR           2          0          1   8.958E-03
  CGR           3          0          1   2.682E-03
  CGR           4          0          1   4.200E-04
  CGR           5          0          1   8.215E-05
  CGR           6          0          1   1.984E-05
  CGR           7          0          1   3.550E-06
  CGR           8          1          0   6.330E-07

    CGRSolver converged.

  ==> DFCorrGrad: Density-Fitted Correlated Gradients <==

    OpenMP threads:              1
    Integrals threads:           1
    Memory (MB):               715
    Schwarz Cutoff:          0E+00
    Fitting Condition:       1E-12

   => Auxiliary Basis Set <=

  Basis Set: 
    Number of shells: 186
    Number of basis function: 510
    Number of Cartesian functions: 574
    Spherical Harmonics?: true
    Max angular momentum: 3

	-----------------------------------------------------------
	 ==================> DF-MP2 Energies <==================== 
	-----------------------------------------------------------
	 Reference Energy          =    -157.2908638446421037 [Eh]
	 Singles Energy            =      -0.0000000000000000 [Eh]
	 Same-Spin Energy          =      -0.1242743982485562 [Eh]
	 Opposite-Spin Energy      =      -0.4216905372370798 [Eh]
	 Correlation Energy        =      -0.5459649354856361 [Eh]
	 Total Energy              =    -157.8368287801277461 [Eh]
	-----------------------------------------------------------
	 ================> DF-SCS-MP2 Energies <================== 
	-----------------------------------------------------------
	 SCS Same-Spin Scale       =       0.3333333333333333 [-]
	 SCS Opposite-Spin Scale   =       1.2000000000000000 [-]
	 SCS Same-Spin Energy      =      -0.0414247994161854 [Eh]
	 SCS Opposite-Spin Energy  =      -0.5060286446844958 [Eh]
	 SCS Correlation Energy    =      -0.5474534441006812 [Eh]
	 SCS Total Energy          =    -157.8383172887427861 [Eh]
	-----------------------------------------------------------


  -Total Gradient:
     Atom            X                  Y                   Z
    ------   -----------------  -----------------  -----------------
       1        0.005166714448     0.003727290016    -0.002907019785
       2        0.005151694512    -0.004822155422     0.000616274570
       3        0.002768251652     0.002462097120     0.006165729877
       4       -0.015961670401    -0.005348497078    -0.005245833936
       5       -0.003961096074    -0.006865316922     0.001377987513
       6       -0.002149878455    -0.006275632150    -0.004764446227
       7        0.013883179147     0.017845003159     0.003605433542
       8       -0.000291291177     0.005877005344    -0.005678126219
       9        0.004198441092     0.007020562678    -0.001025996404
      10       -0.010449976387    -0.017463239904     0.010500935234
      11       -0.004390590682     0.005144995880     0.002546004987
      12       -0.005685043784    -0.003829340058     0.000019886791
      13        0.000358966880    -0.001843336723     0.006865187281
      14        0.011362299226     0.004370564059    -0.012076017225


			-----------------------------------------
			 OPTKING 2.0: for geometry optimizations 
			  - R.A. King,  Bethel University        
			-----------------------------------------

	Previous internal coordinate definitions found.
	---Fragment 1 Geometry and Gradient---
	 H          -4.2535933890        0.1060560883        1.3016997725
	 H          -4.0138698144        3.2226496773        0.1407192886
	 H          -3.4274890535        0.6411735766       -1.8859096542
	 C          -3.2235873939        1.3350506516        0.0293576027
	 H           0.5983319439        2.6140280103       -0.5156041127
	 H          -0.2266340151        2.0812713557        2.6762001388
	 C          -0.4111119497        1.3721201002        0.7633789233
	 H           1.4361887861       -1.8655493889        2.4496575002
	 H          -0.7158629522       -2.6350339922        0.0150114454
	 C           0.7342577585       -1.3148808071        0.6056900344
	 H           3.7158238558       -3.2747712156       -1.4073097353
	 H           4.3893081046       -0.0826511394       -0.7270481695
	 H           2.2397619503       -0.8519342692       -3.1593122040
	 C           2.9221127278       -1.3885306483       -1.3050435312
	             0.0051667144        0.0037272900       -0.0029070198
	             0.0051516945       -0.0048221554        0.0006162746
	             0.0027682517        0.0024620971        0.0061657299
	            -0.0159616704       -0.0053484971       -0.0052458339
	            -0.0039610961       -0.0068653169        0.0013779875
	            -0.0021498785       -0.0062756321       -0.0047644462
	             0.0138831791        0.0178450032        0.0036054335
	            -0.0002912912        0.0058770053       -0.0056781262
	             0.0041984411        0.0070205627       -0.0010259964
	            -0.0104499764       -0.0174632399        0.0105009352
	            -0.0043905907        0.0051449959        0.0025460050
	            -0.0056850438       -0.0038293401        0.0000198868
	             0.0003589669       -0.0018433367        0.0068651873
	             0.0113622992        0.0043705641       -0.0120760172

	---Fragment 1 Intrafragment Coordinates---
	 - Coordinate -           - BOHR/RAD -       - ANG/DEG -
	 R(1,4)           =         2.046996	       1.083224
	 R(2,4)           =         2.049385	       1.084488
	 R(3,4)           =         2.047264	       1.083365
	 R(4,7)           =         2.906919	       1.538275
	 R(5,7)           =         2.048685	       1.084117
	 R(6,7)           =         2.048368	       1.083950
	 R(7,10)          =         2.925186	       1.547942
	 R(8,10)          =         2.048453	       1.083995
	 R(9,10)          =         2.048061	       1.083787
	 R(10,14)         =         2.905690	       1.537625
	 R(11,14)         =         2.048985	       1.084276
	 R(12,14)         =         2.047453	       1.083465
	 R(13,14)         =         2.047401	       1.083438
	 B(1,4,2)         =         1.902000	     108.976566
	 B(1,4,3)         =         1.904861	     109.140493
	 B(1,4,7)         =         1.915095	     109.726888
	 B(2,4,3)         =         1.901387	     108.941446
	 B(2,4,7)         =         1.925833	     110.342077
	 B(3,4,7)         =         1.914431	     109.688805
	 B(4,7,5)         =         1.903723	     109.075274
	 B(4,7,6)         =         1.904293	     109.107936
	 B(4,7,10)        =         1.932114	     110.701991
	 B(5,7,6)         =         1.905766	     109.192325
	 B(5,7,10)        =         1.907369	     109.284183
	 B(6,7,10)        =         1.910375	     109.456408
	 B(7,10,8)        =         1.909833	     109.425345
	 B(7,10,9)        =         1.907534	     109.293651
	 B(7,10,14)       =         1.932165	     110.704879
	 B(8,10,9)        =         1.906000	     109.205739
	 B(8,10,14)       =         1.904046	     109.093828
	 B(9,10,14)       =         1.904067	     109.095018
	 B(10,14,11)      =         1.926046	     110.354324
	 B(10,14,12)      =         1.915335	     109.740609
	 B(10,14,13)      =         1.915553	     109.753109
	 B(11,14,12)      =         1.900383	     108.883902
	 B(11,14,13)      =         1.901986	     108.975754
	 B(12,14,13)      =         1.904277	     109.107047
	 D(1,4,7,5)       =        -3.136725	    -179.721098
	 D(1,4,7,6)       =        -1.056224	     -60.517196
	 D(1,4,7,10)      =         1.047160	      59.997872
	 D(2,4,7,5)       =        -1.040740	     -59.630028
	 D(2,4,7,6)       =         1.039760	      59.573874
	 D(2,4,7,10)      =        -3.140040	    -179.911059
	 D(3,4,7,5)       =         1.054063	      60.393361
	 D(3,4,7,6)       =         3.134564	     179.597263
	 D(3,4,7,10)      =        -1.045237	     -59.887670
	 D(4,7,10,8)      =        -2.090139	    -119.756156
	 D(4,7,10,9)      =        -0.003777	      -0.216422
	 D(4,7,10,14)     =         2.093909	     119.972161
	 D(5,7,10,8)      =         2.095924	     120.087575
	 D(5,7,10,9)      =        -2.100900	    -120.372692
	 D(5,7,10,14)     =        -0.003213	      -0.184109
	 D(6,7,10,8)      =         0.009620	       0.551212
	 D(6,7,10,9)      =         2.095982	     120.090945
	 D(6,7,10,14)     =        -2.089516	    -119.720472
	 D(7,10,14,11)    =        -3.141328	    -179.984841
	 D(7,10,14,12)    =         1.047588	      60.022395
	 D(7,10,14,13)    =        -1.044935	     -59.870369
	 D(8,10,14,11)    =         1.039270	      59.545809
	 D(8,10,14,12)    =        -1.054998	     -60.446954
	 D(8,10,14,13)    =         3.135663	     179.660282
	 D(9,10,14,11)    =        -1.041572	     -59.677676
	 D(9,10,14,12)    =        -3.135841	    -179.670439
	 D(9,10,14,13)    =         1.054821	      60.436797

	Current energy   :      -157.8368287801

	Energy change for the previous step:
		Projected    :        -0.0051365135
		Actual       :        -0.0041225365

	Performing BFGS update.
	Previous computed or guess Hessian on step 1.
	Steps to be used in Hessian update: 1
	Adding user-defined constraint: Fragment 1; Coordinate 49:
		Value =     2.093909; Fixed value    =     2.094400
		Force =     0.000258; Force constant =     0.525000
	Removing off-diagonal coupling between coordinate 49 and others.
	Taking RFO optimization step.
	Going to follow RFO solution 1.
	Using RFO vector 1.

	Determining step-restricting scale parameter for RS-RFO.
	Maximum step size allowed    0.10000

	 Iter      |step|        alpha        rfo_root  
	------------------------------------------------
	    0     0.17827       1.00000           1
	    1     0.13913       7.67027           1
	    2     0.11297      18.48735           1
	    3     0.10223      26.31010           1
	    4     0.10009      28.26080           1
	    5     0.10000      28.34248           1
	------------------------------------------------
	Norm of target step-size    0.10000
	Projected energy change by RFO approximation:        -0.0022875028

	Back-transformation to cartesian coordinates...
	Successfully converged to displaced geometry.

	--- Internal Coordinate Step in ANG or DEG, aJ/ANG or AJ/DEG ---
	 ---------------------------------------------------------------------------
	   Coordinate                Previous        Force       Change         New 
	   ----------                --------       ------       ------       ------
	    1 R(1,4)          =      1.083224     0.054743     0.008271     1.091495
	    2 R(2,4)          =      1.084488     0.052683     0.007695     1.092183
	    3 R(3,4)          =      1.083365     0.056669     0.008538     1.091904
	    4 R(4,7)          =      1.538275    -0.026186    -0.006803     1.531472
	    5 R(5,7)          =      1.084117     0.057455     0.008843     1.092961
	    6 R(6,7)          =      1.083950     0.056150     0.008371     1.092321
	    7 R(7,10)         =      1.547942     0.010837    -0.000344     1.547598
	    8 R(8,10)         =      1.083995     0.055949     0.008342     1.092337
	    9 R(9,10)         =      1.083787     0.059336     0.009094     1.092881
	   10 R(10,14)        =      1.537625    -0.023734    -0.006318     1.531307
	   11 R(11,14)        =      1.084276     0.054080     0.007877     1.092153
	   12 R(12,14)        =      1.083465     0.053640     0.008117     1.091582
	   13 R(13,14)        =      1.083438     0.056191     0.008472     1.091910
	   14 B(1,4,2)        =    108.976566    -0.000199    -0.699910   108.276656
	   15 B(1,4,3)        =    109.140493    -0.000176    -0.773482   108.367011
	   16 B(1,4,7)        =    109.726888     0.000151     0.621109   110.347997
	   17 B(2,4,3)        =    108.941446    -0.000194    -0.695932   108.245514
	   18 B(2,4,7)        =    110.342077     0.000275     0.907976   111.250053
	   19 B(3,4,7)        =    109.688805     0.000134     0.577815   110.266620
	   20 B(4,7,5)        =    109.075274    -0.000092    -0.149221   108.926053
	   21 B(4,7,6)        =    109.107936    -0.000117    -0.203845   108.904091
	   22 B(4,7,10)       =    110.701991     0.000372     1.174798   111.876789
	   23 B(5,7,6)        =    109.192325    -0.000114    -1.122892   108.069433
	   24 B(5,7,10)       =    109.284183    -0.000054     0.001618   109.285800
	   25 B(6,7,10)       =    109.456408    -0.000002     0.241075   109.697482
	   26 B(7,10,8)       =    109.425345     0.000000     0.256969   109.682315
	   27 B(7,10,9)       =    109.293651    -0.000055    -0.003367   109.290284
	   28 B(7,10,14)      =    110.704879     0.000373     1.171832   111.876710
	   29 B(8,10,9)       =    109.205739    -0.000115    -1.129467   108.076272
	   30 B(8,10,14)      =    109.093828    -0.000117    -0.200852   108.892976
	   31 B(9,10,14)      =    109.095018    -0.000092    -0.153489   108.941529
	   32 B(10,14,11)     =    110.354324     0.000274     0.900720   111.255044
	   33 B(10,14,12)     =    109.740609     0.000146     0.605737   110.346346
	   34 B(10,14,13)     =    109.753109     0.000127     0.544252   110.297361
	   35 B(11,14,12)     =    108.883902    -0.000191    -0.655179   108.228723
	   36 B(11,14,13)     =    108.975754    -0.000195    -0.706099   108.269655
	   37 B(12,14,13)     =    109.107047    -0.000171    -0.751681   108.355367
	   38 D(1,4,7,5)      =   -179.721098     0.000024     0.666228  -179.054870
	   39 D(1,4,7,6)      =    -60.517196    -0.000036    -0.891291   -61.408486
	   40 D(1,4,7,10)     =     59.997872    -0.000000     0.021371    60.019243
	   41 D(2,4,7,5)      =    -59.630028     0.000029     0.780479   -58.849550
	   42 D(2,4,7,6)      =     59.573874    -0.000031    -0.777040    58.796834
	   43 D(2,4,7,10)     =   -179.911059     0.000005     0.135622  -179.775437
	   44 D(3,4,7,5)      =     60.393361     0.000033     0.869182    61.262543
	   45 D(3,4,7,6)      =    179.597263    -0.000027    -0.688336   178.908927
	   46 D(3,4,7,10)     =    -59.887670     0.000009     0.224326   -59.663344
	   47 D(4,7,10,8)     =   -119.756156     0.000021     0.656031  -119.100125
	   48 D(4,7,10,9)     =     -0.216422    -0.000019    -0.567600    -0.784023
	   49 D(4,7,10,14)    =    119.972161     0.000000    -0.016744   119.955417
	   50 D(5,7,10,8)     =    120.087575     0.000001     0.095281   120.182855
	   51 D(5,7,10,9)     =   -120.372692    -0.000038    -1.128351  -121.501043
	   52 D(5,7,10,14)    =     -0.184109    -0.000019    -0.577495    -0.761603
	   53 D(6,7,10,8)     =      0.551212     0.000041     1.317566     1.868777
	   54 D(6,7,10,9)     =    120.090945     0.000001     0.093934   120.184879
	   55 D(6,7,10,14)    =   -119.720472     0.000020     0.644790  -119.075681
	   56 D(7,10,14,11)   =   -179.984841     0.000006     0.170615  -179.814226
	   57 D(7,10,14,12)   =     60.022395    -0.000000     0.016146    60.038541
	   58 D(7,10,14,13)   =    -59.870369     0.000009     0.222240   -59.648129
	   59 D(8,10,14,11)   =     59.545809    -0.000030    -0.761101    58.784709
	   60 D(8,10,14,12)   =    -60.446954    -0.000037    -0.915570   -61.362524
	   61 D(8,10,14,13)   =    179.660282    -0.000027    -0.709476   178.950806
	   62 D(9,10,14,11)   =    -59.677676     0.000030     0.805333   -58.872342
	   63 D(9,10,14,12)   =   -179.670439     0.000024     0.650864  -179.019575
	   64 D(9,10,14,13)   =     60.436797     0.000033     0.856958    61.293755
	 ---------------------------------------------------------------------------
	 Forces used to impose fixed constraints are not included.
	  Forces zeroed: 49 

  ==> Convergence Check <==

  Measures of convergence in internal coordinates in au.
  Criteria marked as inactive (o), active & met (*), and active & unmet ( ).
  ---------------------------------------------------------------------------------------------
   Step     Total Energy     Delta E     MAX Force     RMS Force      MAX Disp      RMS Disp   
  ---------------------------------------------------------------------------------------------
    Convergence Criteria    1.00e-06 *    3.00e-04 *             o    1.20e-03 *             o
  ---------------------------------------------------------------------------------------------
      2    -157.83682878   -4.12e-03      7.20e-03      3.23e-03 o    2.30e-02      1.25e-02 o  ~
  ---------------------------------------------------------------------------------------------

	Writing optimization data to binary file.
	Structure for next step:
	Cartesian Geometry (in Angstrom)
	    H    -2.2719557962   0.0514863692   0.6914465523
	    H    -2.1463850236   1.7093001317   0.0849667309
	    H    -1.8385258921   0.3453793074  -0.9998442347
	    C    -1.7134969081   0.7085292916   0.0222825935
	    H     0.3031033468   1.3970712733  -0.2692889880
	    H    -0.1292759654   1.1050086346   1.4207039967
	    C    -0.2302256345   0.7204946455   0.4032937227
	    H     0.7703090376  -0.9906149695   1.2966185265
	    H    -0.3650228196  -1.4081436790   0.0062276777
	    C     0.3994859569  -0.6903735396   0.3139969229
	    H     1.9911374238  -1.7367261784  -0.7452779202
	    H     2.3426530880  -0.0390831622  -0.3922253041
	    H     1.2065213475  -0.4576427377  -1.6839369389
	    C     1.5565996931  -0.7363827112  -0.6879370456
			--------------------------
			 OPTKING Finished Execution 
			--------------------------

    Structure for next step:
    Molecular point group: c1
    Full point group: C1

    Geometry (in Angstrom), charge = 0, multiplicity = 1:

    H           -2.272125232311     0.051433686839     0.691026379857
    H           -2.146554459744     1.709247449408     0.084546558478
    H           -1.838695328228     0.345326625101    -1.000264407139
    C           -1.713666344251     0.708476609245     0.021862421102
    H            0.302933910638     1.397018590925    -0.269709160447
    H           -0.129445401493     1.104955952256     1.420283824239
    C           -0.230395070580     0.720441963169     0.402873550262
    H            0.770139601472    -0.990667651854     1.296198354073
    H           -0.365192255676    -1.408196361347     0.005807505251
    C            0.399316520816    -0.690426221919     0.313576750486
    H            1.990967987707    -1.736778860690    -0.745698092620
    H            2.342483651840    -0.039135844509    -0.392645476559
    H            1.206351911344    -0.457695420020    -1.684357111304
    C            1.556430256939    -0.736435393555    -0.688357217999

gradient() will perform analytic gradient computation.
    SCF Algorithm Type (re)set to DF.

*** tstart() called on lski1497
*** at Thu Feb 16 16:23:31 2017


         ---------------------------------------------------------
                                   SCF
            by Justin Turney, Rob Parrish, and Andy Simmonett
                              RHF Reference
                        1 Threads,   1000 MiB Core
         ---------------------------------------------------------

  ==> Geometry <==

    Molecular point group: c1
    Full point group: C1

    Geometry (in Angstrom), charge = 0, multiplicity = 1:

       Center              X                  Y                   Z               Mass       
    ------------   -----------------  -----------------  -----------------  -----------------
           H         -2.272125232311     0.051433686839     0.691026379857     1.007825032070
           H         -2.146554459744     1.709247449408     0.084546558478     1.007825032070
           H         -1.838695328228     0.345326625101    -1.000264407139     1.007825032070
           C         -1.713666344251     0.708476609245     0.021862421102    12.000000000000
           H          0.302933910638     1.397018590925    -0.269709160447     1.007825032070
           H         -0.129445401493     1.104955952256     1.420283824239     1.007825032070
           C         -0.230395070580     0.720441963169     0.402873550262    12.000000000000
           H          0.770139601472    -0.990667651854     1.296198354073     1.007825032070
           H         -0.365192255676    -1.408196361347     0.005807505251     1.007825032070
           C          0.399316520816    -0.690426221919     0.313576750486    12.000000000000
           H          1.990967987707    -1.736778860690    -0.745698092620     1.007825032070
           H          2.342483651840    -0.039135844509    -0.392645476559     1.007825032070
           H          1.206351911344    -0.457695420020    -1.684357111304     1.007825032070
           C          1.556430256939    -0.736435393555    -0.688357217999    12.000000000000

  Running in c1 symmetry.

  Rotational constants: A =      0.59598  B =      0.12727  C =      0.12723 [cm^-1]
  Rotational constants: A =  17867.11815  B =   3815.35007  C =   3814.13968 [MHz]
  Nuclear repulsion =  131.142597480177187

  Charge       = 0
  Multiplicity = 1
  Electrons    = 34
  Nalpha       = 17
  Nbeta        = 17

  ==> Algorithm <==

  SCF Algorithm Type is DF.
  DIIS enabled.
  MOM disabled.
  Fractional occupation disabled.
  Guess Type is READ.
  Energy threshold   = 1.00e-10
  Density threshold  = 1.00e-10
  Integral threshold = 0.00e+00

  ==> Primary Basis <==

  Basis Set: 6-31G(D)
    Number of shells: 44
    Number of basis function: 80
    Number of Cartesian functions: 80
    Spherical Harmonics?: false
    Max angular momentum: 2

  ==> Pre-Iterations <==

   -------------------------------------------------------
    Irrep   Nso     Nmo     Nalpha   Nbeta   Ndocc  Nsocc
   -------------------------------------------------------
     A         80      80       0       0       0       0
   -------------------------------------------------------
    Total      80      80      17      17      17       0
   -------------------------------------------------------

  ==> Integral Setup <==

  ==> DFJK: Density-Fitted J/K Matrices <==

    J tasked:                  Yes
    K tasked:                  Yes
    wK tasked:                  No
    OpenMP threads:              1
    Integrals threads:           1
    Memory (MB):               715
    Algorithm:                Core
    Integral Cache:           NONE
    Schwarz Cutoff:          1E-12
    Fitting Condition:       1E-12

   => Auxiliary Basis Set <=

  Basis Set: 
    Number of shells: 186
    Number of basis function: 574
    Number of Cartesian functions: 574
    Spherical Harmonics?: false
    Max angular momentum: 3

  Minimum eigenvalue in the overlap matrix is 5.0152027969E-03.
  Using Symmetric Orthogonalization.
  SCF Guess was Projection but file not found.
  Switching over to SAD guess.

  SCF Guess: Superposition of Atomic Densities via on-the-fly atomic UHF.

  ==> Iterations <==

                           Total Energy        Delta E     RMS |[F,P]|

   @DF-RHF iter   0:  -158.83491789622531   -1.58835e+02   4.61682e-02 
   @DF-RHF iter   1:  -157.20298359346202    1.63193e+00   3.89386e-03 
   @DF-RHF iter   2:  -157.28306905380100   -8.00855e-02   1.11271e-03 DIIS
   @DF-RHF iter   3:  -157.29131691863927   -8.24786e-03   2.68108e-04 DIIS
   @DF-RHF iter   4:  -157.29171351079776   -3.96592e-04   7.71400e-05 DIIS
   @DF-RHF iter   5:  -157.29175175402543   -3.82432e-05   1.22228e-05 DIIS
   @DF-RHF iter   6:  -157.29175290856665   -1.15454e-06   1.57416e-06 DIIS
   @DF-RHF iter   7:  -157.29175292645942   -1.78928e-08   3.74566e-07 DIIS
   @DF-RHF iter   8:  -157.29175292718048   -7.21059e-10   1.09976e-07 DIIS
   @DF-RHF iter   9:  -157.29175292725267   -7.21911e-11   2.79753e-08 DIIS
   @DF-RHF iter  10:  -157.29175292725847   -5.79803e-12   5.70598e-09 DIIS
   @DF-RHF iter  11:  -157.29175292725893   -4.54747e-13   9.09635e-10 DIIS
   @DF-RHF iter  12:  -157.29175292725870    2.27374e-13   2.15247e-10 DIIS
   @DF-RHF iter  13:  -157.29175292725859    1.13687e-13   5.56077e-11 DIIS

  ==> Post-Iterations <==

    Orbital Energies (a.u.)
    -----------------------

    Doubly Occupied:                                                      

       1A    -11.214803     2A    -11.214257     3A    -11.209749  
       4A    -11.209741     5A     -1.066833     6A     -0.977879  
       7A     -0.859529     8A     -0.785396     9A     -0.630907  
      10A     -0.599888    11A     -0.578885    12A     -0.550471  
      13A     -0.508926    14A     -0.506906    15A     -0.465975  
      16A     -0.457271    17A     -0.450270  

    Virtual:                                                              

      18A      0.231890    19A      0.268598    20A      0.284284  
      21A      0.292272    22A      0.317084    23A      0.324464  
      24A      0.328998    25A      0.336820    26A      0.345095  
      27A      0.355024    28A      0.411689    29A      0.450498  
      30A      0.457443    31A      0.713947    32A      0.723735  
      33A      0.734965    34A      0.790051    35A      0.807694  
      36A      0.818344    37A      0.836480    38A      0.935227  
      39A      0.941673    40A      0.995675    41A      1.063607  
      42A      1.098717    43A      1.154779    44A      1.155814  
      45A      1.169021    46A      1.188700    47A      1.190830  
      48A      1.205315    49A      1.235027    50A      1.235550  
      51A      1.248759    52A      1.253986    53A      1.262462  
      54A      1.445262    55A      1.679279    56A      1.740231  
      57A      1.774306    58A      1.903342    59A      1.987757  
      60A      2.068233    61A      2.195320    62A      2.225977  
      63A      2.276486    64A      2.302261    65A      2.348786  
      66A      2.438123    67A      2.479388    68A      2.605056  
      69A      2.640574    70A      2.649175    71A      2.718202  
      72A      2.730535    73A      2.774504    74A      2.892014  
      75A      3.012634    76A      3.071719    77A      4.555997  
      78A      4.651039    79A      4.812737    80A      4.959325  

    Final Occupation by Irrep:
              A 
    DOCC [    17 ]

  Energy converged.

  @DF-RHF Final Energy:  -157.29175292725859

   => Energetics <=

    Nuclear Repulsion Energy =            131.1425974801771872
    One-Electron Energy =                -470.2933288230742619
    Two-Electron Energy =                 181.8589784156382905
    DFT Exchange-Correlation Energy =       0.0000000000000000
    Empirical Dispersion Energy =           0.0000000000000000
    PCM Polarization Energy =               0.0000000000000000
    EFP Energy =                            0.0000000000000000
    Total Energy =                       -157.2917529272587842


  Saving occupied orbitals to File 180.

*** tstop() called on lski1497 at Thu Feb 16 16:23:38 2017
Module time:
	user time   =       5.75 seconds =       0.10 minutes
	system time =       0.16 seconds =       0.00 minutes
	total time  =          7 seconds =       0.12 minutes
Total time:
	user time   =      55.51 seconds =       0.93 minutes
	system time =       1.60 seconds =       0.03 minutes
	total time  =         65 seconds =       1.08 minutes


Properties will be evaluated at   0.000000,   0.000000,   0.000000 Bohr

Properties computed using the SCF density matrix

  Nuclear Dipole Moment: (a.u.)
     X:    -0.1304      Y:    -0.0230      Z:    -0.5576

  Electronic Dipole Moment: (a.u.)
     X:     0.1371      Y:     0.0241      Z:     0.5858

  Dipole Moment: (a.u.)
     X:     0.0067      Y:     0.0012      Z:     0.0282     Total:     0.0290

  Dipole Moment: (Debye)
     X:     0.0170      Y:     0.0029      Z:     0.0717     Total:     0.0737


  //>>>>>>>>>>>>>>>>>>>>>>>>>>>>>>>>>>>//
  //               DFMP2               //
  //<<<<<<<<<<<<<<<<<<<<<<<<<<<<<<<<<<<//


*** tstart() called on lski1497
*** at Thu Feb 16 16:23:38 2017


*** tstop() called on lski1497 at Thu Feb 16 16:23:39 2017
Module time:
	user time   =       0.64 seconds =       0.01 minutes
	system time =       0.01 seconds =       0.00 minutes
	total time  =          1 seconds =       0.02 minutes
Total time:
	user time   =      56.17 seconds =       0.94 minutes
	system time =       1.61 seconds =       0.03 minutes
	total time  =         66 seconds =       1.10 minutes
	 --------------------------------------------------------
	                          DF-MP2                         
	      2nd-Order Density-Fitted Moller-Plesset Theory     
	              RMP2 Wavefunction,   1 Threads             
	                                                         
	        Rob Parrish, Justin Turney, Andy Simmonett,      
	           Ed Hohenstein, and C. David Sherrill          
	 --------------------------------------------------------

   => Auxiliary Basis Set <=

  Basis Set: 
    Number of shells: 132
    Number of basis function: 364
    Number of Cartesian functions: 414
    Spherical Harmonics?: true
    Max angular momentum: 3

	 --------------------------------------------------------
	                 NBF =    80, NAUX =   364
	 --------------------------------------------------------
	   CLASS    FOCC     OCC    AOCC    AVIR     VIR    FVIR
	   PAIRS       0      17      17      63      63       0
	 --------------------------------------------------------

DGAS Warning! /src/lib/libfock/apps.cc:80 is not currently checking restricted

         ------------------------------------------------------------
                                     CPHF                           
                                  Rob Parrish                       
         ------------------------------------------------------------

  ==> Geometry <==

    Molecular point group: c1
    Full point group: C1

    Geometry (in Angstrom), charge = 0, multiplicity = 1:

       Center              X                  Y                   Z               Mass       
    ------------   -----------------  -----------------  -----------------  -----------------
           H         -2.272125232311     0.051433686839     0.691026379857     1.007825032070
           H         -2.146554459744     1.709247449408     0.084546558478     1.007825032070
           H         -1.838695328228     0.345326625101    -1.000264407139     1.007825032070
           C         -1.713666344251     0.708476609245     0.021862421102    12.000000000000
           H          0.302933910638     1.397018590925    -0.269709160447     1.007825032070
           H         -0.129445401493     1.104955952256     1.420283824239     1.007825032070
           C         -0.230395070580     0.720441963169     0.402873550262    12.000000000000
           H          0.770139601472    -0.990667651854     1.296198354073     1.007825032070
           H         -0.365192255676    -1.408196361347     0.005807505251     1.007825032070
           C          0.399316520816    -0.690426221919     0.313576750486    12.000000000000
           H          1.990967987707    -1.736778860690    -0.745698092620     1.007825032070
           H          2.342483651840    -0.039135844509    -0.392645476559     1.007825032070
           H          1.206351911344    -0.457695420020    -1.684357111304     1.007825032070
           C          1.556430256939    -0.736435393555    -0.688357217999    12.000000000000

  Nuclear repulsion =  131.142597480177187
  Reference energy  = -157.291752927258585

  ==> Basis Set <==

  Basis Set: 6-31G(D)
    Number of shells: 44
    Number of basis function: 80
    Number of Cartesian functions: 80
    Spherical Harmonics?: false
    Max angular momentum: 2

  ==> CGRSolver (by Rob Parrish) <==

   Number of roots    =         1
   Preconditioning    =    JACOBI
   Convergence cutoff =     1E-06
   Maximum iterations =       100

  ==> CPHFRHamiltonian (by Rob Parrish) <== 

  ==> DFJK: Density-Fitted J/K Matrices <==

    J tasked:                  Yes
    K tasked:                  Yes
[...]
    Memory (MB):               715
    Algorithm:                Core
    Integral Cache:           NONE
    Schwarz Cutoff:          1E-12
    Fitting Condition:       1E-12

   => Auxiliary Basis Set <=

  Basis Set: 
    Number of shells: 186
    Number of basis function: 574
    Number of Cartesian functions: 574
    Spherical Harmonics?: false
    Max angular momentum: 3

  ==> CPHF Iterations <==

  => Iterations <=

             Iter  Converged  Remaining    Residual
  CGR           1          0          1   7.520E-02
  CGR           2          0          1   9.295E-03
  CGR           3          0          1   2.774E-03
  CGR           4          0          1   4.129E-04
  CGR           5          0          1   8.040E-05
  CGR           6          0          1   1.825E-05
  CGR           7          0          1   2.905E-06
  CGR           8          1          0   5.502E-07

    CGRSolver converged.

  ==> DFCorrGrad: Density-Fitted Correlated Gradients <==

    OpenMP threads:              1
    Integrals threads:           1
    Memory (MB):               715
    Schwarz Cutoff:          0E+00
    Fitting Condition:       1E-12

   => Auxiliary Basis Set <=

  Basis Set: 
    Number of shells: 186
    Number of basis function: 510
    Number of Cartesian functions: 574
    Spherical Harmonics?: true
    Max angular momentum: 3

	-----------------------------------------------------------
	 ==================> DF-MP2 Energies <==================== 
	-----------------------------------------------------------
	 Reference Energy          =    -157.2920388756989496 [Eh]
	 Singles Energy            =      -0.0000000000000000 [Eh]
	 Same-Spin Energy          =      -0.1242727841217412 [Eh]
	 Opposite-Spin Energy      =      -0.4224171220240664 [Eh]
	 Correlation Energy        =      -0.5466899061458076 [Eh]
	 Total Energy              =    -157.8387287818447646 [Eh]
	-----------------------------------------------------------
	 ================> DF-SCS-MP2 Energies <================== 
	-----------------------------------------------------------
	 SCS Same-Spin Scale       =       0.3333333333333333 [-]
	 SCS Opposite-Spin Scale   =       1.2000000000000000 [-]
	 SCS Same-Spin Energy      =      -0.0414242613739137 [Eh]
	 SCS Opposite-Spin Energy  =      -0.5069005464288796 [Eh]
	 SCS Correlation Energy    =      -0.5483248078027934 [Eh]
	 SCS Total Energy          =    -157.8403636835017494 [Eh]
	-----------------------------------------------------------


  -Total Gradient:
     Atom            X                  Y                   Z
    ------   -----------------  -----------------  -----------------
       1        0.000001934994    -0.000006004174    -0.000003915543
       2       -0.000013353917     0.000001110801     0.000001534467
       3        0.000004152929     0.000006310949     0.000000597140
       4        0.000065597206     0.000025597168    -0.000065195980
       5        0.000000232923     0.000000409836     0.000027569815
       6       -0.000022570074     0.000008867854    -0.000013349434
       7       -0.000079369917     0.000020989385     0.000059959944
       8        0.000014713637    -0.000010504902    -0.000021474135
       9        0.000012387373     0.000001925906     0.000024655300
      10        0.000098667417    -0.000017795909     0.000020824938
      11        0.000011898351    -0.000001071205    -0.000004367055
      12       -0.000004521931     0.000005158791    -0.000002773298
      13       -0.000003508134    -0.000006236980     0.000003226413
      14       -0.000086260858    -0.000028757520    -0.000027292573


			-----------------------------------------
			 OPTKING 2.0: for geometry optimizations 
			  - R.A. King,  Bethel University        
			-----------------------------------------

	Previous internal coordinate definitions found.
	---Fragment 1 Geometry and Gradient---
	 H          -4.3214544631        0.1136101466        1.3165152711
	 H          -4.0636011321        3.2382799657        0.1576853556
	 H          -3.5093523289        0.6452069756       -1.8782724451
	 C          -3.2454186640        1.3431003680        0.0501871718
	 H           0.5579060107        2.6577850558       -0.4925155702
	 H          -0.2326483987        2.1108956342        2.6689197544
	 C          -0.4505243788        1.3486675175        0.7570922859
	 H           1.4376179968       -1.8961756498        2.4435515425
	 H          -0.6690892305       -2.6776006819        0.0207635417
	 C           0.7659739497       -1.2924565299        0.5813050478
	 H           3.7675012275       -3.2910494491       -1.4138501318
	 H           4.4564512067       -0.0895954609       -0.7437828625
	 H           2.3152953300       -0.8579344646       -3.1879383295
	 C           2.9519206798       -1.3953994887       -1.2954510690
	             0.0000019350       -0.0000060042       -0.0000039155
	            -0.0000133539        0.0000011108        0.0000015345
	             0.0000041529        0.0000063109        0.0000005971
	             0.0000655972        0.0000255972       -0.0000651960
	             0.0000002329        0.0000004098        0.0000275698
	            -0.0000225701        0.0000088679       -0.0000133494
	            -0.0000793699        0.0000209894        0.0000599599
	             0.0000147136       -0.0000105049       -0.0000214741
	             0.0000123874        0.0000019259        0.0000246553
	             0.0000986674       -0.0000177959        0.0000208249
	             0.0000118984       -0.0000010712       -0.0000043671
	            -0.0000045219        0.0000051588       -0.0000027733
	            -0.0000035081       -0.0000062370        0.0000032264
	            -0.0000862609       -0.0000287575       -0.0000272926

	---Fragment 1 Intrafragment Coordinates---
	 - Coordinate -           - BOHR/RAD -       - ANG/DEG -
	 R(1,4)           =         2.067144	       1.093886
	 R(2,4)           =         2.067047	       1.093834
	 R(3,4)           =         2.067770	       1.094217
	 R(4,7)           =         2.882912	       1.525571
	 R(5,7)           =         2.071772	       1.096335
	 R(6,7)           =         2.069673	       1.095224
	 R(7,10)          =         2.913126	       1.541560
	 R(8,10)          =         2.069673	       1.095224
	 R(9,10)          =         2.071772	       1.096334
	 R(10,14)         =         2.882911	       1.525571
	 R(11,14)         =         2.067046	       1.093834
	 R(12,14)         =         2.067142	       1.093884
	 R(13,14)         =         2.067769	       1.094216
	 B(1,4,2)         =         1.883280	     107.903997
	 B(1,4,3)         =         1.879831	     107.706400
	 B(1,4,7)         =         1.934337	     110.829362
	 B(2,4,3)         =         1.883283	     107.904175
	 B(2,4,7)         =         1.948960	     111.667184
	 B(3,4,7)         =         1.931659	     110.675921
	 B(4,7,5)         =         1.902030	     108.978263
	 B(4,7,6)         =         1.906329	     109.224619
	 B(4,7,10)        =         1.969577	     112.848475
	 B(5,7,6)         =         1.847520	     105.855106
	 B(5,7,10)        =         1.910518	     109.464622
	 B(6,7,10)        =         1.923758	     110.223187
	 B(7,10,8)        =         1.923762	     110.223430
	 B(7,10,9)        =         1.910518	     109.464616
	 B(7,10,14)       =         1.969575	     112.848333
	 B(8,10,9)        =         1.847521	     105.855176
	 B(8,10,14)       =         1.906328	     109.224541
	 B(9,10,14)       =         1.902028	     108.978185
	 B(10,14,11)      =         1.948956	     111.666936
	 B(10,14,12)      =         1.934334	     110.829157
	 B(10,14,13)      =         1.931658	     110.675834
	 B(11,14,12)      =         1.883284	     107.904251
	 B(11,14,13)      =         1.883284	     107.904235
	 B(12,14,13)      =         1.879836	     107.706658
	 D(1,4,7,5)       =        -3.099519	    -177.589385
	 D(1,4,7,6)       =        -1.088769	     -62.381853
	 D(1,4,7,10)      =         1.057462	      60.588136
	 D(2,4,7,5)       =        -0.999255	     -57.253087
	 D(2,4,7,6)       =         1.011496	      57.954444
	 D(2,4,7,10)      =        -3.125458	    -179.075567
	 D(3,4,7,5)       =         1.099189	      62.978889
	 D(3,4,7,6)       =         3.109940	     178.186421
	 D(3,4,7,10)      =        -1.027014	     -58.843591
	 D(4,7,10,8)      =        -2.052281	    -117.587030
	 D(4,7,10,9)      =        -0.026995	      -1.546698
	 D(4,7,10,14)     =         2.094410	     120.000861
	 D(5,7,10,8)      =         2.109496	     120.865212
	 D(5,7,10,9)      =        -2.148404	    -123.094457
	 D(5,7,10,14)     =        -0.026998	      -1.546898
	 D(6,7,10,8)      =         0.084214	       4.825101
	 D(6,7,10,9)      =         2.109500	     120.865432
	 D(6,7,10,14)     =        -2.052280	    -117.587008
	 D(7,10,14,11)    =        -3.125426	    -179.073716
	 D(7,10,14,12)    =         1.057494	      60.589971
	 D(7,10,14,13)    =        -1.026985	     -58.841889
	 D(8,10,14,11)    =         1.011525	      57.956137
	 D(8,10,14,12)    =        -1.088739	     -62.380176
	 D(8,10,14,13)    =         3.109967	     178.187964
	 D(9,10,14,11)    =        -0.999225	     -57.251393
	 D(9,10,14,12)    =        -3.099490	    -177.587705
	 D(9,10,14,13)    =         1.099216	      62.980434

	Current energy   :      -157.8387287818

	Energy change for the previous step:
		Projected    :         0.0000024816
		Actual       :        -0.0000007494

	Performing BFGS update.
	Previous computed or guess Hessian on step 1.
	Steps to be used in Hessian update: 5 4
	Adding user-defined constraint: Fragment 1; Coordinate 49:
		Value =     2.094410; Fixed value    =     2.094400
		Force =    -0.000006; Force constant =     0.625000
	Removing off-diagonal coupling between coordinate 49 and others.
	Taking RFO optimization step.
	Going to follow RFO solution 1.
	Using RFO vector 1.
	Norm of target step-size    0.00452
	Projected energy change by RFO approximation:         0.0000002268

	Back-transformation to cartesian coordinates...
	Could not converge backtransformation.
	Using first guess instead.

	--- Internal Coordinate Step in ANG or DEG, aJ/ANG or AJ/DEG ---
	 ---------------------------------------------------------------------------
	   Coordinate                Previous        Force       Change         New 
	   ----------                --------       ------       ------       ------
	    1 R(1,4)          =      1.093886    -0.000001    -0.000016     1.093870
	    2 R(2,4)          =      1.093834    -0.000053    -0.000025     1.093810
	    3 R(3,4)          =      1.094217     0.000027    -0.000016     1.094201
	    4 R(4,7)          =      1.525571     0.000332     0.000076     1.525647
	    5 R(5,7)          =      1.096335     0.000134     0.000020     1.096355
	    6 R(6,7)          =      1.095224     0.000094     0.000007     1.095230
	    7 R(7,10)         =      1.541560    -0.000583    -0.000101     1.541459
	    8 R(8,10)         =      1.095224     0.000095     0.000007     1.095230
	    9 R(9,10)         =      1.096334     0.000136     0.000020     1.096354
	   10 R(10,14)        =      1.525571     0.000339     0.000075     1.525646
	   11 R(11,14)        =      1.093834    -0.000049    -0.000025     1.093809
	   12 R(12,14)        =      1.093884     0.000007    -0.000014     1.093870
	   13 R(13,14)        =      1.094216     0.000029    -0.000015     1.094202
	   14 B(1,4,2)        =    107.903997     0.000000     0.000611   107.904609
	   15 B(1,4,3)        =    107.706400    -0.000000     0.000902   107.707302
	   16 B(1,4,7)        =    110.829362     0.000000     0.001549   110.830911
	   17 B(2,4,3)        =    107.904175     0.000000     0.001990   107.906165
	   18 B(2,4,7)        =    111.667184    -0.000001    -0.005254   111.661930
	   19 B(3,4,7)        =    110.675921     0.000001     0.000424   110.676345
	   20 B(4,7,5)        =    108.978263     0.000001    -0.010457   108.967807
	   21 B(4,7,6)        =    109.224619    -0.000001     0.011175   109.235794
	   22 B(4,7,10)       =    112.848475     0.000000     0.002746   112.851221
	   23 B(5,7,6)        =    105.855106     0.000001     0.001444   105.856550
	   24 B(5,7,10)       =    109.464622    -0.000001    -0.006632   109.457989
	   25 B(6,7,10)       =    110.223187    -0.000001     0.001492   110.224679
	   26 B(7,10,8)       =    110.223430    -0.000001     0.001250   110.224680
	   27 B(7,10,9)       =    109.464616    -0.000001    -0.006648   109.457969
	   28 B(7,10,14)      =    112.848333     0.000000     0.002873   112.851206
	   29 B(8,10,9)       =    105.855176     0.000001     0.001393   105.856568
	   30 B(8,10,14)      =    109.224541    -0.000001     0.011282   109.235824
	   31 B(9,10,14)      =    108.978185     0.000001    -0.010389   108.967796
	   32 B(10,14,11)     =    111.666936    -0.000001    -0.005047   111.661889
	   33 B(10,14,12)     =    110.829157     0.000000     0.001814   110.830971
	   34 B(10,14,13)     =    110.675834     0.000001     0.000464   110.676298
	   35 B(11,14,12)     =    107.904251     0.000000     0.000379   107.904630
	   36 B(11,14,13)     =    107.904235     0.000000     0.001919   107.906153
	   37 B(12,14,13)     =    107.706658    -0.000000     0.000663   107.707321
	   38 D(1,4,7,5)      =   -177.589385     0.000000     0.052596  -177.536788
	   39 D(1,4,7,6)      =    -62.381853     0.000000     0.054673   -62.327180
	   40 D(1,4,7,10)     =     60.588136    -0.000000     0.066627    60.654763
	   41 D(2,4,7,5)      =    -57.253087     0.000000     0.050892   -57.202195
	   42 D(2,4,7,6)      =     57.954444     0.000000     0.052969    58.007414
	   43 D(2,4,7,10)     =   -179.075567    -0.000000     0.064923  -179.010644
	   44 D(3,4,7,5)      =     62.978889    -0.000000     0.050189    63.029078
	   45 D(3,4,7,6)      =    178.186421     0.000000     0.052266   178.238687
	   46 D(3,4,7,10)     =    -58.843591    -0.000000     0.064220   -58.779371
	   47 D(4,7,10,8)     =   -117.587030     0.000001     0.025600  -117.561429
	   48 D(4,7,10,9)     =     -1.546698     0.000001     0.024128    -1.522570
	   49 D(4,7,10,14)    =    120.000861     0.000001     0.008067   120.008928
	   50 D(5,7,10,8)     =    120.865212     0.000000     0.041822   120.907034
	   51 D(5,7,10,9)     =   -123.094457     0.000000     0.040351  -123.054107
	   52 D(5,7,10,14)    =     -1.546898     0.000001     0.024289    -1.522608
	   53 D(6,7,10,8)     =      4.825101     0.000000     0.043084     4.868185
	   54 D(6,7,10,9)     =    120.865432     0.000000     0.041612   120.907044
	   55 D(6,7,10,14)    =   -117.587008     0.000001     0.025550  -117.561458
	   56 D(7,10,14,11)   =   -179.073716    -0.000000     0.063225  -179.010491
	   57 D(7,10,14,12)   =     60.589971    -0.000000     0.064904    60.654875
	   58 D(7,10,14,13)   =    -58.841889    -0.000000     0.062598   -58.779291
	   59 D(8,10,14,11)   =     57.956137     0.000000     0.051418    58.007555
	   60 D(8,10,14,12)   =    -62.380176     0.000000     0.053096   -62.327079
	   61 D(8,10,14,13)   =    178.187964     0.000000     0.050790   178.238754
	   62 D(9,10,14,11)   =    -57.251393     0.000000     0.049307   -57.202086
	   63 D(9,10,14,12)   =   -177.587705     0.000000     0.050985  -177.536720
	   64 D(9,10,14,13)   =     62.980434    -0.000000     0.048679    63.029114
	 ---------------------------------------------------------------------------
	 Forces used to impose fixed constraints are not included.
	  Forces zeroed: 49 

  ==> Convergence Check <==

  Measures of convergence in internal coordinates in au.
  Criteria marked as inactive (o), active & met (*), and active & unmet ( ).
  ---------------------------------------------------------------------------------------------
   Step     Total Energy     Delta E     MAX Force     RMS Force      MAX Disp      RMS Disp   
  ---------------------------------------------------------------------------------------------
    Convergence Criteria    1.00e-06 *    3.00e-04 *             o    1.20e-03 *             o
  ---------------------------------------------------------------------------------------------
      6    -157.83872878   -7.49e-07 *    7.08e-05 *    1.63e-05 o    1.16e-03 *    5.66e-04 o  ~
  ---------------------------------------------------------------------------------------------


  **** Optimization is complete! (in 6 steps) ****

  ==> Optimization Summary <==

  Measures of convergence in internal coordinates in au.
  --------------------------------------------------------------------------------------------------------------- ~
   Step         Total Energy             Delta E       MAX Force       RMS Force        MAX Disp        RMS Disp  ~
  --------------------------------------------------------------------------------------------------------------- ~
      1    -157.832706243650   -157.832706243650      0.01731360      0.00729782      0.02701017      0.01250806  ~
      2    -157.836828780128     -0.004122536477      0.00720211      0.00322900      0.02299586      0.01252098  ~
      3    -157.838326113890     -0.001497333763      0.00165963      0.00097822      0.03708439      0.01251257  ~
      4    -157.838705894592     -0.000379780701      0.00137556      0.00025629      0.01342030      0.00540710  ~
      5    -157.838728032405     -0.000022137814      0.00013674      0.00005290      0.00470934      0.00208129  ~
      6    -157.838728781845     -0.000000749439      0.00007076      0.00001738      0.00116286      0.00056555  ~
  --------------------------------------------------------------------------------------------------------------- ~

	Writing optimization data to binary file.
	Final energy is   -157.8387287818448
	Final (previous) structure:
	Cartesian Geometry (in Angstrom)
	    H    -2.2868152098   0.0601199002   0.6966698762
	    H    -2.1503651039   1.7136239529   0.0834434963
	    H    -1.8570692694   0.3414288263  -0.9939389695
	    C    -1.7174015893   0.7107381036   0.0265579075
	    H     0.2952311454   1.4064392768  -0.2606280146
	    H    -0.1231122302   1.1170378593   1.4123315056
	    C    -0.2384072332   0.7136841122   0.4006359825
	    H     0.7607546786  -1.0034129373   1.2930717843
	    H    -0.3540667713  -1.4169252546   0.0109875930
	    C     0.4053359565  -0.6839385387   0.3076133825
	    H     1.9936757829  -1.7415483608  -0.7481772661
	    H     2.3582524098  -0.0474118759  -0.3935929390
	    H     1.2252015198  -0.4539993651  -1.6869843064
	    C     1.5620891453  -0.7384136063  -0.6855231806
	Saving final (previous) structure.
			--------------------------
			 OPTKING Finished Execution 
			--------------------------

    Final optimized geometry and variables:
    Molecular point group: c1
    Full point group: C1

    Geometry (in Angstrom), charge = 0, multiplicity = 1:

    H           -2.286815209814     0.060119900239     0.696669876249
    H           -2.150365103902     1.713623952898     0.083443496320
    H           -1.857069269357     0.341428826312    -0.993938969469
    C           -1.717401589305     0.710738103592     0.026557907483
    H            0.295231145394     1.406439276837    -0.260628014628
    H           -0.123112230213     1.117037859339     1.412331505598
    C           -0.238407233191     0.713684112225     0.400635982524
    H            0.760754678588    -1.003412937340     1.293071784283
    H           -0.354066771271    -1.416925254552     0.010987593018
    C            0.405335956531    -0.683938538723     0.307613382531
    H            1.993675782925    -1.741548360804    -0.748177266093
    H            2.358252409769    -0.047411875925    -0.393592938983
    H            1.225201519786    -0.453999365108    -1.686984306372
    C            1.562089145309    -0.738413606317    -0.685523180554

	Cleaning optimization helper files.

*** Psi4 exiting successfully. Buy a developer a beer!
