    -----------------------------------------------------------------------
          Psi4: An Open-Source Ab Initio Electronic Structure Package
                              Psi4 1.0.0 Driver

                          Git: Rev {master} 6a9a71b 

    J. M. Turney, A. C. Simmonett, R. M. Parrish, E. G. Hohenstein,
    F. A. Evangelista, J. T. Fermann, B. J. Mintz, L. A. Burns, J. J. Wilke,
    M. L. Abrams, N. J. Russ, M. L. Leininger, C. L. Janssen, E. T. Seidl,
    W. D. Allen, H. F. Schaefer, R. A. King, E. F. Valeev, C. D. Sherrill,
    and T. D. Crawford, WIREs Comput. Mol. Sci. 2, 556-565 (2012)
    (doi: 10.1002/wcms.93)

                         Additional Contributions by
    A. E. DePrince, U. Bozkaya, A. Yu. Sokolov, D. G. A. Smith, R. Di Remigio,
    R. M. Richard, J. F. Gonthier, H. R. McAlexander, M. Saitow, and
    B. P. Pritchard
    -----------------------------------------------------------------------


    Psi4 started on: Tue Feb 21 19:27:25 2017

    Process ID:  46609
    PSI4DATADIR: /Users/sternc1/anaconda/share/psi4
    Memory level set to 256.000 MB

  ==> Input File <==

--------------------------------------------------------------------------

memory 1000 mb

molecule butane {
  symmetry C1
  0 1 
  H      1.604   0.760   -8.260
  H      1.745   2.388   -8.880
  H      2.043   1.024   -9.930
  C      2.142   1.395   -8.932
  H      4.169   2.051   -9.210
  H      3.731   1.788   -7.539
  C      3.631   1.416   -8.537
  H      4.589   -0.190   -9.594
  H      4.989   -0.119   -7.895
  C      4.203   -0.012   -8.612
  H      3.486   -2.021   -8.359
  H      2.301   -0.922   -9.024
  H      2.701   -0.852   -7.325
  C      3.088   -1.029   -8.307
  units Angstrom
}

dih_string = "4 7 10 14 330"
set optking fixed_dihedral = $dih_string

optimize('B3LYP/cc-PVDZ')
--------------------------------------------------------------------------

  Memory set to 1000.000 MiB by Python script.
gradient() will perform analytic gradient computation.

*** tstart() called on lski1497
*** at Tue Feb 21 19:27:27 2017


         ---------------------------------------------------------
                                   SCF
            by Justin Turney, Rob Parrish, and Andy Simmonett
                              RKS Reference
                        1 Threads,   1000 MiB Core
         ---------------------------------------------------------

  ==> Geometry <==

    Molecular point group: c1
    Full point group: C1

    Geometry (in Angstrom), charge = 0, multiplicity = 1:

       Center              X                  Y                   Z               Mass       
    ------------   -----------------  -----------------  -----------------  -----------------
           H         -1.639406547468     0.326488792943     0.337798232578     1.007825032070
           H         -1.498406547468     1.954488792943    -0.282201767422     1.007825032070
           H         -1.200406547468     0.590488792943    -1.332201767422     1.007825032070
           C         -1.101406547468     0.961488792943    -0.334201767422    12.000000000000
           H          0.925593452532     1.617488792943    -0.612201767422     1.007825032070
           H          0.487593452532     1.354488792943     1.058798232578     1.007825032070
           C          0.387593452532     0.982488792943     0.060798232578    12.000000000000
           H          1.345593452532    -0.623511207057    -0.996201767422     1.007825032070
           H          1.745593452532    -0.552511207057     0.702798232578     1.007825032070
           C          0.959593452532    -0.445511207057    -0.014201767422    12.000000000000
           H          0.242593452532    -2.454511207057     0.238798232578     1.007825032070
           H         -0.942406547468    -1.355511207057    -0.426201767422     1.007825032070
           H         -0.542406547468    -1.285511207057     1.272798232578     1.007825032070
           C         -0.155406547468    -1.462511207057     0.290798232578    12.000000000000

  Running in c1 symmetry.

  Rotational constants: A =      0.38640  B =      0.20047  C =      0.14895 [cm^-1]
  Rotational constants: A =  11583.88646  B =   6010.03908  C =   4465.42997 [MHz]
  Nuclear repulsion =  136.008553233335533

  Charge       = 0
  Multiplicity = 1
  Electrons    = 34
  Nalpha       = 17
  Nbeta        = 17

  ==> Algorithm <==

  SCF Algorithm Type is DF.
  DIIS enabled.
  MOM disabled.
  Fractional occupation disabled.
  Guess Type is SAD.
  Energy threshold   = 1.00e-08
  Density threshold  = 1.00e-08
  Integral threshold = 0.00e+00

  ==> Primary Basis <==

  Basis Set: CC-PVDZ
    Number of shells: 54
    Number of basis function: 106
    Number of Cartesian functions: 110
    Spherical Harmonics?: true
    Max angular momentum: 2

  ==> DFT Potential <==

   => B3LYP Composite Functional <= 

    B3LYP Hybrid-GGA Exchange-Correlation Functional (VWN1-RPA)

    P.J. Stephens et. al., J. Phys. Chem., 98, 11623-11627, 1994

    Points   =           5000
    Deriv    =              1
    GGA      =           TRUE
    Meta     =          FALSE

    X_LRC        =          FALSE
    X_Hybrid     =           TRUE
    X_Alpha      =   2.000000E-01
    X_Omega      =   0.000000E+00
    C_LRC        =          FALSE
    C_Hybrid     =          FALSE
    C_Alpha      =   0.000000E+00
    C_Omega      =   0.000000E+00

   => Exchange Functionals <=

    0.8000    B3_X
    0.2000      HF 

   => Correlation Functionals <=

    0.1900 VWN3RPA_C
    0.8100   LYP_C

   => Molecular Quadrature <=

    Radial Scheme    =       TREUTLER
    Pruning Scheme   =           FLAT
    Nuclear Scheme   =       TREUTLER

    BS radius alpha  =              1
    Pruning alpha    =              1
    Radial Points    =             75
    Spherical Points =            302
    Total Points     =         312684
    Total Blocks     =            263
    Max Points       =           4932
    Max Functions    =            106

  ==> Pre-Iterations <==

   -------------------------------------------------------
    Irrep   Nso     Nmo     Nalpha   Nbeta   Ndocc  Nsocc
   -------------------------------------------------------
     A        106     106       0       0       0       0
   -------------------------------------------------------
    Total     106     106      17      17      17       0
   -------------------------------------------------------

  ==> Integral Setup <==

  ==> DFJK: Density-Fitted J/K Matrices <==

    J tasked:                  Yes
    K tasked:                  Yes
    wK tasked:                  No
    OpenMP threads:              1
    Integrals threads:           1
    Memory (MB):               715
    Algorithm:                Core
    Integral Cache:           NONE
    Schwarz Cutoff:          1E-12
    Fitting Condition:       1E-12

   => Auxiliary Basis Set <=

  Basis Set: 
    Number of shells: 186
    Number of basis function: 510
    Number of Cartesian functions: 574
    Spherical Harmonics?: true
    Max angular momentum: 3

  Minimum eigenvalue in the overlap matrix is 3.6831641920E-03.
  Using Symmetric Orthogonalization.
  SCF Guess: Superposition of Atomic Densities via on-the-fly atomic UHF.

  ==> Iterations <==

                           Total Energy        Delta E     RMS |[F,P]|

   @DF-RKS iter   0:  -159.02187127373656   -1.59022e+02   3.36289e-02 
   @DF-RKS iter   1:  -158.24594723101458    7.75924e-01   5.51345e-03 
   @DF-RKS iter   2:  -158.16281554240112    8.31317e-02   6.70110e-03 DIIS
   @DF-RKS iter   3:  -158.43712525659197   -2.74310e-01   4.04632e-04 DIIS
   @DF-RKS iter   4:  -158.43804405384216   -9.18797e-04   1.18229e-04 DIIS
   @DF-RKS iter   5:  -158.43811348449114   -6.94306e-05   4.56149e-05 DIIS
   @DF-RKS iter   6:  -158.43812462109167   -1.11366e-05   7.93571e-06 DIIS
   @DF-RKS iter   7:  -158.43812500902123   -3.87930e-07   1.04632e-06 DIIS
   @DF-RKS iter   8:  -158.43812501633391   -7.31268e-09   1.72983e-07 DIIS
   @DF-RKS iter   9:  -158.43812501647508   -1.41171e-10   8.90939e-08 DIIS
   @DF-RKS iter  10:  -158.43812501651780   -4.27178e-11   1.41906e-08 DIIS
   @DF-RKS iter  11:  -158.43812501651880   -9.94760e-13   1.85551e-09 DIIS

  ==> Post-Iterations <==

    Orbital Energies (a.u.)
    -----------------------

    Doubly Occupied:                                                      

       1A    -10.169642     2A    -10.169448     3A    -10.162170  
       4A    -10.162151     5A     -0.799197     6A     -0.712735  
       7A     -0.650233     8A     -0.561761     9A     -0.470906  
      10A     -0.458555    11A     -0.410820    12A     -0.389505  
      13A     -0.375152    14A     -0.359844    15A     -0.321855  
      16A     -0.319283    17A     -0.318010  

    Virtual:                                                              

      18A      0.061960    19A      0.096912    20A      0.101136  
      21A      0.110874    22A      0.133649    23A      0.136403  
      24A      0.161484    25A      0.171061    26A      0.176487  
      27A      0.190269    28A      0.206179    29A      0.240627  
      30A      0.269233    31A      0.414868    32A      0.428238  
      33A      0.442444    34A      0.447686    35A      0.466110  
      36A      0.484994    37A      0.492181    38A      0.597441  
      39A      0.598690    40A      0.631079    41A      0.632323  
      42A      0.656201    43A      0.669009    44A      0.671606  
      45A      0.677335    46A      0.690753    47A      0.703486  
      48A      0.706521    49A      0.735824    50A      0.744948  
      51A      0.781217    52A      0.827342    53A      0.876151  
      54A      0.916951    55A      0.973232    56A      1.076304  
      57A      1.188553    58A      1.210770    59A      1.211399  
      60A      1.284387    61A      1.316479    62A      1.365153  
      63A      1.432670    64A      1.434700    65A      1.505024  
      66A      1.570979    67A      1.581620    68A      1.597816  
      69A      1.603904    70A      1.639682    71A      1.646078  
      72A      1.667026    73A      1.687096    74A      1.699606  
      75A      1.700060    76A      1.709906    77A      1.723463  
      78A      1.773590    79A      1.777448    80A      1.813632  
      81A      1.822683    82A      1.863798    83A      1.888193  
      84A      1.929646    85A      1.972488    86A      1.974751  
      87A      2.014931    88A      2.111834    89A      2.128213  
      90A      2.162818    91A      2.230962    92A      2.270644  
      93A      2.288317    94A      2.322414    95A      2.362255  
      96A      2.373015    97A      2.499680    98A      2.501845  
      99A      2.528110   100A      2.555251   101A      2.576167  
     102A      2.598820   103A      2.649506   104A      2.669195  
     105A      2.715842   106A      2.778652  

    Final Occupation by Irrep:
              A 
    DOCC [    17 ]

  Energy converged.

  @DF-RKS Final Energy:  -158.43812501651880

   => Energetics <=

    Nuclear Repulsion Energy =            136.0085532333355332
    One-Electron Energy =                -480.3982118915881188
    Two-Electron Energy =                 206.6431738062544525
    DFT Exchange-Correlation Energy =     -20.6916401645206669
    Empirical Dispersion Energy =           0.0000000000000000
    PCM Polarization Energy =               0.0000000000000000
    EFP Energy =                            0.0000000000000000
    Total Energy =                       -158.4381250165187964


  Saving occupied orbitals to File 180.

*** tstop() called on lski1497 at Tue Feb 21 19:29:38 2017
Module time:
	user time   =     120.77 seconds =       2.01 minutes
	system time =       1.43 seconds =       0.02 minutes
	total time  =        131 seconds =       2.18 minutes
Total time:
	user time   =     120.77 seconds =       2.01 minutes
	system time =       1.43 seconds =       0.02 minutes
	total time  =        131 seconds =       2.18 minutes


Properties will be evaluated at   0.000000,   0.000000,   0.000000 Bohr

Properties computed using the SCF density matrix

  Nuclear Dipole Moment: (a.u.)
     X:    -1.0088      Y:    -0.4013      Z:    -0.0356

  Electronic Dipole Moment: (a.u.)
     X:     1.0252      Y:     0.4075      Z:     0.0362

  Dipole Moment: (a.u.)
     X:     0.0165      Y:     0.0062      Z:     0.0005     Total:     0.0176

  Dipole Moment: (Debye)
     X:     0.0418      Y:     0.0156      Z:     0.0014     Total:     0.0447


*** tstart() called on lski1497
*** at Tue Feb 21 19:29:38 2017


         ------------------------------------------------------------
                                   SCF GRAD                          
                          Rob Parrish, Justin Turney,                
                       Andy Simmonett, and Alex Sokolov              
         ------------------------------------------------------------

  ==> Geometry <==

    Molecular point group: c1
    Full point group: C1

    Geometry (in Angstrom), charge = 0, multiplicity = 1:

       Center              X                  Y                   Z               Mass       
    ------------   -----------------  -----------------  -----------------  -----------------
           H         -1.639406547468     0.326488792943     0.337798232578     1.007825032070
           H         -1.498406547468     1.954488792943    -0.282201767422     1.007825032070
           H         -1.200406547468     0.590488792943    -1.332201767422     1.007825032070
           C         -1.101406547468     0.961488792943    -0.334201767422    12.000000000000
           H          0.925593452532     1.617488792943    -0.612201767422     1.007825032070
           H          0.487593452532     1.354488792943     1.058798232578     1.007825032070
           C          0.387593452532     0.982488792943     0.060798232578    12.000000000000
           H          1.345593452532    -0.623511207057    -0.996201767422     1.007825032070
           H          1.745593452532    -0.552511207057     0.702798232578     1.007825032070
           C          0.959593452532    -0.445511207057    -0.014201767422    12.000000000000
           H          0.242593452532    -2.454511207057     0.238798232578     1.007825032070
           H         -0.942406547468    -1.355511207057    -0.426201767422     1.007825032070
           H         -0.542406547468    -1.285511207057     1.272798232578     1.007825032070
           C         -0.155406547468    -1.462511207057     0.290798232578    12.000000000000

  Nuclear repulsion =  136.008553233335533

  ==> Basis Set <==

  Basis Set: CC-PVDZ
    Number of shells: 54
    Number of basis function: 106
    Number of Cartesian functions: 110
    Spherical Harmonics?: true
    Max angular momentum: 2

  ==> DFJKGrad: Density-Fitted SCF Gradients <==

    Gradient:                    1
    J tasked:                  Yes
    K tasked:                  Yes
    wK tasked:                  No
    OpenMP threads:              1
    Integrals threads:           1
    Memory (MB):               715
    Schwarz Cutoff:          0E+00
    Fitting Condition:       1E-12

   => Auxiliary Basis Set <=

  Basis Set: 
    Number of shells: 186
    Number of basis function: 510
    Number of Cartesian functions: 574
    Spherical Harmonics?: true
    Max angular momentum: 3

  ==> DFT Potential <==

   => B3LYP Composite Functional <= 

    B3LYP Hybrid-GGA Exchange-Correlation Functional (VWN1-RPA)

    P.J. Stephens et. al., J. Phys. Chem., 98, 11623-11627, 1994

    Points   =           5000
    Deriv    =              1
    GGA      =           TRUE
    Meta     =          FALSE

    X_LRC        =          FALSE
    X_Hybrid     =           TRUE
    X_Alpha      =   2.000000E-01
    X_Omega      =   0.000000E+00
    C_LRC        =          FALSE
    C_Hybrid     =          FALSE
    C_Alpha      =   0.000000E+00
    C_Omega      =   0.000000E+00

   => Exchange Functionals <=

    0.8000    B3_X
    0.2000      HF 

   => Correlation Functionals <=

    0.1900 VWN3RPA_C
    0.8100   LYP_C

   => Molecular Quadrature <=

    Radial Scheme    =       TREUTLER
    Pruning Scheme   =           FLAT
    Nuclear Scheme   =       TREUTLER

    BS radius alpha  =              1
    Pruning alpha    =              1
    Radial Points    =             75
    Spherical Points =            302
    Total Points     =         312684
    Total Blocks     =            263
    Max Points       =           4932
    Max Functions    =            106


  -Total Gradient:
     Atom            X                  Y                   Z
    ------   -----------------  -----------------  -----------------
       1        0.014764101984     0.006088778983    -0.009826502321
       2        0.011080040452    -0.019574824473     0.000801254991
       3        0.006121730063     0.006852326680     0.021404426485
       4       -0.026212556206    -0.015964012681    -0.009534647375
       5       -0.012249627739    -0.016454647214     0.010165157841
       6       -0.002363558158    -0.010704477525    -0.020825094312
       7        0.018628481412     0.024853094801     0.011480125602
       8       -0.010284656138     0.005564446958     0.020201650317
       9       -0.020150333493     0.003838392634    -0.011784969985
      10        0.031603951169    -0.005273990595    -0.008874009065
      11       -0.005516039653     0.022257570677    -0.000570547758
      12        0.014066028852     0.005516806119     0.010735388382
      13        0.010100162029    -0.000166995815    -0.020252785982
      14       -0.029564365206    -0.006823871662     0.006881705315


*** tstop() called on lski1497 at Tue Feb 21 19:30:22 2017
Module time:
	user time   =      38.84 seconds =       0.65 minutes
	system time =       0.61 seconds =       0.01 minutes
	total time  =         44 seconds =       0.73 minutes
Total time:
	user time   =     159.63 seconds =       2.66 minutes
	system time =       2.04 seconds =       0.03 minutes
	total time  =        175 seconds =       2.92 minutes

			-----------------------------------------
			 OPTKING 2.0: for geometry optimizations 
			  - R.A. King,  Bethel University        
			-----------------------------------------

	Previous internal coordinate definitions found.
	---Fragment 1 Geometry and Gradient---
	 H          -3.0980293952        0.6169744041        0.6383461477
	 H          -2.8315780104        3.6934485485       -0.5332840546
	 H          -2.2684396228        1.1158621032       -2.5174964942
	 C          -2.0813567357        1.8169504985       -0.6315498136
	 H           1.7491181357        3.0566108417       -1.1568936785
	 H           0.9214180895        2.5596128687        2.0008386896
	 C           0.7324454762        1.8566347473        0.1148920089
	 H           2.5428031115       -1.1782654221       -1.8825485135
	 H           3.2986935646       -1.0440948667        1.3280961862
	 C           1.8133688242       -0.8418941705       -0.0268374510
	 H           0.4584351869       -4.6383539714        0.4512632606
	 H          -1.7808902806       -2.5615449514       -0.8054046178
	 H          -1.0249998274       -2.4292641221        2.4052400820
	 C          -0.2936758140       -2.7637456476        0.5495290195
	             0.0147641020        0.0060887790       -0.0098265023
	             0.0110800405       -0.0195748245        0.0008012550
	             0.0061217301        0.0068523267        0.0214044265
	            -0.0262125562       -0.0159640127       -0.0095346474
	            -0.0122496277       -0.0164546472        0.0101651578
	            -0.0023635582       -0.0107044775       -0.0208250943
	             0.0186284814        0.0248530948        0.0114801256
	            -0.0102846561        0.0055644470        0.0202016503
	            -0.0201503335        0.0038383926       -0.0117849700
	             0.0316039512       -0.0052739906       -0.0088740091
	            -0.0055160397        0.0222575707       -0.0005705478
	             0.0140660289        0.0055168061        0.0107353884
	             0.0101001620       -0.0001669958       -0.0202527860
	            -0.0295643652       -0.0068238717        0.0068817053

	Previous optimization step data not found.  Starting new optimization.

	---Fragment 1 Intrafragment Coordinates---
	 - Coordinate -           - BOHR/RAD -       - ANG/DEG -
	 R(1,4)           =         2.021436	       1.069698
	 R(2,4)           =         2.023298	       1.070683
	 R(3,4)           =         2.020723	       1.069320
	 R(4,7)           =         2.911397	       1.540645
	 R(5,7)           =         2.022623	       1.070326
	 R(6,7)           =         2.021555	       1.069761
	 R(7,10)          =         2.910419	       1.540128
	 R(8,10)          =         2.022099	       1.070049
	 R(9,10)          =         2.020624	       1.069268
	 R(10,14)         =         2.909527	       1.539655
	 R(11,14)         =         2.022247	       1.070127
	 R(12,14)         =         2.022013	       1.070003
	 R(13,14)         =         2.022468	       1.070244
	 B(1,4,2)         =         1.910870	     109.484805
	 B(1,4,3)         =         1.911121	     109.499161
	 B(1,4,7)         =         1.910399	     109.457783
	 B(2,4,3)         =         1.910042	     109.437340
	 B(2,4,7)         =         1.910564	     109.467262
	 B(3,4,7)         =         1.910803	     109.480971
	 B(4,7,5)         =         1.909937	     109.431343
	 B(4,7,6)         =         1.911630	     109.528316
	 B(4,7,10)        =         1.911154	     109.501062
	 B(5,7,6)         =         1.910605	     109.469614
	 B(5,7,10)        =         1.910047	     109.437654
	 B(6,7,10)        =         1.910425	     109.459295
	 B(7,10,8)        =         1.910176	     109.445000
	 B(7,10,9)        =         1.910425	     109.459288
	 B(7,10,14)       =         1.911170	     109.501953
	 B(8,10,9)        =         1.910877	     109.485160
	 B(8,10,14)       =         1.910443	     109.460349
	 B(9,10,14)       =         1.910709	     109.475573
	 B(10,14,11)      =         1.910649	     109.472142
	 B(10,14,12)      =         1.911184	     109.502783
	 B(10,14,13)      =         1.911752	     109.535296
	 B(11,14,12)      =         1.911009	     109.492779
	 B(11,14,13)      =         1.909622	     109.413305
	 B(12,14,13)      =         1.909582	     109.410974
	 D(1,4,7,5)       =         3.140997	     179.965873
	 D(1,4,7,6)       =        -1.047644	     -60.025575
	 D(1,4,7,10)      =         1.047427	      60.013132
	 D(2,4,7,5)       =        -1.047689	     -60.028143
	 D(2,4,7,6)       =         1.046856	      59.980409
	 D(2,4,7,10)      =        -3.141259	    -179.980883
	 D(3,4,7,5)       =         1.046044	      59.933911
	 D(3,4,7,6)       =         3.140588	     179.942463
	 D(3,4,7,10)      =        -1.047526	     -60.018830
	 D(4,7,10,8)      =         1.570742	      89.996863
	 D(4,7,10,9)      =        -2.618158	    -150.009419
	 D(4,7,10,14)     =        -0.523469	     -29.992576
	 D(5,7,10,8)      =        -0.522761	     -29.952013
	 D(5,7,10,9)      =         1.571524	      90.041705
	 D(5,7,10,14)     =        -2.616972	    -149.941452
	 D(6,7,10,8)      =        -2.616636	    -149.922212
	 D(6,7,10,9)      =        -0.522351	     -29.928493
	 D(6,7,10,14)     =         1.572338	      90.088350
	 D(7,10,14,11)    =        -3.141349	    -179.986053
	 D(7,10,14,12)    =         1.046633	      59.967629
	 D(7,10,14,13)    =        -1.047497	     -60.017186
	 D(8,10,14,11)    =         1.047789	      60.033904
	 D(8,10,14,12)    =        -1.047414	     -60.012414
	 D(8,10,14,13)    =        -3.141544	    -179.997229
	 D(9,10,14,11)    =        -1.046834	     -59.979175
	 D(9,10,14,12)    =         3.141148	     179.974506
	 D(9,10,14,13)    =         1.047018	      59.989692

	Current energy   :      -158.4381250165

	Generating empirical Hessian (Schlegel '84) for each fragment.
	Adding user-defined constraint: Fragment 1; Coordinate 49:
		Value =    -0.523469; Fixed value    =    -0.523600
		Force =    -0.000065; Force constant =     0.500000
	Removing off-diagonal coupling between coordinate 49 and others.
	Taking RFO optimization step.
	Going to follow RFO solution 1.
	Using RFO vector 1.

	Determining step-restricting scale parameter for RS-RFO.
	Maximum step size allowed    0.10000

	 Iter      |step|        alpha        rfo_root  
	------------------------------------------------
	    0     0.43360       1.00000           1
	    1     0.29346       4.45698           1
	    2     0.19882      14.12625           1
	    3     0.14263      33.12978           1
	    4     0.11334      57.38299           1
	    5     0.10205      73.16534           1
	    6     0.10006      76.54580           1
	    7     0.10000      76.65555           1
	------------------------------------------------
	Norm of target step-size    0.10000
	Projected energy change by RFO approximation:        -0.0108336278

	Back-transformation to cartesian coordinates...
	Could not converge backtransformation.
	Using first guess instead.

	--- Internal Coordinate Step in ANG or DEG, aJ/ANG or AJ/DEG ---
	 ---------------------------------------------------------------------------
	   Coordinate                Previous        Force       Change         New 
	   ----------                --------       ------       ------       ------
	    1 R(1,4)          =      1.069698     0.141804     0.008314     1.078012
	    2 R(2,4)          =      1.070683     0.183097     0.010537     1.081219
	    3 R(3,4)          =      1.069320     0.188837     0.010107     1.079427
	    4 R(4,7)          =      1.540645     0.049228     0.004148     1.544793
	    5 R(5,7)          =      1.070326     0.183825     0.009856     1.080182
	    6 R(6,7)          =      1.069761     0.192554     0.010095     1.079856
	    7 R(7,10)         =      1.540128     0.218654     0.012426     1.552553
	    8 R(8,10)         =      1.070049     0.190935     0.010013     1.080062
	    9 R(9,10)         =      1.069268     0.190314     0.010186     1.079454
	   10 R(10,14)        =      1.539655     0.053166     0.004371     1.544026
	   11 R(11,14)        =      1.070127     0.186660     0.010717     1.080844
	   12 R(12,14)        =      1.070003     0.139947     0.008221     1.078224
	   13 R(13,14)        =      1.070244     0.183414     0.009830     1.080074
	   14 B(1,4,2)        =    109.484805    -0.000438    -0.311548   109.173257
	   15 B(1,4,3)        =    109.499161    -0.000318    -0.290570   109.208591
	   16 B(1,4,7)        =    109.457783     0.000617     0.480013   109.937795
	   17 B(2,4,3)        =    109.437340    -0.000320    -0.220933   109.216407
	   18 B(2,4,7)        =    109.467262     0.000150     0.124448   109.591710
	   19 B(3,4,7)        =    109.480971     0.000309     0.214384   109.695355
	   20 B(4,7,5)        =    109.431343    -0.001121    -0.755553   108.675790
	   21 B(4,7,6)        =    109.528316    -0.000983    -0.709878   108.818438
	   22 B(4,7,10)       =    109.501062     0.003635     2.565518   112.066580
	   23 B(5,7,6)        =    109.469614     0.000418     0.216457   109.686070
	   24 B(5,7,10)       =    109.437654    -0.001033    -0.711383   108.726271
	   25 B(6,7,10)       =    109.459295    -0.000917    -0.613009   108.846286
	   26 B(7,10,8)       =    109.445000    -0.000917    -0.613067   108.831933
	   27 B(7,10,9)       =    109.459288    -0.001036    -0.713692   108.745596
	   28 B(7,10,14)      =    109.501953     0.003639     2.567538   112.069491
	   29 B(8,10,9)       =    109.485160     0.000418     0.215762   109.700923
	   30 B(8,10,14)      =    109.460349    -0.000977    -0.704462   108.755888
	   31 B(9,10,14)      =    109.475573    -0.001126    -0.759351   108.716222
	   32 B(10,14,11)     =    109.472142     0.000154     0.127531   109.599674
	   33 B(10,14,12)     =    109.502783     0.000610     0.475371   109.978154
	   34 B(10,14,13)     =    109.535296     0.000301     0.209079   109.744374
	   35 B(11,14,12)     =    109.492779    -0.000439    -0.312459   109.180320
	   36 B(11,14,13)     =    109.413305    -0.000318    -0.220333   109.192972
	   37 B(12,14,13)     =    109.410974    -0.000310    -0.284304   109.126669
	   38 D(1,4,7,5)      =    179.965873     0.000113     0.363909   180.329781
	   39 D(1,4,7,6)      =    -60.025575    -0.000065    -0.247486   -60.273061
	   40 D(1,4,7,10)     =     60.013132     0.000051     0.137842    60.150974
	   41 D(2,4,7,5)      =    -60.028143     0.000098     0.354082   -59.674061
	   42 D(2,4,7,6)      =     59.980409    -0.000080    -0.257313    59.723096
	   43 D(2,4,7,10)     =   -179.980883     0.000036     0.128015  -179.852868
	   44 D(3,4,7,5)      =     59.933911     0.000072     0.291330    60.225241
	   45 D(3,4,7,6)      =    179.942463    -0.000106    -0.320064   179.622398
	   46 D(3,4,7,10)     =    -60.018830     0.000010     0.065263   -59.953566
	   47 D(4,7,10,8)     =     89.996863     0.000043     0.177967    90.174830
	   48 D(4,7,10,9)     =   -150.009419    -0.000114    -0.352178  -150.361597
	   49 D(4,7,10,14)    =    -29.992576    -0.000065    -0.154430   -30.147006
	   50 D(5,7,10,8)     =    -29.952013    -0.000007    -0.022562   -29.974575
	   51 D(5,7,10,9)     =     90.041705    -0.000164    -0.552707    89.488998
	   52 D(5,7,10,14)    =   -149.941452    -0.000115    -0.354959  -150.296411
	   53 D(6,7,10,8)     =   -149.922212     0.000149     0.504898  -149.417313
	   54 D(6,7,10,9)     =    -29.928493    -0.000008    -0.025247   -29.953740
	   55 D(6,7,10,14)    =     90.088350     0.000041     0.172501    90.260851
	   56 D(7,10,14,11)   =   -179.986053     0.000036     0.128314  -179.857739
	   57 D(7,10,14,12)   =     59.967629     0.000051     0.139737    60.107366
	   58 D(7,10,14,13)   =    -60.017186     0.000010     0.065120   -59.952065
	   59 D(8,10,14,11)   =     60.033904    -0.000080    -0.257688    59.776216
	   60 D(8,10,14,12)   =    -60.012414    -0.000065    -0.246265   -60.258679
	   61 D(8,10,14,13)   =   -179.997229    -0.000106    -0.320881  -180.318110
	   62 D(9,10,14,11)   =    -59.979175     0.000098     0.353125   -59.626050
	   63 D(9,10,14,12)   =    179.974506     0.000113     0.364548   180.339054
	   64 D(9,10,14,13)   =     59.989692     0.000072     0.289931    60.279623
	 ---------------------------------------------------------------------------
	 Forces used to impose fixed constraints are not included.
	  Forces zeroed: 49 

  ==> Convergence Check <==

  Measures of convergence in internal coordinates in au.
  Criteria marked as inactive (o), active & met (*), and active & unmet ( ).
  --------------------------------------------------------------------------------------------- ~
   Step     Total Energy     Delta E     MAX Force     RMS Force      MAX Disp      RMS Disp    ~
  --------------------------------------------------------------------------------------------- ~
    Convergence Criteria    1.00e-06 *    3.00e-04 *             o    1.20e-03 *             o  ~
  --------------------------------------------------------------------------------------------- ~
      1    -158.43812502   -1.58e+02      4.78e-02      1.40e-02 o    4.48e-02      1.27e-02 o  ~
  ---------------------------------------------------------------------------------------------

	Writing optimization data to binary file.
	Structure for next step:
	Cartesian Geometry (in Angstrom)
	    H    -1.6973000102   0.4146919270   0.3314694387
	    H    -1.4795248802   2.0461967870  -0.2910386966
	    H    -1.2420980522   0.6586160706  -1.3496780028
	    C    -1.1208351095   1.0275077390  -0.3425149659
	    H     0.9289668103   1.6076349559  -0.6316441302
	    H     0.4779425301   1.3612320228   1.0579158962
	    C     0.3721261877   0.9834768198   0.0518384407
	    H     1.3431411368  -0.6349186464  -0.9957468120
	    H     1.7403253361  -0.5433889074   0.7222982617
	    C     0.9485043251  -0.4569524670  -0.0062402206
	    H     0.3186579123  -2.5085396914   0.2509427646
	    H    -0.9241339375  -1.4595806541  -0.4211474576
	    H    -0.5267208755  -1.3641019979   1.2891826301
	    C    -0.1247430377  -1.5240308569   0.2995381099
			--------------------------
			 OPTKING Finished Execution 
			--------------------------

    Structure for next step:
    Molecular point group: c1
    Full point group: C1

    Geometry (in Angstrom), charge = 0, multiplicity = 1:

    H           -1.694400198361     0.415818798366     0.331577616143
    H           -1.476625068391     2.047323658355    -0.290930519215
    H           -1.239198240354     0.659742941954    -1.349569825370
    C           -1.117935297659     1.028634610375    -0.342406788500
    H            0.931866622109     1.608761827268    -0.631535952797
    H            0.480842341903     1.362358894130     1.058024073681
    C            0.375025999572     0.984603691089     0.051946618083
    H            1.346040948615    -0.633791775046    -0.995638634584
    H            1.743225147917    -0.542262036112     0.722406439130
    C            0.951404136992    -0.455825595626    -0.006132043133
    H            0.321557724156    -2.507412820044     0.251050942023
    H           -0.921234125608    -1.458453782760    -0.421039280212
    H           -0.523821063685    -1.362975126604     1.289290807508
    C           -0.121843225859    -1.522903985557     0.299646287364

gradient() will perform analytic gradient computation.

*** tstart() called on lski1497
*** at Tue Feb 21 19:30:23 2017


         ---------------------------------------------------------
                                   SCF
            by Justin Turney, Rob Parrish, and Andy Simmonett
                              RKS Reference
                        1 Threads,   1000 MiB Core
         ---------------------------------------------------------

  ==> Geometry <==

    Molecular point group: c1
    Full point group: C1

    Geometry (in Angstrom), charge = 0, multiplicity = 1:

       Center              X                  Y                   Z               Mass       
    ------------   -----------------  -----------------  -----------------  -----------------
           H         -1.694400198361     0.415818798366     0.331577616143     1.007825032070
           H         -1.476625068391     2.047323658355    -0.290930519215     1.007825032070
           H         -1.239198240354     0.659742941954    -1.349569825370     1.007825032070
           C         -1.117935297659     1.028634610375    -0.342406788500    12.000000000000
           H          0.931866622109     1.608761827268    -0.631535952797     1.007825032070
           H          0.480842341903     1.362358894130     1.058024073681     1.007825032070
           C          0.375025999572     0.984603691089     0.051946618083    12.000000000000
           H          1.346040948615    -0.633791775046    -0.995638634584     1.007825032070
           H          1.743225147917    -0.542262036112     0.722406439130     1.007825032070
           C          0.951404136992    -0.455825595626    -0.006132043133    12.000000000000
           H          0.321557724156    -2.507412820044     0.251050942023     1.007825032070
           H         -0.921234125608    -1.458453782760    -0.421039280212     1.007825032070
           H         -0.523821063685    -1.362975126604     1.289290807508     1.007825032070
           C         -0.121843225859    -1.522903985557     0.299646287364    12.000000000000

  Running in c1 symmetry.

  Rotational constants: A =      0.39237  B =      0.18634  C =      0.14183 [cm^-1]
  Rotational constants: A =  11762.88214  B =   5586.42859  C =   4252.04761 [MHz]
  Nuclear repulsion =  134.099018330363180

  Charge       = 0
  Multiplicity = 1
  Electrons    = 34
  Nalpha       = 17
  Nbeta        = 17

  ==> Algorithm <==

  SCF Algorithm Type is DF.
  DIIS enabled.
  MOM disabled.
  Fractional occupation disabled.
  Guess Type is READ.
  Energy threshold   = 1.00e-08
  Density threshold  = 1.00e-08
  Integral threshold = 0.00e+00

  ==> Primary Basis <==

  Basis Set: CC-PVDZ
    Number of shells: 54
    Number of basis function: 106
    Number of Cartesian functions: 110
    Spherical Harmonics?: true
    Max angular momentum: 2

  ==> DFT Potential <==

   => B3LYP Composite Functional <= 

    B3LYP Hybrid-GGA Exchange-Correlation Functional (VWN1-RPA)

    P.J. Stephens et. al., J. Phys. Chem., 98, 11623-11627, 1994

    Points   =           5000
    Deriv    =              1
    GGA      =           TRUE
    Meta     =          FALSE

    X_LRC        =          FALSE
    X_Hybrid     =           TRUE
    X_Alpha      =   2.000000E-01
    X_Omega      =   0.000000E+00
    C_LRC        =          FALSE
    C_Hybrid     =          FALSE
    C_Alpha      =   0.000000E+00
    C_Omega      =   0.000000E+00

   => Exchange Functionals <=

    0.8000    B3_X
    0.2000      HF 

   => Correlation Functionals <=

    0.1900 VWN3RPA_C
    0.8100   LYP_C

   => Molecular Quadrature <=

    Radial Scheme    =       TREUTLER
    Pruning Scheme   =           FLAT
    Nuclear Scheme   =       TREUTLER

    BS radius alpha  =              1
    Pruning alpha    =              1
    Radial Points    =             75
    Spherical Points =            302
    Total Points     =         312732
    Total Blocks     =            260
    Max Points       =           4884
    Max Functions    =            106

  ==> Pre-Iterations <==

   -------------------------------------------------------
    Irrep   Nso     Nmo     Nalpha   Nbeta   Ndocc  Nsocc
   -------------------------------------------------------
     A        106     106       0       0       0       0
   -------------------------------------------------------
    Total     106     106      17      17      17       0
   -------------------------------------------------------

  ==> Integral Setup <==

  ==> DFJK: Density-Fitted J/K Matrices <==

    J tasked:                  Yes
    K tasked:                  Yes
    wK tasked:                  No
    OpenMP threads:              1
    Integrals threads:           1
    Memory (MB):               715
    Algorithm:                Core
    Integral Cache:           NONE
    Schwarz Cutoff:          1E-12
    Fitting Condition:       1E-12

   => Auxiliary Basis Set <=

  Basis Set: 
    Number of shells: 186
    Number of basis function: 510
    Number of Cartesian functions: 574
    Spherical Harmonics?: true
    Max angular momentum: 3

  Minimum eigenvalue in the overlap matrix is 3.8794094927E-03.
  Using Symmetric Orthogonalization.
  SCF Guess was Projection but file not found.
  Switching over to SAD guess.

  SCF Guess: Superposition of Atomic Densities via on-the-fly atomic UHF.

  ==> Iterations <==

                           Total Energy        Delta E     RMS |[F,P]|

   @DF-RKS iter   0:  -158.93882373746769   -1.58939e+02   3.27833e-02 
   @DF-RKS iter   1:  -158.25742525093693    6.81398e-01   5.45388e-03 
   @DF-RKS iter   2:  -158.17492451866897    8.25007e-02   6.62435e-03 DIIS
   @DF-RKS iter   3:  -158.44570877567878   -2.70784e-01   3.92731e-04 DIIS
   @DF-RKS iter   4:  -158.44658366747598   -8.74892e-04   1.21842e-04 DIIS
   @DF-RKS iter   5:  -158.44665780728894   -7.41398e-05   4.74649e-05 DIIS
   @DF-RKS iter   6:  -158.44666996426238   -1.21570e-05   7.76830e-06 DIIS
   @DF-RKS iter   7:  -158.44667033956560   -3.75303e-07   1.01624e-06 DIIS
   @DF-RKS iter   8:  -158.44667034645630   -6.89070e-09   1.75795e-07 DIIS
   @DF-RKS iter   9:  -158.44667034659827   -1.41966e-10   9.39472e-08 DIIS
   @DF-RKS iter  10:  -158.44667034664570   -4.74358e-11   1.40401e-08 DIIS
   @DF-RKS iter  11:  -158.44667034664707   -1.36424e-12   2.27727e-09 DIIS

  ==> Post-Iterations <==

    Orbital Energies (a.u.)
    -----------------------

    Doubly Occupied:                                                      

       1A    -10.173498     2A    -10.173334     3A    -10.166947  
       4A    -10.166923     5A     -0.792449     6A     -0.714157  
       7A     -0.645370     8A     -0.559937     9A     -0.467460  
      10A     -0.451934    11A     -0.411289    12A     -0.384769  
      13A     -0.374569    14A     -0.363300    15A     -0.321365  
      16A     -0.319088    17A     -0.317614  

    Virtual:                                                              

      18A      0.059031    19A      0.096576    20A      0.100547  
      21A      0.108613    22A      0.132689    23A      0.133855  
      24A      0.158668    25A      0.167229    26A      0.169198  
      27A      0.190103    28A      0.199851    29A      0.235038  
      30A      0.271702    31A      0.411056    32A      0.424093  
      33A      0.436610    34A      0.447043    35A      0.465423  
      36A      0.485346    37A      0.500004    38A      0.587383  
      39A      0.596737    40A      0.621031    41A      0.630398  
      42A      0.650848    43A      0.665242    44A      0.665406  
      45A      0.672359    46A      0.685849    47A      0.690390  
      48A      0.702352    49A      0.726912    50A      0.728482  
      51A      0.765661    52A      0.824157    53A      0.881148  
      54A      0.899186    55A      0.968530    56A      1.079987  
      57A      1.180489    58A      1.209021    59A      1.211702  
      60A      1.282946    61A      1.289703    62A      1.346866  
      63A      1.422023    64A      1.432109    65A      1.476820  
      66A      1.560239    67A      1.573395    68A      1.593330  
      69A      1.595912    70A      1.634418    71A      1.643774  
      72A      1.646734    73A      1.675770    74A      1.683744  
      75A      1.697983    76A      1.700358    77A      1.706824  
      78A      1.756857    79A      1.763000    80A      1.798728  
      81A      1.809887    82A      1.836474    83A      1.865281  
      84A      1.916647    85A      1.957279    86A      1.962014  
      87A      2.019690    88A      2.083291    89A      2.120205  
      90A      2.141879    91A      2.208993    92A      2.261286  
      93A      2.270155    94A      2.289738    95A      2.340814  
      96A      2.350112    97A      2.474576    98A      2.479393  
      99A      2.499141   100A      2.518936   101A      2.549703  
     102A      2.567090   103A      2.628699   104A      2.648775  
     105A      2.686374   106A      2.755159  

    Final Occupation by Irrep:
              A 
    DOCC [    17 ]

  Energy converged.

  @DF-RKS Final Energy:  -158.44667034664707

   => Energetics <=

    Nuclear Repulsion Energy =            134.0990183303631795
    One-Electron Energy =                -476.6393370484699972
    Two-Electron Energy =                 204.7435591737881566
    DFT Exchange-Correlation Energy =     -20.6499108023283782
    Empirical Dispersion Energy =           0.0000000000000000
    PCM Polarization Energy =               0.0000000000000000
    EFP Energy =                            0.0000000000000000
    Total Energy =                       -158.4466703466470676


  Saving occupied orbitals to File 180.

*** tstop() called on lski1497 at Tue Feb 21 19:32:41 2017
Module time:
	user time   =     122.16 seconds =       2.04 minutes
	system time =       1.54 seconds =       0.03 minutes
	total time  =        138 seconds =       2.30 minutes
Total time:
	user time   =     282.49 seconds =       4.71 minutes
	system time =       3.59 seconds =       0.06 minutes
	total time  =        314 seconds =       5.23 minutes


Properties will be evaluated at   0.000000,   0.000000,   0.000000 Bohr

Properties computed using the SCF density matrix

  Nuclear Dipole Moment: (a.u.)
     X:    -0.9672      Y:    -0.3852      Z:    -0.0341

  Electronic Dipole Moment: (a.u.)
     X:     0.9838      Y:     0.3915      Z:     0.0346

  Dipole Moment: (a.u.)
     X:     0.0165      Y:     0.0063      Z:     0.0005     Total:     0.0177

  Dipole Moment: (Debye)
     X:     0.0420      Y:     0.0161      Z:     0.0014     Total:     0.0451


*** tstart() called on lski1497
*** at Tue Feb 21 19:32:41 2017


         ------------------------------------------------------------
                                   SCF GRAD                          
                          Rob Parrish, Justin Turney,                
                       Andy Simmonett, and Alex Sokolov              
         ------------------------------------------------------------

  ==> Geometry <==

    Molecular point group: c1
    Full point group: C1

    Geometry (in Angstrom), charge = 0, multiplicity = 1:

       Center              X                  Y                   Z               Mass       
    ------------   -----------------  -----------------  -----------------  -----------------
           H         -1.694400198361     0.415818798366     0.331577616143     1.007825032070
           H         -1.476625068391     2.047323658355    -0.290930519215     1.007825032070
           H         -1.239198240354     0.659742941954    -1.349569825370     1.007825032070
           C         -1.117935297659     1.028634610375    -0.342406788500    12.000000000000
           H          0.931866622109     1.608761827268    -0.631535952797     1.007825032070
           H          0.480842341903     1.362358894130     1.058024073681     1.007825032070
           C          0.375025999572     0.984603691089     0.051946618083    12.000000000000
           H          1.346040948615    -0.633791775046    -0.995638634584     1.007825032070
           H          1.743225147917    -0.542262036112     0.722406439130     1.007825032070
           C          0.951404136992    -0.455825595626    -0.006132043133    12.000000000000
           H          0.321557724156    -2.507412820044     0.251050942023     1.007825032070
           H         -0.921234125608    -1.458453782760    -0.421039280212     1.007825032070
           H         -0.523821063685    -1.362975126604     1.289290807508     1.007825032070
           C         -0.121843225859    -1.522903985557     0.299646287364    12.000000000000

  Nuclear repulsion =  134.099018330363180

  ==> Basis Set <==

  Basis Set: CC-PVDZ
    Number of shells: 54
    Number of basis function: 106
    Number of Cartesian functions: 110
    Spherical Harmonics?: true
    Max angular momentum: 2

  ==> DFJKGrad: Density-Fitted SCF Gradients <==

    Gradient:                    1
    J tasked:                  Yes
    K tasked:                  Yes
    wK tasked:                  No
    OpenMP threads:              1
    Integrals threads:           1
    Memory (MB):               715
    Schwarz Cutoff:          0E+00
    Fitting Condition:       1E-12

   => Auxiliary Basis Set <=

  Basis Set: 
    Number of shells: 186
    Number of basis function: 510
    Number of Cartesian functions: 574
    Spherical Harmonics?: true
    Max angular momentum: 3

  ==> DFT Potential <==

   => B3LYP Composite Functional <= 

    B3LYP Hybrid-GGA Exchange-Correlation Functional (VWN1-RPA)

    P.J. Stephens et. al., J. Phys. Chem., 98, 11623-11627, 1994

    Points   =           5000
    Deriv    =              1
    GGA      =           TRUE
    Meta     =          FALSE

    X_LRC        =          FALSE
    X_Hybrid     =           TRUE
    X_Alpha      =   2.000000E-01
    X_Omega      =   0.000000E+00
    C_LRC        =          FALSE
    C_Hybrid     =          FALSE
    C_Alpha      =   0.000000E+00
    C_Omega      =   0.000000E+00

   => Exchange Functionals <=

    0.8000    B3_X
    0.2000      HF 

   => Correlation Functionals <=

    0.1900 VWN3RPA_C
    0.8100   LYP_C

   => Molecular Quadrature <=

    Radial Scheme    =       TREUTLER
    Pruning Scheme   =           FLAT
    Nuclear Scheme   =       TREUTLER

    BS radius alpha  =              1
    Pruning alpha    =              1
    Radial Points    =             75
    Spherical Points =            302
    Total Points     =         312732
    Total Blocks     =            260
    Max Points       =           4884
    Max Functions    =            106


  -Total Gradient:
     Atom            X                  Y                   Z
    ------   -----------------  -----------------  -----------------
       1        0.011319223404     0.005265726505    -0.007247950132
       2        0.007024368965    -0.012438752941     0.000740440737
       3        0.005372342678     0.004443938670     0.014647642419
       4       -0.023868270408    -0.007249518828    -0.006313007831
       5       -0.009571673759    -0.011844123168     0.005032924742
       6       -0.002587236703    -0.008685591149    -0.013552058972
       7        0.015746326882     0.021758659081     0.007431587888
       8       -0.008656185309     0.004133807611     0.013038232681
       9       -0.015135366073     0.002177853959    -0.006214218005
      10        0.027029097450    -0.005006691580    -0.005343731790
      11       -0.003516656382     0.014134244517    -0.000585890718
      12        0.011216134602     0.003788182874     0.007994815262
      13        0.007579068840     0.000852982499    -0.013826772558
      14       -0.021939401948    -0.011326132647     0.004198425297


*** tstop() called on lski1497 at Tue Feb 21 19:33:24 2017
Module time:
	user time   =      39.40 seconds =       0.66 minutes
	system time =       0.63 seconds =       0.01 minutes
	total time  =         43 seconds =       0.72 minutes
Total time:
	user time   =     321.91 seconds =       5.37 minutes
	system time =       4.22 seconds =       0.07 minutes
	total time  =        357 seconds =       5.95 minutes

			-----------------------------------------
			 OPTKING 2.0: for geometry optimizations 
			  - R.A. King,  Bethel University        
			-----------------------------------------

	Previous internal coordinate definitions found.
	---Fragment 1 Geometry and Gradient---
	 H          -3.2019523344        0.7857836498        0.6265908863
	 H          -2.7904169802        3.8688810197       -0.5497790050
	 H          -2.3417452986        1.2467334784       -2.5503173672
	 C          -2.1125915469        1.9438377044       -0.6470550563
	 H           1.7609727082        3.0401192666       -1.1934299939
	 H           0.9086603393        2.5744852046        1.9993757413
	 C           0.7086964319        1.8606313256        0.0981648817
	 H           2.5436487565       -1.1976928801       -1.8814843467
	 H           3.2942181175       -1.0247267405        1.3651503266
	 C           1.7978932606       -0.8613855401       -0.0115878822
	 H           0.6076560346       -4.7383235320        0.4744175258
	 H          -1.7408802017       -2.7560782269       -0.7956489308
	 H          -0.9898783530       -2.5756497152        2.4364065318
	 C          -0.2302503280       -2.8778714594        0.5662494199
	             0.0113192234        0.0052657265       -0.0072479501
	             0.0070243690       -0.0124387529        0.0007404407
	             0.0053723427        0.0044439387        0.0146476424
	            -0.0238682704       -0.0072495188       -0.0063130078
	            -0.0095716738       -0.0118441232        0.0050329247
	            -0.0025872367       -0.0086855911       -0.0135520590
	             0.0157463269        0.0217586591        0.0074315879
	            -0.0086561853        0.0041338076        0.0130382327
	            -0.0151353661        0.0021778540       -0.0062142180
	             0.0270290975       -0.0050066916       -0.0053437318
	            -0.0035166564        0.0141342445       -0.0005858907
	             0.0112161346        0.0037881829        0.0079948153
	             0.0075790688        0.0008529825       -0.0138267726
	            -0.0219394019       -0.0113261326        0.0041984253

	---Fragment 1 Intrafragment Coordinates---
	 - Coordinate -           - BOHR/RAD -       - ANG/DEG -
	 R(1,4)           =         2.037148	       1.078012
	 R(2,4)           =         2.043209	       1.081219
	 R(3,4)           =         2.039822	       1.079427
	 R(4,7)           =         2.919237	       1.544793
	 R(5,7)           =         2.041248	       1.080182
	 R(6,7)           =         2.040631	       1.079856
	 R(7,10)          =         2.933900	       1.552553
	 R(8,10)          =         2.041021	       1.080062
	 R(9,10)          =         2.039872	       1.079454
	 R(10,14)         =         2.917786	       1.544026
	 R(11,14)         =         2.042499	       1.080844
	 R(12,14)         =         2.037548	       1.078224
	 R(13,14)         =         2.041044	       1.080074
	 B(1,4,2)         =         1.905433	     109.173257
	 B(1,4,3)         =         1.906049	     109.208591
	 B(1,4,7)         =         1.918777	     109.937795
	 B(2,4,3)         =         1.906186	     109.216407
	 B(2,4,7)         =         1.912736	     109.591710
	 B(3,4,7)         =         1.914545	     109.695355
	 B(4,7,5)         =         1.896750	     108.675790
	 B(4,7,6)         =         1.899240	     108.818438
	 B(4,7,10)        =         1.955931	     112.066580
	 B(5,7,6)         =         1.914383	     109.686070
	 B(5,7,10)        =         1.897631	     108.726271
	 B(6,7,10)        =         1.899726	     108.846286
	 B(7,10,8)        =         1.899476	     108.831933
	 B(7,10,9)        =         1.897969	     108.745596
	 B(7,10,14)       =         1.955982	     112.069491
	 B(8,10,9)        =         1.914642	     109.700923
	 B(8,10,14)       =         1.898148	     108.755888
	 B(9,10,14)       =         1.897456	     108.716222
	 B(10,14,11)      =         1.912875	     109.599674
	 B(10,14,12)      =         1.919481	     109.978154
	 B(10,14,13)      =         1.915401	     109.744374
	 B(11,14,12)      =         1.905556	     109.180320
	 B(11,14,13)      =         1.905777	     109.192972
	 B(12,14,13)      =         1.904620	     109.126669
	 D(1,4,7,5)       =        -3.135837	    -179.670219
	 D(1,4,7,6)       =        -1.051963	     -60.273061
	 D(1,4,7,10)      =         1.049833	      60.150974
	 D(2,4,7,5)       =        -1.041509	     -59.674061
	 D(2,4,7,6)       =         1.042365	      59.723096
	 D(2,4,7,10)      =        -3.139025	    -179.852868
	 D(3,4,7,5)       =         1.051129	      60.225241
	 D(3,4,7,6)       =         3.135002	     179.622398
	 D(3,4,7,10)      =        -1.046387	     -59.953566
	 D(4,7,10,8)      =         1.573848	      90.174830
	 D(4,7,10,9)      =        -2.624305	    -150.361597
	 D(4,7,10,14)     =        -0.526165	     -30.147006
	 D(5,7,10,8)      =        -0.523155	     -29.974575
	 D(5,7,10,9)      =         1.561878	      89.488998
	 D(5,7,10,14)     =        -2.623167	    -150.296411
	 D(6,7,10,8)      =        -2.607824	    -149.417313
	 D(6,7,10,9)      =        -0.522791	     -29.953740
	 D(6,7,10,14)     =         1.575349	      90.260851
	 D(7,10,14,11)    =        -3.139110	    -179.857739
	 D(7,10,14,12)    =         1.049071	      60.107366
	 D(7,10,14,13)    =        -1.046361	     -59.952065
	 D(8,10,14,11)    =         1.043292	      59.776216
	 D(8,10,14,12)    =        -1.051712	     -60.258679
	 D(8,10,14,13)    =         3.136041	     179.681890
	 D(9,10,14,11)    =        -1.040671	     -59.626050
	 D(9,10,14,12)    =        -3.135675	    -179.660946
	 D(9,10,14,13)    =         1.052078	      60.279623

	Current energy   :      -158.4466703466

	Energy change for the previous step:
		Projected    :        -0.0108336278
		Actual       :        -0.0085453301

	Performing BFGS update.
	Previous computed or guess Hessian on step 1.
	Steps to be used in Hessian update: 1
	Adding user-defined constraint: Fragment 1; Coordinate 49:
		Value =    -0.526165; Fixed value    =    -0.523600
		Force =     0.001346; Force constant =     0.525000
	Removing off-diagonal coupling between coordinate 49 and others.
	Taking RFO optimization step.
	Going to follow RFO solution 1.
	Using RFO vector 1.

	Determining step-restricting scale parameter for RS-RFO.
	Maximum step size allowed    0.10000

	 Iter      |step|        alpha        rfo_root  
	------------------------------------------------
	    0     0.21998       1.00000           1
	    1     0.16875       5.74662           1
	    2     0.13018      17.85085           1
	    3     0.10871      33.36207           1
	    4     0.10106      42.00430           1
	    5     0.10002      43.36482           1
	    6     0.10000      43.39010           1
	------------------------------------------------
	Norm of target step-size    0.10000
	Projected energy change by RFO approximation:        -0.0056302635

	Back-transformation to cartesian coordinates...
	Successfully converged to displaced geometry.

	--- Internal Coordinate Step in ANG or DEG, aJ/ANG or AJ/DEG ---
	 ---------------------------------------------------------------------------
	   Coordinate                Previous        Force       Change         New 
	   ----------                --------       ------       ------       ------
	    1 R(1,4)          =      1.078012     0.111860     0.013729     1.091741
	    2 R(2,4)          =      1.081219     0.115462     0.012583     1.093802
	    3 R(3,4)          =      1.079427     0.130079     0.014468     1.093896
	    4 R(4,7)          =      1.544793     0.004944    -0.001136     1.543658
	    5 R(5,7)          =      1.080182     0.123277     0.013520     1.093703
	    6 R(6,7)          =      1.079856     0.131148     0.014384     1.094239
	    7 R(7,10)         =      1.552553     0.077161     0.003231     1.555784
	    8 R(8,10)         =      1.080062     0.130085     0.014274     1.094336
	    9 R(9,10)         =      1.079454     0.127464     0.013949     1.093403
	   10 R(10,14)        =      1.544026     0.007863    -0.000762     1.543265
	   11 R(11,14)        =      1.080844     0.117739     0.012816     1.093660
	   12 R(12,14)        =      1.078224     0.110667     0.013608     1.091832
	   13 R(13,14)        =      1.080074     0.126571     0.014109     1.094183
	   14 B(1,4,2)        =    109.173257    -0.000309    -0.502737   108.670520
	   15 B(1,4,3)        =    109.208591    -0.000280    -0.576429   108.632162
	   16 B(1,4,7)        =    109.937795     0.000413     0.675505   110.613300
	   17 B(2,4,3)        =    109.216407    -0.000271    -0.505649   108.710758
	   18 B(2,4,7)        =    109.591710     0.000141     0.272623   109.864333
	   19 B(3,4,7)        =    109.695355     0.000296     0.606186   110.301541
	   20 B(4,7,5)        =    108.675790    -0.000448    -0.278754   108.397035
	   21 B(4,7,6)        =    108.818438    -0.000430    -0.320147   108.498291
	   22 B(4,7,10)       =    112.066580     0.001608     1.347258   113.413838
	   23 B(5,7,6)        =    109.686070     0.000055    -0.253469   109.432602
	   24 B(5,7,10)       =    108.726271    -0.000438    -0.322955   108.403316
	   25 B(6,7,10)       =    108.846286    -0.000360    -0.201672   108.644614
	   26 B(7,10,8)       =    108.831933    -0.000361    -0.200560   108.631373
	   27 B(7,10,9)       =    108.745596    -0.000439    -0.337484   108.408112
	   28 B(7,10,14)      =    112.069491     0.001610     1.355406   113.424897
	   29 B(8,10,9)       =    109.700923     0.000055    -0.253895   109.447028
	   30 B(8,10,14)      =    108.755888    -0.000424    -0.311334   108.444554
	   31 B(9,10,14)      =    108.716222    -0.000452    -0.281720   108.434501
	   32 B(10,14,11)     =    109.599674     0.000144     0.289628   109.889302
	   33 B(10,14,12)     =    109.978154     0.000407     0.665217   110.643371
	   34 B(10,14,13)     =    109.744374     0.000289     0.597234   110.341608
	   35 B(11,14,12)     =    109.180320    -0.000309    -0.511441   108.668878
	   36 B(11,14,13)     =    109.192972    -0.000269    -0.509705   108.683267
	   37 B(12,14,13)     =    109.126669    -0.000271    -0.563069   108.563600
	   38 D(1,4,7,5)      =   -179.670219     0.000064     0.371382  -179.298836
	   39 D(1,4,7,6)      =    -60.273061    -0.000038    -0.275432   -60.548493
	   40 D(1,4,7,10)     =     60.150974     0.000026     0.113553    60.264527
	   41 D(2,4,7,5)      =    -59.674061     0.000056     0.345892   -59.328169
	   42 D(2,4,7,6)      =     59.723096    -0.000046    -0.300922    59.422174
	   43 D(2,4,7,10)     =   -179.852868     0.000018     0.088062  -179.764806
	   44 D(3,4,7,5)      =     60.225241     0.000041     0.270359    60.495600
	   45 D(3,4,7,6)      =    179.622398    -0.000060    -0.376455   179.245943
	   46 D(3,4,7,10)     =    -59.953566     0.000004     0.012529   -59.941037
	   47 D(4,7,10,8)     =     90.174830     0.000025     0.120356    90.295186
	   48 D(4,7,10,9)     =   -150.361597    -0.000067    -0.494245  -150.855842
	   49 D(4,7,10,14)    =    -30.147006    -0.000031    -0.217955   -30.364961
	   50 D(5,7,10,8)     =    -29.974575    -0.000011    -0.163319   -30.137894
	   51 D(5,7,10,9)     =     89.488998    -0.000103    -0.777921    88.711077
	   52 D(5,7,10,14)    =   -150.296411    -0.000067    -0.501631  -150.798042
	   53 D(6,7,10,8)     =   -149.417313     0.000080     0.442957  -148.974356
	   54 D(6,7,10,9)     =    -29.953740    -0.000012    -0.171644   -30.125384
	   55 D(6,7,10,14)    =     90.260851     0.000024     0.104645    90.365496
	   56 D(7,10,14,11)   =   -179.857739     0.000018     0.093885  -179.763854
	   57 D(7,10,14,12)   =     60.107366     0.000027     0.125008    60.232373
	   58 D(7,10,14,13)   =    -59.952065     0.000004     0.018984   -59.933082
	   59 D(8,10,14,11)   =     59.776216    -0.000046    -0.305674    59.470543
	   60 D(8,10,14,12)   =    -60.258679    -0.000038    -0.274550   -60.533229
	   61 D(8,10,14,13)   =    179.681890    -0.000061    -0.380575   179.301315
	   62 D(9,10,14,11)   =    -59.626050     0.000055     0.338145   -59.287905
	   63 D(9,10,14,12)   =   -179.660946     0.000064     0.369268  -179.291677
	   64 D(9,10,14,13)   =     60.279623     0.000041     0.263244    60.542867
	 ---------------------------------------------------------------------------
	 Forces used to impose fixed constraints are not included.
	  Forces zeroed: 49 

  ==> Convergence Check <==

  Measures of convergence in internal coordinates in au.
  Criteria marked as inactive (o), active & met (*), and active & unmet ( ).
  ---------------------------------------------------------------------------------------------
   Step     Total Energy     Delta E     MAX Force     RMS Force      MAX Disp      RMS Disp   
  ---------------------------------------------------------------------------------------------
    Convergence Criteria    1.00e-06 *    3.00e-04 *             o    1.20e-03 *             o
  ---------------------------------------------------------------------------------------------
      2    -158.44667035   -8.55e-03      2.12e-02      7.73e-03 o    2.73e-02      1.25e-02 o  ~
  ---------------------------------------------------------------------------------------------

	Writing optimization data to binary file.
	Structure for next step:
	Cartesian Geometry (in Angstrom)
	    H    -1.7249435103   0.4581250530   0.3654544945
	    H    -1.4791127537   2.0932079112  -0.2817917836
	    H    -1.3010750334   0.6789597824  -1.3442757591
	    C    -1.1343670028   1.0563293034  -0.3311577443
	    H     0.9199968185   1.6043304806  -0.6833004296
	    H     0.5001980316   1.3805692168   1.0382022238
	    C     0.3654396891   0.9846148371   0.0270544803
	    H     1.3246752469  -0.6475948196  -1.0320255279
	    H     1.7672698137  -0.5255014052   0.6939675924
	    C     0.9447728245  -0.4584021778  -0.0233373505
	    H     0.3753564104  -2.5356448136   0.2715930704
	    H    -0.9263896443  -1.5216380817  -0.3840690811
	    H    -0.4844612057  -1.3954551252   1.3302153247
	    C    -0.0924539832  -1.5482808616   0.3201602300
			--------------------------
			 OPTKING Finished Execution 
			--------------------------

    Structure for next step:
    Molecular point group: c1
    Full point group: C1

    Geometry (in Angstrom), charge = 0, multiplicity = 1:

    H           -1.724326490544     0.458171918663     0.367410444886
    H           -1.478495733927     2.093254776792    -0.279835833240
    H           -1.300458013576     0.679006648027    -1.342319808739
    C           -1.133749982996     1.056376168999    -0.329201793975
    H            0.920613838265     1.604377346201    -0.681344479201
    H            0.500815051406     1.380616082388     1.040158174147
    C            0.366056708900     0.984661702734     0.029010430688
    H            1.325292266713    -0.647547953997    -1.030069577514
    H            1.767886833465    -0.525454539530     0.695923542786
    C            0.945389844285    -0.458355312205    -0.021381400158
    H            0.375973430214    -2.535597947965     0.273549020750
    H           -0.925772624486    -1.521591216043    -0.382113130772
    H           -0.483844185872    -1.395408259536     1.332171275072
    C           -0.091836963445    -1.548233995943     0.322116180335

gradient() will perform analytic gradient computation.

*** tstart() called on lski1497
*** at Tue Feb 21 19:33:25 2017


         ---------------------------------------------------------
                                   SCF
            by Justin Turney, Rob Parrish, and Andy Simmonett
                              RKS Reference
                        1 Threads,   1000 MiB Core
         ---------------------------------------------------------

  ==> Geometry <==

    Molecular point group: c1
    Full point group: C1

    Geometry (in Angstrom), charge = 0, multiplicity = 1:

       Center              X                  Y                   Z               Mass       
    ------------   -----------------  -----------------  -----------------  -----------------
           H         -1.724326490544     0.458171918663     0.367410444886     1.007825032070
           H         -1.478495733927     2.093254776792    -0.279835833240     1.007825032070
           H         -1.300458013576     0.679006648027    -1.342319808739     1.007825032070
           C         -1.133749982996     1.056376168999    -0.329201793975    12.000000000000
           H          0.920613838265     1.604377346201    -0.681344479201     1.007825032070
           H          0.500815051406     1.380616082388     1.040158174147     1.007825032070
           C          0.366056708900     0.984661702734     0.029010430688    12.000000000000
           H          1.325292266713    -0.647547953997    -1.030069577514     1.007825032070
           H          1.767886833465    -0.525454539530     0.695923542786     1.007825032070
           C          0.945389844285    -0.458355312205    -0.021381400158    12.000000000000
           H          0.375973430214    -2.535597947965     0.273549020750     1.007825032070
           H         -0.925772624486    -1.521591216043    -0.382113130772     1.007825032070
           H         -0.483844185872    -1.395408259536     1.332171275072     1.007825032070
           C         -0.091836963445    -1.548233995943     0.322116180335    12.000000000000

  Running in c1 symmetry.

  Rotational constants: A =      0.39487  B =      0.17965  C =      0.13845 [cm^-1]
  Rotational constants: A =  11837.92722  B =   5385.72866  C =   4150.49022 [MHz]
  Nuclear repulsion =  132.922670921099581

  Charge       = 0
  Multiplicity = 1
  Electrons    = 34
  Nalpha       = 17
  Nbeta        = 17

  ==> Algorithm <==

  SCF Algorithm Type is DF.
  DIIS enabled.
  MOM disabled.
  Fractional occupation disabled.
  Guess Type is READ.
  Energy threshold   = 1.00e-08
  Density threshold  = 1.00e-08
  Integral threshold = 0.00e+00

  ==> Primary Basis <==

  Basis Set: CC-PVDZ
    Number of shells: 54
    Number of basis function: 106
    Number of Cartesian functions: 110
    Spherical Harmonics?: true
    Max angular momentum: 2

  ==> DFT Potential <==

   => B3LYP Composite Functional <= 

    B3LYP Hybrid-GGA Exchange-Correlation Functional (VWN1-RPA)

    P.J. Stephens et. al., J. Phys. Chem., 98, 11623-11627, 1994

    Points   =           5000
    Deriv    =              1
    GGA      =           TRUE
    Meta     =          FALSE

    X_LRC        =          FALSE
    X_Hybrid     =           TRUE
    X_Alpha      =   2.000000E-01
    X_Omega      =   0.000000E+00
    C_LRC        =          FALSE
    C_Hybrid     =          FALSE
    C_Alpha      =   0.000000E+00
    C_Omega      =   0.000000E+00

   => Exchange Functionals <=

    0.8000    B3_X
    0.2000      HF 

   => Correlation Functionals <=

    0.1900 VWN3RPA_C
    0.8100   LYP_C

   => Molecular Quadrature <=

    Radial Scheme    =       TREUTLER
    Pruning Scheme   =           FLAT
    Nuclear Scheme   =       TREUTLER

    BS radius alpha  =              1
    Pruning alpha    =              1
    Radial Points    =             75
    Spherical Points =            302
    Total Points     =         312754
    Total Blocks     =            261
    Max Points       =           4962
    Max Functions    =            106

  ==> Pre-Iterations <==

   -------------------------------------------------------
    Irrep   Nso     Nmo     Nalpha   Nbeta   Ndocc  Nsocc
   -------------------------------------------------------
     A        106     106       0       0       0       0
   -------------------------------------------------------
    Total     106     106      17      17      17       0
   -------------------------------------------------------

  ==> Integral Setup <==

  ==> DFJK: Density-Fitted J/K Matrices <==

    J tasked:                  Yes
    K tasked:                  Yes
    wK tasked:                  No
    OpenMP threads:              1
    Integrals threads:           1
    Memory (MB):               715
    Algorithm:                Core
    Integral Cache:           NONE
    Schwarz Cutoff:          1E-12
    Fitting Condition:       1E-12

   => Auxiliary Basis Set <=

  Basis Set: 
    Number of shells: 186
    Number of basis function: 510
    Number of Cartesian functions: 574
    Spherical Harmonics?: true
    Max angular momentum: 3

  Minimum eigenvalue in the overlap matrix is 3.9531508902E-03.
  Using Symmetric Orthogonalization.
  SCF Guess was Projection but file not found.
  Switching over to SAD guess.

  SCF Guess: Superposition of Atomic Densities via on-the-fly atomic UHF.

  ==> Iterations <==

                           Total Energy        Delta E     RMS |[F,P]|

   @DF-RKS iter   0:  -158.87000593428525   -1.58870e+02   3.20615e-02 
   @DF-RKS iter   1:  -158.26431849753629    6.05687e-01   5.40173e-03 
   @DF-RKS iter   2:  -158.17554299362422    8.87755e-02   6.64122e-03 DIIS
   @DF-RKS iter   3:  -158.45008239770371   -2.74539e-01   3.86421e-04 DIIS
   @DF-RKS iter   4:  -158.45094096828319   -8.58571e-04   1.21720e-04 DIIS
   @DF-RKS iter   5:  -158.45101587089309   -7.49026e-05   4.75023e-05 DIIS
   @DF-RKS iter   6:  -158.45102808193332   -1.22110e-05   7.90590e-06 DIIS
   @DF-RKS iter   7:  -158.45102847069893   -3.88766e-07   1.02478e-06 DIIS
   @DF-RKS iter   8:  -158.45102847769243   -6.99350e-09   1.91498e-07 DIIS
   @DF-RKS iter   9:  -158.45102847785526   -1.62828e-10   1.04748e-07 DIIS
   @DF-RKS iter  10:  -158.45102847791583   -6.05667e-11   1.35448e-08 DIIS
   @DF-RKS iter  11:  -158.45102847791679   -9.66338e-13   2.60859e-09 DIIS

  ==> Post-Iterations <==

    Orbital Energies (a.u.)
    -----------------------

    Doubly Occupied:                                                      

       1A    -10.177687     2A    -10.177541     3A    -10.171847  
       4A    -10.171825     5A     -0.789223     6A     -0.713378  
       7A     -0.641714     8A     -0.557000     9A     -0.464157  
      10A     -0.448136    11A     -0.409465    12A     -0.384151  
      13A     -0.373487    14A     -0.361411    15A     -0.320465  
      16A     -0.320405    17A     -0.315723  

    Virtual:                                                              

      18A      0.056302    19A      0.094201    20A      0.097941  
      21A      0.106378    22A      0.131209    23A      0.131530  
      24A      0.155334    25A      0.162113    26A      0.163249  
      27A      0.188242    28A      0.198139    29A      0.232196  
      30A      0.274246    31A      0.406484    32A      0.417288  
      33A      0.434764    34A      0.447104    35A      0.465175  
      36A      0.488452    37A      0.505223    38A      0.582278  
      39A      0.594934    40A      0.611303    41A      0.629411  
      42A      0.643969    43A      0.655777    44A      0.656908  
      45A      0.667357    46A      0.679136    47A      0.679793  
      48A      0.695571    49A      0.715845    50A      0.716332  
      51A      0.757684    52A      0.820182    53A      0.881935  
      54A      0.892181    55A      0.966874    56A      1.080289  
      57A      1.172655    58A      1.205726    59A      1.209196  
      60A      1.272418    61A      1.281112    62A      1.337453  
      63A      1.414581    64A      1.426773    65A      1.460176  
      66A      1.552899    67A      1.566081    68A      1.587090  
      69A      1.591180    70A      1.625350    71A      1.635019  
      72A      1.636539    73A      1.665643    74A      1.673420  
      75A      1.689143    76A      1.690642    77A      1.697188  
      78A      1.738637    79A      1.754656    80A      1.780407  
      81A      1.799630    82A      1.814266    83A      1.846656  
      84A      1.902465    85A      1.945741    86A      1.953086  
      87A      2.019860    88A      2.069368    89A      2.110926  
      90A      2.120496    91A      2.186422    92A      2.245439  
      93A      2.245579    94A      2.259144    95A      2.312318  
      96A      2.321319    97A      2.438605    98A      2.440579  
      99A      2.468212   100A      2.488874   101A      2.526273  
     102A      2.539810   103A      2.608108   104A      2.625492  
     105A      2.657224   106A      2.730279  

    Final Occupation by Irrep:
              A 
    DOCC [    17 ]

  Energy converged.

  @DF-RKS Final Energy:  -158.45102847791679

   => Energetics <=

    Nuclear Repulsion Energy =            132.9226709210995807
    One-Electron Energy =                -474.3376544434529478
    Two-Electron Energy =                 203.5712363595190766
    DFT Exchange-Correlation Energy =     -20.6072813150824885
    Empirical Dispersion Energy =           0.0000000000000000
    PCM Polarization Energy =               0.0000000000000000
    EFP Energy =                            0.0000000000000000
    Total Energy =                       -158.4510284779167932


  Saving occupied orbitals to File 180.

*** tstop() called on lski1497 at Tue Feb 21 19:35:46 2017
Module time:
	user time   =     123.76 seconds =       2.06 minutes
	system time =       1.58 seconds =       0.03 minutes
	total time  =        141 seconds =       2.35 minutes
Total time:
	user time   =     446.39 seconds =       7.44 minutes
	system time =       5.83 seconds =       0.10 minutes
	total time  =        499 seconds =       8.32 minutes


Properties will be evaluated at   0.000000,   0.000000,   0.000000 Bohr

Properties computed using the SCF density matrix

  Nuclear Dipole Moment: (a.u.)
     X:    -0.9584      Y:    -0.3845      Z:    -0.0061

  Electronic Dipole Moment: (a.u.)
     X:     0.9742      Y:     0.3908      Z:     0.0061

  Dipole Moment: (a.u.)
     X:     0.0158      Y:     0.0063      Z:     0.0000     Total:     0.0170

  Dipole Moment: (Debye)
     X:     0.0401      Y:     0.0160      Z:     0.0001     Total:     0.0432


*** tstart() called on lski1497
*** at Tue Feb 21 19:35:46 2017


         ------------------------------------------------------------
                                   SCF GRAD                          
                          Rob Parrish, Justin Turney,                
                       Andy Simmonett, and Alex Sokolov              
         ------------------------------------------------------------

  ==> Geometry <==

    Molecular point group: c1
    Full point group: C1

    Geometry (in Angstrom), charge = 0, multiplicity = 1:

       Center              X                  Y                   Z               Mass       
    ------------   -----------------  -----------------  -----------------  -----------------
           H         -1.724326490544     0.458171918663     0.367410444886     1.007825032070
           H         -1.478495733927     2.093254776792    -0.279835833240     1.007825032070
           H         -1.300458013576     0.679006648027    -1.342319808739     1.007825032070
           C         -1.133749982996     1.056376168999    -0.329201793975    12.000000000000
           H          0.920613838265     1.604377346201    -0.681344479201     1.007825032070
           H          0.500815051406     1.380616082388     1.040158174147     1.007825032070
           C          0.366056708900     0.984661702734     0.029010430688    12.000000000000
           H          1.325292266713    -0.647547953997    -1.030069577514     1.007825032070
           H          1.767886833465    -0.525454539530     0.695923542786     1.007825032070
           C          0.945389844285    -0.458355312205    -0.021381400158    12.000000000000
           H          0.375973430214    -2.535597947965     0.273549020750     1.007825032070
           H         -0.925772624486    -1.521591216043    -0.382113130772     1.007825032070
           H         -0.483844185872    -1.395408259536     1.332171275072     1.007825032070
           C         -0.091836963445    -1.548233995943     0.322116180335    12.000000000000

  Nuclear repulsion =  132.922670921099581

  ==> Basis Set <==

  Basis Set: CC-PVDZ
    Number of shells: 54
    Number of basis function: 106
    Number of Cartesian functions: 110
    Spherical Harmonics?: true
    Max angular momentum: 2

  ==> DFJKGrad: Density-Fitted SCF Gradients <==

    Gradient:                    1
    J tasked:                  Yes
    K tasked:                  Yes
    wK tasked:                  No
    OpenMP threads:              1
    Integrals threads:           1
    Memory (MB):               715
    Schwarz Cutoff:          0E+00
    Fitting Condition:       1E-12

   => Auxiliary Basis Set <=

  Basis Set: 
    Number of shells: 186
    Number of basis function: 510
    Number of Cartesian functions: 574
    Spherical Harmonics?: true
    Max angular momentum: 3

  ==> DFT Potential <==

   => B3LYP Composite Functional <= 

    B3LYP Hybrid-GGA Exchange-Correlation Functional (VWN1-RPA)

    P.J. Stephens et. al., J. Phys. Chem., 98, 11623-11627, 1994

    Points   =           5000
    Deriv    =              1
    GGA      =           TRUE
    Meta     =          FALSE

    X_LRC        =          FALSE
    X_Hybrid     =           TRUE
    X_Alpha      =   2.000000E-01
    X_Omega      =   0.000000E+00
    C_LRC        =          FALSE
    C_Hybrid     =          FALSE
    C_Alpha      =   0.000000E+00
    C_Omega      =   0.000000E+00

   => Exchange Functionals <=

    0.8000    B3_X
    0.2000      HF 

   => Correlation Functionals <=

    0.1900 VWN3RPA_C
    0.8100   LYP_C

   => Molecular Quadrature <=

    Radial Scheme    =       TREUTLER
    Pruning Scheme   =           FLAT
    Nuclear Scheme   =       TREUTLER

    BS radius alpha  =              1
    Pruning alpha    =              1
    Radial Points    =             75
    Spherical Points =            302
    Total Points     =         312754
    Total Blocks     =            261
    Max Points       =           4962
    Max Functions    =            106


  -Total Gradient:
     Atom            X                  Y                   Z
[...]
	             0.0003552739       -0.0001679370       -0.0003294894
	            -0.0001041151       -0.0002488837       -0.0003012967
	             0.0007213052        0.0004576140        0.0083023896
	             0.0000033461       -0.0000205576       -0.0001118167
	             0.0000549962       -0.0000794962        0.0000499566
	             0.0000492443       -0.0000600529       -0.0000161223
	            -0.0009494701       -0.0001423315       -0.0039330449

	---Fragment 1 Intrafragment Coordinates---
	 - Coordinate -           - BOHR/RAD -       - ANG/DEG -
	 R(1,4)           =         2.081097	       1.101269
	 R(2,4)           =         2.083098	       1.102328
	 R(3,4)           =         2.087423	       1.104617
	 R(4,7)           =         2.895799	       1.532391
	 R(5,7)           =         2.085410	       1.103551
	 R(6,7)           =         2.092238	       1.107165
	 R(7,10)          =         2.926051	       1.548399
	 R(8,10)          =         2.092202	       1.107146
	 R(9,10)          =         2.084659	       1.103154
	 R(10,14)         =         2.895166	       1.532056
	 R(11,14)         =         2.083179	       1.102371
	 R(12,14)         =         2.080898	       1.101164
	 R(13,14)         =         2.086545	       1.104152
	 B(1,4,2)         =         1.875640	     107.466232
	 B(1,4,3)         =         1.874586	     107.405852
	 B(1,4,7)         =         1.954169	     111.965610
	 B(2,4,3)         =         1.871008	     107.200871
	 B(2,4,7)         =         1.929661	     110.561458
	 B(3,4,7)         =         1.954725	     111.997498
	 B(4,7,5)         =         1.915832	     109.769065
	 B(4,7,6)         =         1.875232	     107.442873
	 B(4,7,10)        =         2.025733	     116.065965
	 B(5,7,6)         =         1.838236	     105.323186
	 B(5,7,10)        =         1.902870	     109.026396
	 B(6,7,10)        =         1.896526	     108.662944
	 B(7,10,8)        =         1.896673	     108.671384
	 B(7,10,9)        =         1.903019	     109.034978
	 B(7,10,14)       =         2.025935	     116.077547
	 B(8,10,9)        =         1.838146	     105.318017
	 B(8,10,14)       =         1.875375	     107.451058
	 B(9,10,14)       =         1.915260	     109.736322
	 B(10,14,11)      =         1.928350	     110.486310
	 B(10,14,12)      =         1.953266	     111.913916
	 B(10,14,13)      =         1.956143	     112.078763
	 B(11,14,12)      =         1.873547	     107.346359
	 B(11,14,13)      =         1.872060	     107.261127
	 B(12,14,13)      =         1.876433	     107.511719
	 D(1,4,7,5)       =        -3.033389	    -173.800408
	 D(1,4,7,6)       =        -1.043122	     -59.766501
	 D(1,4,7,10)      =         1.082857	      62.043140
	 D(2,4,7,5)       =        -0.942515	     -54.002110
	 D(2,4,7,6)       =         1.047753	      60.031797
	 D(2,4,7,10)      =        -3.109453	    -178.158562
	 D(3,4,7,5)       =         1.142869	      65.481595
	 D(3,4,7,6)       =         3.133137	     179.515502
	 D(3,4,7,10)      =        -1.024069	     -58.674857
	 D(4,7,10,8)      =         1.588048	      90.988468
	 D(4,7,10,9)      =        -2.700165	    -154.708059
	 D(4,7,10,14)     =        -0.527039	     -30.197110
	 D(5,7,10,8)      =        -0.585569	     -33.550650
	 D(5,7,10,9)      =         1.409403	      80.752824
	 D(5,7,10,14)     =        -2.700657	    -154.736228
	 D(6,7,10,8)      =        -2.580491	    -147.851230
	 D(6,7,10,9)      =        -0.585519	     -33.547757
	 D(6,7,10,14)     =         1.587607	      90.963191
	 D(7,10,14,11)    =        -3.118694	    -178.687999
	 D(7,10,14,12)    =         1.077746	      61.750275
	 D(7,10,14,13)    =        -1.031933	     -59.125405
	 D(8,10,14,11)    =         1.038074	      59.477268
	 D(8,10,14,12)    =        -1.048672	     -60.084458
	 D(8,10,14,13)    =         3.124835	     179.039862
	 D(9,10,14,11)    =        -0.951875	     -54.538416
	 D(9,10,14,12)    =        -3.038621	    -174.100142
	 D(9,10,14,13)    =         1.134886	      65.024178

	Current energy   :      -158.4535502756

	Energy change for the previous step:
		Projected    :         0.0000000591
		Actual       :        -0.0000021338

	Performing BFGS update.
	Previous computed or guess Hessian on step 1.
	Steps to be used in Hessian update: 49 48
	Adding user-defined constraint: Fragment 1; Coordinate 49:
		Value =    -0.527039; Fixed value    =    -0.523600
		Force =     0.005932; Force constant =     1.725000
	Removing off-diagonal coupling between coordinate 49 and others.
	Taking RFO optimization step.
	Going to follow RFO solution 1.
	Rejecting RFO root 1 because normalization gives large value.
	Rejecting RFO root 2 because normalization gives large value.
	Rejecting RFO root 3 because normalization gives large value.
	Rejecting RFO root 4 because normalization gives large value.
	Using RFO vector 5.

	Determining step-restricting scale parameter for RS-RFO.
	Maximum step size allowed    0.10000

	 Iter      |step|        alpha        rfo_root  
	------------------------------------------------
	    0    24.22204       1.00000           5
	    1    12.14689       1.99767           5
	    2     6.10927       3.98600           5
	    3     3.09035       7.93463           5
	    4     1.58070      15.71980           5
	    5     0.82557      30.84273           5
	    6     0.44762      59.32112           5
	    7     0.25845     109.53385           5
	    8     0.16456     186.58302           5
	    9     0.12031     275.58276           5
	   10     0.10346     334.98118           5
	   11     0.10014     349.64299           5
	   12     0.10000     350.27616           5
	------------------------------------------------
	Norm of target step-size    0.10000
	Projected energy change by RFO approximation:        -0.0000271596

	Back-transformation to cartesian coordinates...
	Successfully converged to displaced geometry.

	--- Internal Coordinate Step in ANG or DEG, aJ/ANG or AJ/DEG ---
	 ---------------------------------------------------------------------------
	   Coordinate                Previous        Force       Change         New 
	   ----------                --------       ------       ------       ------
	    1 R(1,4)          =      1.101269    -0.000097    -0.002834     1.098435
	    2 R(2,4)          =      1.102328    -0.000269    -0.004275     1.098053
	    3 R(3,4)          =      1.104617    -0.001514     0.002716     1.107333
	    4 R(4,7)          =      1.532391    -0.000367    -0.000439     1.531952
	    5 R(5,7)          =      1.103551     0.000005    -0.000322     1.103230
	    6 R(6,7)          =      1.107165    -0.003838     0.002417     1.109582
	    7 R(7,10)         =      1.548399    -0.002613    -0.000813     1.547586
	    8 R(8,10)         =      1.107146    -0.003820     0.003078     1.110223
	    9 R(9,10)         =      1.103154     0.002186    -0.007470     1.095684
	   10 R(10,14)        =      1.532056     0.001513    -0.006448     1.525608
	   11 R(11,14)        =      1.102371    -0.000157    -0.002470     1.099901
	   12 R(12,14)        =      1.101164     0.000559    -0.002892     1.098272
	   13 R(13,14)        =      1.104152     0.000335    -0.004555     1.099597
	   14 B(1,4,2)        =    107.466232     0.000003     0.873293   108.339525
	   15 B(1,4,3)        =    107.405852     0.000010    -0.242361   107.163491
	   16 B(1,4,7)        =    111.965610    -0.000016    -1.166111   110.799499
	   17 B(2,4,3)        =    107.200871     0.000003     1.182825   108.383697
	   18 B(2,4,7)        =    110.561458    -0.000003    -0.828656   109.732802
	   19 B(3,4,7)        =    111.997498     0.000004     0.297081   112.294579
	   20 B(4,7,5)        =    109.769065    -0.000006    -0.648449   109.120616
	   21 B(4,7,6)        =    107.442873     0.000012    -0.167482   107.275392
	   22 B(4,7,10)       =    116.065965     0.000001     0.533954   116.599919
	   23 B(5,7,6)        =    105.323186     0.000008     0.373537   105.696723
	   24 B(5,7,10)       =    109.026396    -0.000012    -0.125084   108.901312
	   25 B(6,7,10)       =    108.662944    -0.000002     0.036684   108.699628
	   26 B(7,10,8)       =    108.671384    -0.000002    -0.133316   108.538068
	   27 B(7,10,9)       =    109.034978    -0.000016    -0.635233   108.399744
	   28 B(7,10,14)      =    116.077547     0.000002     0.285184   116.362731
	   29 B(8,10,9)       =    105.318017     0.000009     0.063396   105.381413
	   30 B(8,10,14)      =    107.451058     0.000010    -0.888029   106.563029
	   31 B(9,10,14)      =    109.736322    -0.000002     1.267970   111.004292
	   32 B(10,14,11)     =    110.486310     0.000005     0.432704   110.919015
	   33 B(10,14,12)     =    111.913916    -0.000007    -0.172903   111.741013
	   34 B(10,14,13)     =    112.078763    -0.000004    -0.668042   111.410721
	   35 B(11,14,12)     =    107.346359     0.000005     1.387321   108.733680
	   36 B(11,14,13)     =    107.261127    -0.000001    -0.945929   106.315198
	   37 B(12,14,13)     =    107.511719     0.000002    -0.013162   107.498556
	   38 D(1,4,7,5)      =   -173.800408    -0.000002     0.068212  -173.732195
	   39 D(1,4,7,6)      =    -59.766501     0.000001     0.093920   -59.672581
	   40 D(1,4,7,10)     =     62.043140     0.000003     0.372983    62.416123
	   41 D(2,4,7,5)      =    -54.002110    -0.000004    -0.137202   -54.139311
	   42 D(2,4,7,6)      =     60.031797    -0.000001    -0.111494    59.920303
	   43 D(2,4,7,10)     =   -178.158562     0.000001     0.167569  -177.990993
	   44 D(3,4,7,5)      =     65.481595    -0.000002     0.989502    66.471097
	   45 D(3,4,7,6)      =    179.515502     0.000001     1.015210   180.530711
	   46 D(3,4,7,10)     =    -58.674857     0.000002     1.294273   -57.380585
	   47 D(4,7,10,8)     =     90.988468    -0.000004    -1.018627    89.969841
	   48 D(4,7,10,9)     =   -154.708059    -0.000003    -1.344398  -156.052457
	   49 D(4,7,10,14)    =    -30.197110    -0.000007     0.050471   -30.146639
	   50 D(5,7,10,8)     =    -33.550650     0.000000    -0.443602   -33.994252
	   51 D(5,7,10,9)     =     80.752824     0.000000    -0.769373    79.983451
	   52 D(5,7,10,14)    =   -154.736228    -0.000003     0.625496  -154.110732
	   53 D(6,7,10,8)     =   -147.851230    -0.000000    -0.838548  -148.689778
	   54 D(6,7,10,9)     =    -33.547757     0.000000    -1.164319   -34.712076
	   55 D(6,7,10,14)    =     90.963191    -0.000003     0.230550    91.193742
	   56 D(7,10,14,11)   =   -178.687999     0.000003     0.216607  -178.471392
	   57 D(7,10,14,12)   =     61.750275     0.000002    -1.728067    60.022208
	   58 D(7,10,14,13)   =    -59.125405     0.000003    -1.121966   -60.247371
	   59 D(8,10,14,11)   =     59.477268     0.000002     0.880407    60.357675
	   60 D(8,10,14,12)   =    -60.084458     0.000000    -1.064267   -61.148725
	   61 D(8,10,14,13)   =    179.039862     0.000002    -0.458166   178.581696
	   62 D(9,10,14,11)   =    -54.538416    -0.000002     0.652774   -53.885642
	   63 D(9,10,14,12)   =   -174.100142    -0.000003    -1.291900  -175.392042
	   64 D(9,10,14,13)   =     65.024178    -0.000002    -0.685799    64.338379
	 ---------------------------------------------------------------------------
	 Forces used to impose fixed constraints are not included.
	  Forces zeroed: 49 

  ==> Convergence Check <==

  Measures of convergence in internal coordinates in au.
  Criteria marked as inactive (o), active & met (*), and active & unmet ( ).
  ---------------------------------------------------------------------------------------------
   Step     Total Energy     Delta E     MAX Force     RMS Force      MAX Disp      RMS Disp   
  ---------------------------------------------------------------------------------------------
    Convergence Criteria    1.00e-06 *    3.00e-04 *             o    1.20e-03 *             o
  ---------------------------------------------------------------------------------------------
     50    -158.45355028   -2.13e-06      4.66e-04      1.45e-04 o    3.02e-02      1.25e-02 o  ~
  ---------------------------------------------------------------------------------------------


  **** Optimization has failed! (in 50 steps) ****

  ==> Optimization Summary <==

  Measures of convergence in internal coordinates in au.
  --------------------------------------------------------------------------------------------------------------- ~
   Step         Total Energy             Delta E       MAX Force       RMS Force        MAX Disp        RMS Disp  ~
  --------------------------------------------------------------------------------------------------------------- ~
      1    -158.438125016519   -158.438125016519      0.04782043      0.01397367      0.04481200      0.01269869  ~
      2    -158.446670345833     -0.008545329314      0.02115247      0.00773551      0.02734112      0.01252768  ~
      3    -158.451028478189     -0.004358132356      0.01176518      0.00368651      0.03407986      0.01254390  ~
      4    -158.452794085102     -0.001765606913      0.00476760      0.00146892      0.04416721      0.01250472  ~
      5    -158.453428748855     -0.000634663752      0.00148273      0.00047832      0.04210542      0.01249343  ~
      6    -158.453608571020     -0.000179822165      0.00037619      0.00015167      0.02646109      0.01250020  ~
      7    -158.453646486624     -0.000037915604      0.00034045      0.00008994      0.00530677      0.00176808  ~
      8    -158.453643290425      0.000003196199      0.00026857      0.00006121      0.00579346      0.00263828  ~
      9    -158.453638108024      0.000005182400      0.00031505      0.00008486      0.00660706      0.00293963  ~
     10    -158.453636775902      0.000001332122      0.00032156      0.00007105      0.02751535      0.01249897  ~
     11    -158.453597739378      0.000039036524      0.00108518      0.00036372      0.03490398      0.01250256  ~
     12    -158.453602054580     -0.000004315202      0.00042407      0.00011414      0.00765967      0.00281532  ~
     13    -158.453611433460     -0.000009378880      0.00009028      0.00002601      0.00330041      0.00142503  ~
     14    -158.453615504765     -0.000004071305      0.00012770      0.00004210      0.01294755      0.00462410  ~
     15    -158.453543000047      0.000072504717      0.00156987      0.00047893      0.00689389      0.00265008  ~
     16    -158.453605668157     -0.000062668110      0.00031079      0.00009520      0.03887910      0.01249128  ~
     17    -158.453513922651      0.000091745506      0.00133361      0.00049843      0.02574934      0.00877209  ~
     18    -158.453568456261     -0.000054533610      0.00093792      0.00025097      0.00951268      0.00270820  ~
     19    -158.453581993682     -0.000013537422      0.00065930      0.00016967      0.00188229      0.00077443  ~
     20    -158.453587400136     -0.000005406454      0.00037502      0.00011727      0.00273062      0.00103267  ~
     21    -158.453593309496     -0.000005909360      0.00047393      0.00012056      0.00052298      0.00021234  ~
     22    -158.453595638412     -0.000002328917      0.00055304      0.00014645      0.00305283      0.00114350  ~
     23    -158.453593788159      0.000001850253      0.00054526      0.00015124      0.03062994      0.01249873  ~
     24    -158.453540523127      0.000053265032      0.00243508      0.00043536      0.03731329      0.01251202  ~
     25    -158.453082838295      0.000457684832      0.00835033      0.00197669      0.03694707      0.01248091  ~
     26    -158.453452737312     -0.000369899017      0.00801156      0.00216438      0.03641722      0.01250986  ~
     27    -158.453508724733     -0.000055987421      0.00098490      0.00042284      0.03106547      0.01250227  ~
     28    -158.453533299881     -0.000024575149      0.00124771      0.00040381      0.00566431      0.00207899  ~
     29    -158.453552197418     -0.000018897536      0.00072949      0.00027095      0.00290192      0.00096972  ~
     30    -158.453567122681     -0.000014925263      0.00073918      0.00021393      0.00757127      0.00356327  ~
     31    -158.453573983556     -0.000006860875      0.00091800      0.00025322      0.00274677      0.00126616  ~
     32    -158.453565810246      0.000008173310      0.00058743      0.00016166      0.00191171      0.00060328  ~
     33    -158.453570177430     -0.000004367184      0.00054243      0.00013846      0.00174715      0.00071558  ~
     34    -158.453574453868     -0.000004276439      0.00054620      0.00015646      0.00304300      0.00117282  ~
     35    -158.453579451331     -0.000004997462      0.00051700      0.00016014      0.03370413      0.01250334  ~
     36    -158.453433649155      0.000145802175      0.00457945      0.00109348      0.04950064      0.01249346  ~
     37    -158.452927173519      0.000506475636      0.02210840      0.00479408      0.04150917      0.01249016  ~
     38    -158.453524008290     -0.000596834771      0.00155569      0.00037859      0.00800878      0.00319203  ~
     39    -158.453556238692     -0.000032230402      0.00053755      0.00016038      0.00280436      0.00113441  ~
     40    -158.453563245397     -0.000007006705      0.00053699      0.00013918      0.02083038      0.00791861  ~
     41    -158.453500446737      0.000062798661      0.00222784      0.00061653      0.02258202      0.00843484  ~
     42    -158.453548966028     -0.000048519292      0.00066994      0.00022826      0.03006176      0.01253546  ~
     43    -158.453026454884      0.000522511145      0.00820856      0.00229990      0.02241840      0.00968954  ~
     44    -158.453551790898     -0.000525336014      0.00076085      0.00023244      0.00672365      0.00263625  ~
     45    -158.453540030035      0.000011760863      0.00106657      0.00026771      0.00105111      0.00042486  ~
     46    -158.453551515270     -0.000011485234      0.00054009      0.00016452      0.00102463      0.00039400  ~
     47    -158.453553246938     -0.000001731669      0.00049500      0.00014294      0.00064428      0.00023272  ~
     48    -158.453546330644      0.000006916294      0.00068314      0.00018930      0.00066434      0.00025592  ~
     49    -158.453548141776     -0.000001811132      0.00053754      0.00018046      0.00100935      0.00039341  ~
     50    -158.453550275624     -0.000002133848      0.00046586      0.00015239      0.03016046      0.01249138  ~
  --------------------------------------------------------------------------------------------------------------- ~

	Writing optimization data to binary file.
			--------------------------
			 OPTKING Finished Execution 
			--------------------------

    Structure for next step:
    Molecular point group: c1
    Full point group: C1

    Geometry (in Angstrom), charge = 0, multiplicity = 1:

    H           -1.784069934768     0.553586700989     0.354882388381
    H           -1.467154562270     2.134743701492    -0.400633938420
    H           -1.380104042372     0.635249171402    -1.371607164490
    C           -1.161813914448     1.080174506384    -0.381366648265
    H            0.909630651696     1.606951004419    -0.702029545471
    H            0.444034821502     1.436256961361     0.990523365038
    C            0.321536171348     0.977837242801    -0.012481298744
    H            1.330525213404    -0.675610659058    -0.996452142963
    H            1.806348792989    -0.432498113644     0.674751273898
    C            0.932586188734    -0.443765006293     0.013739847945
    H            0.515964386785    -2.544867145252     0.397565424564
    H           -0.854277580775    -1.655015414190    -0.325292346539
    H           -0.438923429323    -1.443994983433     1.384826120920
    C           -0.015207673671    -1.581895662166     0.379559385793

	Optimizer: Did not converge!	Cleaning optimization helper files.

*** Psi4 exiting successfully. Buy a developer a beer!
