    -----------------------------------------------------------------------
          Psi4: An Open-Source Ab Initio Electronic Structure Package
                              Psi4 1.0.0 Driver

                          Git: Rev {master} 6a9a71b 

    J. M. Turney, A. C. Simmonett, R. M. Parrish, E. G. Hohenstein,
    F. A. Evangelista, J. T. Fermann, B. J. Mintz, L. A. Burns, J. J. Wilke,
    M. L. Abrams, N. J. Russ, M. L. Leininger, C. L. Janssen, E. T. Seidl,
    W. D. Allen, H. F. Schaefer, R. A. King, E. F. Valeev, C. D. Sherrill,
    and T. D. Crawford, WIREs Comput. Mol. Sci. 2, 556-565 (2012)
    (doi: 10.1002/wcms.93)

                         Additional Contributions by
    A. E. DePrince, U. Bozkaya, A. Yu. Sokolov, D. G. A. Smith, R. Di Remigio,
    R. M. Richard, J. F. Gonthier, H. R. McAlexander, M. Saitow, and
    B. P. Pritchard
    -----------------------------------------------------------------------


    Psi4 started on: Thu Feb 16 16:22:31 2017

    Process ID:   1306
    PSI4DATADIR: /Users/sternc1/anaconda/share/psi4
    Memory level set to 256.000 MB

  ==> Input File <==

--------------------------------------------------------------------------

memory 1000 mb

molecule butane {
  symmetry C1
  0 1 
  H      1.604   0.760   -8.260
  H      1.745   2.388   -8.880
  H      2.043   1.024   -9.930
  C      2.142   1.395   -8.932
  H      4.169   2.051   -9.210
  H      3.731   1.788   -7.539
  C      3.631   1.416   -8.537
  H      5.109   -0.003   -9.180
  H      4.406   -0.367   -7.624
  C      4.203   -0.012   -8.612
  H      3.578   -1.932   -9.343
  H      2.976   -0.586   -10.279
  H      2.273   -0.950   -8.723
  C      3.180   -0.941   -9.291
  units Angstrom
}

dih_string = "4 7 10 14 10"
set optking fixed_dihedral = $dih_string

optimize('MP2/6-31G(d)')
--------------------------------------------------------------------------

  Memory set to 1000.000 MiB by Python script.
gradient() will perform analytic gradient computation.
    SCF Algorithm Type (re)set to DF.

*** tstart() called on lski1497
*** at Thu Feb 16 16:22:33 2017


         ---------------------------------------------------------
                                   SCF
            by Justin Turney, Rob Parrish, and Andy Simmonett
                              RHF Reference
                        1 Threads,   1000 MiB Core
         ---------------------------------------------------------

  ==> Geometry <==

    Molecular point group: c1
    Full point group: C1

    Geometry (in Angstrom), charge = 0, multiplicity = 1:

       Center              X                  Y                   Z               Mass       
    ------------   -----------------  -----------------  -----------------  -----------------
           H         -1.663204780046     0.303690560365     0.592335850585     1.007825032070
           H         -1.522204780046     1.931690560365    -0.027664149415     1.007825032070
           H         -1.224204780046     0.567690560365    -1.077664149415     1.007825032070
           C         -1.125204780046     0.938690560365    -0.079664149415    12.000000000000
           H          0.901795219954     1.594690560365    -0.357664149415     1.007825032070
           H          0.463795219954     1.331690560365     1.313335850585     1.007825032070
           C          0.363795219954     0.959690560365     0.315335850585    12.000000000000
           H          1.841795219954    -0.459309439635    -0.327664149415     1.007825032070
           H          1.138795219954    -0.823309439635     1.228335850585     1.007825032070
           C          0.935795219954    -0.468309439635     0.240335850585    12.000000000000
           H          0.310795219954    -2.388309439635    -0.490664149415     1.007825032070
           H         -0.291204780046    -1.042309439635    -1.426664149415     1.007825032070
           H         -0.994204780046    -1.406309439635     0.129335850585     1.007825032070
           C         -0.087204780046    -1.397309439635    -0.438664149415    12.000000000000

  Running in c1 symmetry.

  Rotational constants: A =      0.37833  B =      0.21012  C =      0.15021 [cm^-1]
  Rotational constants: A =  11341.96486  B =   6299.21102  C =   4503.17018 [MHz]
  Nuclear repulsion =  136.518515952497324

  Charge       = 0
  Multiplicity = 1
  Electrons    = 34
  Nalpha       = 17
  Nbeta        = 17

  ==> Algorithm <==

  SCF Algorithm Type is DF.
  DIIS enabled.
  MOM disabled.
  Fractional occupation disabled.
  Guess Type is SAD.
  Energy threshold   = 1.00e-10
  Density threshold  = 1.00e-10
  Integral threshold = 0.00e+00

  ==> Primary Basis <==

  Basis Set: 6-31G(D)
    Number of shells: 44
    Number of basis function: 80
    Number of Cartesian functions: 80
    Spherical Harmonics?: false
    Max angular momentum: 2

  ==> Pre-Iterations <==

   -------------------------------------------------------
    Irrep   Nso     Nmo     Nalpha   Nbeta   Ndocc  Nsocc
   -------------------------------------------------------
     A         80      80       0       0       0       0
   -------------------------------------------------------
    Total      80      80      17      17      17       0
   -------------------------------------------------------

  ==> Integral Setup <==

  ==> DFJK: Density-Fitted J/K Matrices <==

    J tasked:                  Yes
    K tasked:                  Yes
    wK tasked:                  No
    OpenMP threads:              1
    Integrals threads:           1
    Memory (MB):               715
    Algorithm:                Core
    Integral Cache:           NONE
    Schwarz Cutoff:          1E-12
    Fitting Condition:       1E-12

   => Auxiliary Basis Set <=

  Basis Set: 
    Number of shells: 186
    Number of basis function: 574
    Number of Cartesian functions: 574
    Spherical Harmonics?: false
    Max angular momentum: 3

  Minimum eigenvalue in the overlap matrix is 3.4006434632E-03.
  Using Symmetric Orthogonalization.
  SCF Guess: Superposition of Atomic Densities via on-the-fly atomic UHF.

  ==> Iterations <==

                           Total Energy        Delta E     RMS |[F,P]|

   @DF-RHF iter   0:  -158.93571455385020   -1.58936e+02   4.68666e-02 
   @DF-RHF iter   1:  -157.16883473229851    1.76688e+00   4.41809e-03 
   @DF-RHF iter   2:  -157.26194470034702   -9.31100e-02   1.37278e-03 DIIS
   @DF-RHF iter   3:  -157.27156787103340   -9.62317e-03   5.48106e-04 DIIS
   @DF-RHF iter   4:  -157.27300231197185   -1.43444e-03   8.62625e-05 DIIS
   @DF-RHF iter   5:  -157.27305710651044   -5.47945e-05   1.80699e-05 DIIS
   @DF-RHF iter   6:  -157.27305948493128   -2.37842e-06   4.54064e-06 DIIS
   @DF-RHF iter   7:  -157.27305959590970   -1.10978e-07   1.19023e-06 DIIS
   @DF-RHF iter   8:  -157.27305960568330   -9.77360e-09   2.78322e-07 DIIS
   @DF-RHF iter   9:  -157.27305960633058   -6.47276e-10   7.53443e-08 DIIS
   @DF-RHF iter  10:  -157.27305960637509   -4.45084e-11   2.11477e-08 DIIS
   @DF-RHF iter  11:  -157.27305960637736   -2.27374e-12   4.87714e-09 DIIS
   @DF-RHF iter  12:  -157.27305960637759   -2.27374e-13   1.09091e-09 DIIS
   @DF-RHF iter  13:  -157.27305960637759    0.00000e+00   1.81895e-10 DIIS
   @DF-RHF iter  14:  -157.27305960637804   -4.54747e-13   4.09435e-11 DIIS

  ==> Post-Iterations <==

    Orbital Energies (a.u.)
    -----------------------

    Doubly Occupied:                                                      

       1A    -11.206567     2A    -11.205960     3A    -11.197793  
       4A    -11.197615     5A     -1.077930     6A     -0.966057  
       7A     -0.889860     8A     -0.769743     9A     -0.651123  
      10A     -0.627411    11A     -0.563308    12A     -0.540453  
      13A     -0.534553    14A     -0.511301    15A     -0.456042  
      16A     -0.453522    17A     -0.451194  

    Virtual:                                                              

      18A      0.229871    19A      0.273912    20A      0.280593  
      21A      0.305691    22A      0.308533    23A      0.315641  
      24A      0.356932    25A      0.361419    26A      0.382246  
      27A      0.383475    28A      0.430715    29A      0.447165  
      30A      0.488089    31A      0.705736    32A      0.735225  
      33A      0.760351    34A      0.772632    35A      0.799778  
      36A      0.802966    37A      0.861218    38A      0.931894  
      39A      0.932739    40A      1.009530    41A      1.130450  
      42A      1.153844    43A      1.162113    44A      1.192623  
      45A      1.197788    46A      1.213351    47A      1.216032  
      48A      1.217285    49A      1.238751    50A      1.273532  
      51A      1.280842    52A      1.287337    53A      1.337480  
      54A      1.624978    55A      1.683832    56A      1.707633  
      57A      1.755476    58A      1.937131    59A      2.111338  
      60A      2.178995    61A      2.197437    62A      2.286886  
      63A      2.295407    64A      2.331740    65A      2.376217  
      66A      2.434975    67A      2.548241    68A      2.577651  
      69A      2.653762    70A      2.706655    71A      2.730723  
      72A      2.756428    73A      2.835256    74A      2.909255  
      75A      2.992361    76A      3.102894    77A      4.593527  
      78A      4.717714    79A      4.783097    80A      5.029943  

    Final Occupation by Irrep:
              A 
    DOCC [    17 ]

  Energy converged.

  @DF-RHF Final Energy:  -157.27305960637804

   => Energetics <=

    Nuclear Repulsion Energy =            136.5185159524973244
    One-Electron Energy =                -480.9822895458031553
    Two-Electron Energy =                 187.1907139869279604
    DFT Exchange-Correlation Energy =       0.0000000000000000
    Empirical Dispersion Energy =           0.0000000000000000
    PCM Polarization Energy =               0.0000000000000000
    EFP Energy =                            0.0000000000000000
    Total Energy =                       -157.2730596063778989


  Saving occupied orbitals to File 180.

*** tstop() called on lski1497 at Thu Feb 16 16:22:40 2017
Module time:
	user time   =       5.53 seconds =       0.09 minutes
	system time =       0.19 seconds =       0.00 minutes
	total time  =          7 seconds =       0.12 minutes
Total time:
	user time   =       5.53 seconds =       0.09 minutes
	system time =       0.19 seconds =       0.00 minutes
	total time  =          7 seconds =       0.12 minutes


Properties will be evaluated at   0.000000,   0.000000,   0.000000 Bohr

Properties computed using the SCF density matrix

  Nuclear Dipole Moment: (a.u.)
     X:    -0.9731      Y:    -0.3657      Z:    -0.4168

  Electronic Dipole Moment: (a.u.)
     X:     1.0042      Y:     0.3765      Z:     0.4298

  Dipole Moment: (a.u.)
     X:     0.0310      Y:     0.0108      Z:     0.0129     Total:     0.0353

  Dipole Moment: (Debye)
     X:     0.0789      Y:     0.0275      Z:     0.0329     Total:     0.0898


  //>>>>>>>>>>>>>>>>>>>>>>>>>>>>>>>>>>>//
  //               DFMP2               //
  //<<<<<<<<<<<<<<<<<<<<<<<<<<<<<<<<<<<//


*** tstart() called on lski1497
*** at Thu Feb 16 16:22:40 2017


*** tstop() called on lski1497 at Thu Feb 16 16:22:40 2017
Module time:
	user time   =       0.47 seconds =       0.01 minutes
	system time =       0.01 seconds =       0.00 minutes
	total time  =          0 seconds =       0.00 minutes
Total time:
	user time   =       6.02 seconds =       0.10 minutes
	system time =       0.20 seconds =       0.00 minutes
	total time  =          7 seconds =       0.12 minutes
	 --------------------------------------------------------
	                          DF-MP2                         
	      2nd-Order Density-Fitted Moller-Plesset Theory     
	              RMP2 Wavefunction,   1 Threads             
	                                                         
	        Rob Parrish, Justin Turney, Andy Simmonett,      
	           Ed Hohenstein, and C. David Sherrill          
	 --------------------------------------------------------

   => Auxiliary Basis Set <=

  Basis Set: 
    Number of shells: 132
    Number of basis function: 364
    Number of Cartesian functions: 414
    Spherical Harmonics?: true
    Max angular momentum: 3

	 --------------------------------------------------------
	                 NBF =    80, NAUX =   364
	 --------------------------------------------------------
	   CLASS    FOCC     OCC    AOCC    AVIR     VIR    FVIR
	   PAIRS       0      17      17      63      63       0
	 --------------------------------------------------------

DGAS Warning! /src/lib/libfock/apps.cc:80 is not currently checking restricted

         ------------------------------------------------------------
                                     CPHF                           
                                  Rob Parrish                       
         ------------------------------------------------------------

  ==> Geometry <==

    Molecular point group: c1
    Full point group: C1

    Geometry (in Angstrom), charge = 0, multiplicity = 1:

       Center              X                  Y                   Z               Mass       
    ------------   -----------------  -----------------  -----------------  -----------------
           H         -1.663204780046     0.303690560365     0.592335850585     1.007825032070
           H         -1.522204780046     1.931690560365    -0.027664149415     1.007825032070
           H         -1.224204780046     0.567690560365    -1.077664149415     1.007825032070
           C         -1.125204780046     0.938690560365    -0.079664149415    12.000000000000
           H          0.901795219954     1.594690560365    -0.357664149415     1.007825032070
           H          0.463795219954     1.331690560365     1.313335850585     1.007825032070
           C          0.363795219954     0.959690560365     0.315335850585    12.000000000000
           H          1.841795219954    -0.459309439635    -0.327664149415     1.007825032070
           H          1.138795219954    -0.823309439635     1.228335850585     1.007825032070
           C          0.935795219954    -0.468309439635     0.240335850585    12.000000000000
           H          0.310795219954    -2.388309439635    -0.490664149415     1.007825032070
           H         -0.291204780046    -1.042309439635    -1.426664149415     1.007825032070
           H         -0.994204780046    -1.406309439635     0.129335850585     1.007825032070
           C         -0.087204780046    -1.397309439635    -0.438664149415    12.000000000000

  Nuclear repulsion =  136.518515952497324
  Reference energy  = -157.273059606378041

  ==> Basis Set <==

  Basis Set: 6-31G(D)
    Number of shells: 44
    Number of basis function: 80
    Number of Cartesian functions: 80
    Spherical Harmonics?: false
    Max angular momentum: 2

  ==> CGRSolver (by Rob Parrish) <==

   Number of roots    =         1
   Preconditioning    =    JACOBI
   Convergence cutoff =     1E-06
   Maximum iterations =       100

  ==> CPHFRHamiltonian (by Rob Parrish) <== 

  ==> DFJK: Density-Fitted J/K Matrices <==

    J tasked:                  Yes
    K tasked:                  Yes
    wK tasked:                  No
    OpenMP threads:              1
    Integrals threads:           1
    Memory (MB):               715
    Algorithm:                Core
    Integral Cache:           NONE
    Schwarz Cutoff:          1E-12
    Fitting Condition:       1E-12

   => Auxiliary Basis Set <=

  Basis Set: 
    Number of shells: 186
    Number of basis function: 574
    Number of Cartesian functions: 574
    Spherical Harmonics?: false
    Max angular momentum: 3

  ==> CPHF Iterations <==

  => Iterations <=

             Iter  Converged  Remaining    Residual
  CGR           1          0          1   7.620E-02
  CGR           2          0          1   8.697E-03
  CGR           3          0          1   2.112E-03
  CGR           4          0          1   4.196E-04
  CGR           5          0          1   7.832E-05
  CGR           6          0          1   1.383E-05
  CGR           7          0          1   1.866E-06
  CGR           8          1          0   4.919E-07

    CGRSolver converged.

  ==> DFCorrGrad: Density-Fitted Correlated Gradients <==

    OpenMP threads:              1
    Integrals threads:           1
    Memory (MB):               715
    Schwarz Cutoff:          0E+00
    Fitting Condition:       1E-12

   => Auxiliary Basis Set <=

  Basis Set: 
    Number of shells: 186
    Number of basis function: 510
    Number of Cartesian functions: 574
    Spherical Harmonics?: true
    Max angular momentum: 3

	-----------------------------------------------------------
	 ==================> DF-MP2 Energies <==================== 
	-----------------------------------------------------------
	 Reference Energy          =    -157.2730596063780411 [Eh]
	 Singles Energy            =      -0.0000000000000000 [Eh]
	 Same-Spin Energy          =      -0.1253916325606134 [Eh]
	 Opposite-Spin Energy      =      -0.4216448993835422 [Eh]
	 Correlation Energy        =      -0.5470365319441556 [Eh]
	 Total Energy              =    -157.8200961383221852 [Eh]
	-----------------------------------------------------------
	 ================> DF-SCS-MP2 Energies <================== 
	-----------------------------------------------------------
	 SCS Same-Spin Scale       =       0.3333333333333333 [-]
	 SCS Opposite-Spin Scale   =       1.2000000000000000 [-]
	 SCS Same-Spin Energy      =      -0.0417972108535378 [Eh]
	 SCS Opposite-Spin Energy  =      -0.5059738792602506 [Eh]
	 SCS Correlation Energy    =      -0.5477710901137884 [Eh]
	 SCS Total Energy          =    -157.8208306964918393 [Eh]
	-----------------------------------------------------------


  -Total Gradient:
     Atom            X                  Y                   Z
    ------   -----------------  -----------------  -----------------
       1        0.012380469508     0.003015386574    -0.008296851372
       2        0.008910085789    -0.014596567159    -0.000318254539
       3        0.007460447421    -0.000997494139     0.011154372361
       4       -0.022003030768    -0.018895761541    -0.010549969433
       5       -0.007478838265    -0.013196578899     0.007919893198
       6       -0.002964518195    -0.010745800660    -0.013713518013
       7        0.018938004046     0.020936153774     0.008659386332
       8       -0.016760766605     0.003357300947     0.005581251565
       9       -0.006305495542     0.008253361042    -0.014531354141
      10        0.027194249442    -0.004029413989     0.011473425963
      11       -0.004359747296     0.017518158854     0.002459944922
      12        0.002548785662     0.002593982537     0.014936987754
      13        0.009782745084     0.007845939741    -0.003302283915
      14       -0.027342390281    -0.001058667083    -0.011473030681


			-----------------------------------------
			 OPTKING 2.0: for geometry optimizations 
			  - R.A. King,  Bethel University        
			-----------------------------------------

	Previous internal coordinate definitions found.
	---Fragment 1 Geometry and Gradient---
	 H          -3.1430015372        0.5738919882        1.1193525363
	 H          -2.8765501525        3.6503661326       -0.0522776661
	 H          -2.3134117649        1.0727796873       -2.0364901056
	 C          -2.1263288777        1.7738680826       -0.1505434250
	 H           1.7041459937        3.0135284258       -0.6758872899
	 H           0.8764459475        2.5165304528        2.4818450781
	 C           0.6874733342        1.8135523314        0.5958983975
	 H           3.4804885586       -0.8679690512       -0.6191955060
	 H           2.1520110872       -1.5558293635        2.3212183568
	 C           1.7683966822       -0.8849765864        0.4541689375
	 H           0.5873178491       -4.5132507615       -0.9272208656
	 H          -0.5502972829       -1.9696793866       -2.6960045260
	 H          -1.8787747543       -2.6575396990        0.2444093368
	 C          -0.1647931518       -2.6405321638       -0.8289551067
	             0.0123804695        0.0030153866       -0.0082968514
	             0.0089100858       -0.0145965672       -0.0003182545
	             0.0074604474       -0.0009974941        0.0111543724
	            -0.0220030308       -0.0188957615       -0.0105499694
	            -0.0074788383       -0.0131965789        0.0079198932
	            -0.0029645182       -0.0107458007       -0.0137135180
	             0.0189380040        0.0209361538        0.0086593863
	            -0.0167607666        0.0033573009        0.0055812516
	            -0.0063054955        0.0082533610       -0.0145313541
	             0.0271942494       -0.0040294140        0.0114734260
	            -0.0043597473        0.0175181589        0.0024599449
	             0.0025487857        0.0025939825        0.0149369878
	             0.0097827451        0.0078459397       -0.0033022839
	            -0.0273423903       -0.0010586671       -0.0114730307

	Previous optimization step data not found.  Starting new optimization.

	---Fragment 1 Intrafragment Coordinates---
	 - Coordinate -           - BOHR/RAD -       - ANG/DEG -
	 R(1,4)           =         2.021436	       1.069698
	 R(2,4)           =         2.023298	       1.070683
	 R(3,4)           =         2.020723	       1.069320
	 R(4,7)           =         2.911397	       1.540645
	 R(5,7)           =         2.022623	       1.070326
	 R(6,7)           =         2.021555	       1.069761
	 R(7,10)          =         2.910419	       1.540128
	 R(8,10)          =         2.020807	       1.069365
	 R(9,10)          =         2.020663	       1.069289
	 R(10,14)         =         2.909571	       1.539679
	 R(11,14)         =         2.020495	       1.069200
	 R(12,14)         =         2.021022	       1.069479
	 R(13,14)         =         2.022408	       1.070212
	 B(1,4,2)         =         1.910870	     109.484805
	 B(1,4,3)         =         1.911121	     109.499161
	 B(1,4,7)         =         1.910399	     109.457783
	 B(2,4,3)         =         1.910042	     109.437340
	 B(2,4,7)         =         1.910564	     109.467262
	 B(3,4,7)         =         1.910803	     109.480971
	 B(4,7,5)         =         1.909937	     109.431343
	 B(4,7,6)         =         1.911630	     109.528316
	 B(4,7,10)        =         1.911154	     109.501062
	 B(5,7,6)         =         1.910605	     109.469614
	 B(5,7,10)        =         1.910047	     109.437654
	 B(6,7,10)        =         1.910425	     109.459295
	 B(7,10,8)        =         1.909985	     109.434102
	 B(7,10,9)        =         1.910639	     109.471555
	 B(7,10,14)       =         1.911504	     109.521127
	 B(8,10,9)        =         1.909991	     109.434438
	 B(8,10,14)       =         1.911085	     109.497093
	 B(9,10,14)       =         1.910594	     109.468969
	 B(10,14,11)      =         1.910666	     109.473117
	 B(10,14,12)      =         1.911190	     109.503123
	 B(10,14,13)      =         1.911463	     109.518767
	 B(11,14,12)      =         1.911059	     109.495599
	 B(11,14,13)      =         1.910799	     109.480745
	 B(12,14,13)      =         1.908621	     109.355934
	 D(1,4,7,5)       =         3.140997	     179.965873
	 D(1,4,7,6)       =        -1.047644	     -60.025575
	 D(1,4,7,10)      =         1.047427	      60.013132
	 D(2,4,7,5)       =        -1.047689	     -60.028143
	 D(2,4,7,6)       =         1.046856	      59.980409
	 D(2,4,7,10)      =        -3.141259	    -179.980883
	 D(3,4,7,5)       =         1.046044	      59.933911
	 D(3,4,7,6)       =         3.140588	     179.942463
	 D(3,4,7,10)      =        -1.047526	     -60.018830
	 D(4,7,10,8)      =         2.269371	     130.025401
	 D(4,7,10,9)      =        -1.920598	    -110.042135
	 D(4,7,10,14)     =         0.174287	       9.985896
	 D(5,7,10,8)      =         0.175869	      10.076526
	 D(5,7,10,9)      =         2.269085	     130.008989
	 D(5,7,10,14)     =        -1.919216	    -109.962980
	 D(6,7,10,8)      =        -1.918006	    -109.893673
	 D(6,7,10,9)      =         0.175210	      10.038791
	 D(6,7,10,14)     =         2.270094	     130.066822
	 D(7,10,14,11)    =         3.141218	     179.978536
	 D(7,10,14,12)    =         1.045940	      59.927955
	 D(7,10,14,13)    =        -1.046840	     -59.979490
	 D(8,10,14,11)    =         1.046806	      59.977561
	 D(8,10,14,12)    =        -1.048472	     -60.073021
	 D(8,10,14,13)    =        -3.141252	    -179.980465
	 D(9,10,14,11)    =        -1.047055	     -59.991852
	 D(9,10,14,12)    =         3.140852	     179.957567
	 D(9,10,14,13)    =         1.048072	      60.050123

	Current energy   :      -157.8200961383

	Generating empirical Hessian (Schlegel '84) for each fragment.
	Adding user-defined constraint: Fragment 1; Coordinate 49:
		Value =     0.174287; Fixed value    =     0.174530
		Force =     0.000122; Force constant =     0.500000
	Removing off-diagonal coupling between coordinate 49 and others.
	Taking RFO optimization step.
	Going to follow RFO solution 1.
	Using RFO vector 1.

	Determining step-restricting scale parameter for RS-RFO.
	Maximum step size allowed    0.10000

	 Iter      |step|        alpha        rfo_root  
	------------------------------------------------
	    0     0.51816       1.00000           1
	    1     0.33825       4.22343           1
	    2     0.22322      12.96567           1
	    3     0.15554      30.94485           1
	    4     0.11928      56.59674           1
	    5     0.10379      77.03853           1
	    6     0.10020      83.22655           1
	    7     0.10000      83.59336           1
	------------------------------------------------
	Norm of target step-size    0.10000
	Projected energy change by RFO approximation:        -0.0136702386

	Back-transformation to cartesian coordinates...
	Could not converge backtransformation.
	Using first guess instead.

	--- Internal Coordinate Step in ANG or DEG, aJ/ANG or AJ/DEG ---
	 ---------------------------------------------------------------------------
	   Coordinate                Previous        Force       Change         New 
	   ----------                --------       ------       ------       ------
	    1 R(1,4)          =      1.069698     0.108989     0.005117     1.074815
	    2 R(2,4)          =      1.070683     0.138878     0.007293     1.077976
	    3 R(3,4)          =      1.069320     0.088608     0.004589     1.073910
	    4 R(4,7)          =      1.540645     0.033275     0.003571     1.544216
	    5 R(5,7)          =      1.070326     0.136502     0.005793     1.076119
	    6 R(6,7)          =      1.069761     0.138472     0.005975     1.075735
	    7 R(7,10)         =      1.540128     0.312099     0.013905     1.554032
	    8 R(8,10)         =      1.069365     0.141183     0.006087     1.075451
	    9 R(9,10)         =      1.069289     0.143056     0.006064     1.075352
	   10 R(10,14)        =      1.539679     0.037208     0.003746     1.543425
	   11 R(11,14)        =      1.069200     0.148127     0.007670     1.076870
	   12 R(12,14)        =      1.069479     0.110598     0.005185     1.074664
	   13 R(13,14)        =      1.070212     0.083289     0.004370     1.074582
	   14 B(1,4,2)        =    109.484805    -0.000436    -0.229553   109.255252
	   15 B(1,4,3)        =    109.499161    -0.000305    -0.266344   109.232817
	   16 B(1,4,7)        =    109.457783     0.000522     0.308748   109.766531
	   17 B(2,4,3)        =    109.437340    -0.000454    -0.236118   109.201222
	   18 B(2,4,7)        =    109.467262    -0.000002     0.006955   109.474217
	   19 B(3,4,7)        =    109.480971     0.000676     0.412850   109.893821
	   20 B(4,7,5)        =    109.431343    -0.001520    -0.834749   108.596594
	   21 B(4,7,6)        =    109.528316    -0.001725    -0.924303   108.604013
	   22 B(4,7,10)       =    109.501062     0.005469     3.001479   112.502542
	   23 B(5,7,6)        =    109.469614     0.000680     0.298238   109.767852
	   24 B(5,7,10)       =    109.437654    -0.001469    -0.781807   108.655848
	   25 B(6,7,10)       =    109.459295    -0.001436    -0.767457   108.691837
	   26 B(7,10,8)       =    109.434102    -0.001434    -0.766148   108.667954
	   27 B(7,10,9)       =    109.471555    -0.001475    -0.784942   108.686613
	   28 B(7,10,14)      =    109.521127     0.005468     3.000271   112.521398
	   29 B(8,10,9)       =    109.434438     0.000682     0.299367   109.733805
	   30 B(8,10,14)      =    109.497093    -0.001720    -0.921482   108.575610
	   31 B(9,10,14)      =    109.468969    -0.001524    -0.837255   108.631714
	   32 B(10,14,11)     =    109.473117     0.000003     0.010536   109.483653
	   33 B(10,14,12)     =    109.503123     0.000512     0.303008   109.806131
	   34 B(10,14,13)     =    109.518767     0.000670     0.410278   109.929045
	   35 B(11,14,12)     =    109.495599    -0.000435    -0.229481   109.266118
	   36 B(11,14,13)     =    109.480745    -0.000459    -0.239984   109.240762
	   37 B(12,14,13)     =    109.355934    -0.000291    -0.258173   109.097761
	   38 D(1,4,7,5)      =    179.965873     0.000180     0.416570   180.382443
	   39 D(1,4,7,6)      =    -60.025575    -0.000085    -0.266039   -60.291614
	   40 D(1,4,7,10)     =     60.013132     0.000039     0.057352    60.070484
	   41 D(2,4,7,5)      =    -60.028143     0.000130     0.328806   -59.699337
	   42 D(2,4,7,6)      =     59.980409    -0.000135    -0.353803    59.626606
	   43 D(2,4,7,10)     =   -179.980883    -0.000011    -0.030413  -180.011296
	   44 D(3,4,7,5)      =     59.933911     0.000097     0.296959    60.230869
	   45 D(3,4,7,6)      =    179.942463    -0.000168    -0.385651   179.556812
	   46 D(3,4,7,10)     =    -60.018830    -0.000044    -0.062260   -60.081090
	   47 D(4,7,10,8)     =    130.025401     0.000142     0.349359   130.374761
	   48 D(4,7,10,9)     =   -110.042135    -0.000074    -0.209330  -110.251465
	   49 D(4,7,10,14)    =      9.985896     0.000059     0.117269    10.103166
	   50 D(5,7,10,8)     =     10.076526     0.000008     0.020460    10.096986
	   51 D(5,7,10,9)     =    130.008989    -0.000208    -0.538229   129.470760
	   52 D(5,7,10,14)    =   -109.962980    -0.000075    -0.211630  -110.174610
	   53 D(6,7,10,8)     =   -109.893673     0.000224     0.579887  -109.313786
	   54 D(6,7,10,9)     =     10.038791     0.000008     0.021198    10.059989
	   55 D(6,7,10,14)    =    130.066822     0.000141     0.347798   130.414619
	   56 D(7,10,14,11)   =    179.978536    -0.000010    -0.028547   179.949989
	   57 D(7,10,14,12)   =     59.927955     0.000040     0.060261    59.988216
	   58 D(7,10,14,13)   =    -59.979490    -0.000044    -0.064086   -60.043576
	   59 D(8,10,14,11)   =     59.977561    -0.000134    -0.352420    59.625141
	   60 D(8,10,14,12)   =    -60.073021    -0.000084    -0.263611   -60.336632
	   61 D(8,10,14,13)   =   -179.980465    -0.000168    -0.387959  -180.368424
	   62 D(9,10,14,11)   =    -59.991852     0.000130     0.328107   -59.663745
	   63 D(9,10,14,12)   =    179.957567     0.000180     0.416915   180.374482
	   64 D(9,10,14,13)   =     60.050123     0.000096     0.292567    60.342690
	 ---------------------------------------------------------------------------
	 Forces used to impose fixed constraints are not included.
	  Forces zeroed: 49 

  ==> Convergence Check <==

  Measures of convergence in internal coordinates in au.
  Criteria marked as inactive (o), active & met (*), and active & unmet ( ).
  --------------------------------------------------------------------------------------------- ~
   Step     Total Energy     Delta E     MAX Force     RMS Force      MAX Disp      RMS Disp    ~
  --------------------------------------------------------------------------------------------- ~
    Convergence Criteria    1.00e-06 *    3.00e-04 *             o    1.20e-03 *             o  ~
  --------------------------------------------------------------------------------------------- ~
      1    -157.82009614   -1.58e+02      7.19e-02      1.73e-02 o    5.24e-02      1.27e-02 o  ~
  ---------------------------------------------------------------------------------------------

	Writing optimization data to binary file.
	Structure for next step:
	Cartesian Geometry (in Angstrom)
	    H    -1.7203426082   0.3969226617   0.6005071352
	    H    -1.5018839010   2.0339616184   0.0056844348
	    H    -1.2862211322   0.6690543192  -1.0747336308
	    C    -1.1513317125   1.0172308141  -0.0678273655
	    H     0.8945747439   1.5912405230  -0.3632857174
	    H     0.4565030627   1.3194235294   1.3197128096
	    C     0.3442893548   0.9595958299   0.3121718319
	    H     1.8352844155  -0.4521637331  -0.3400407289
	    H     1.1295763774  -0.8259886927   1.2271821133
	    C     0.9237758991  -0.4800092690   0.2300228279
	    H     0.4008936474  -2.4491479204  -0.4768174046
	    H    -0.2618926243  -1.1460303906  -1.4467914431
	    H    -0.9659093675  -1.5205190200   0.1118661101
	    C    -0.0481830758  -1.4709024246  -0.4449490644
			--------------------------
			 OPTKING Finished Execution 
			--------------------------

    Structure for next step:
    Molecular point group: c1
    Full point group: C1

    Geometry (in Angstrom), charge = 0, multiplicity = 1:

    H           -1.716816524465     0.398218613661     0.602007092305
    H           -1.498357817336     2.035257570331     0.007184391891
    H           -1.282695048518     0.670350271186    -1.073233673696
    C           -1.147805628760     1.018526766024    -0.066327408455
    H            0.898100827657     1.592536474920    -0.361785760338
    H            0.460029146377     1.320719481306     1.321212766693
    C            0.347815438550     0.960891781860     0.313671788942
    H            1.838810499209    -0.450867781141    -0.338540771883
    H            1.133102461088    -0.824692740790     1.228682070381
    C            0.927301982820    -0.478713317090     0.231522784996
    H            0.404419731128    -2.447851968450    -0.475317447560
    H           -0.258366540543    -1.144734438695    -1.445291486062
    H           -0.962383283737    -1.519223068005     0.113366067185
    C           -0.044656992135    -1.469606472635    -0.443449107300

gradient() will perform analytic gradient computation.
    SCF Algorithm Type (re)set to DF.

*** tstart() called on lski1497
*** at Thu Feb 16 16:23:02 2017


         ---------------------------------------------------------
                                   SCF
            by Justin Turney, Rob Parrish, and Andy Simmonett
                              RHF Reference
                        1 Threads,   1000 MiB Core
         ---------------------------------------------------------

  ==> Geometry <==

    Molecular point group: c1
    Full point group: C1

    Geometry (in Angstrom), charge = 0, multiplicity = 1:

       Center              X                  Y                   Z               Mass       
    ------------   -----------------  -----------------  -----------------  -----------------
           H         -1.716816524465     0.398218613661     0.602007092305     1.007825032070
           H         -1.498357817336     2.035257570331     0.007184391891     1.007825032070
           H         -1.282695048518     0.670350271186    -1.073233673696     1.007825032070
           C         -1.147805628760     1.018526766024    -0.066327408455    12.000000000000
           H          0.898100827657     1.592536474920    -0.361785760338     1.007825032070
           H          0.460029146377     1.320719481306     1.321212766693     1.007825032070
           C          0.347815438550     0.960891781860     0.313671788942    12.000000000000
           H          1.838810499209    -0.450867781141    -0.338540771883     1.007825032070
           H          1.133102461088    -0.824692740790     1.228682070381     1.007825032070
           C          0.927301982820    -0.478713317090     0.231522784996    12.000000000000
           H          0.404419731128    -2.447851968450    -0.475317447560     1.007825032070
           H         -0.258366540543    -1.144734438695    -1.445291486062     1.007825032070
           H         -0.962383283737    -1.519223068005     0.113366067185     1.007825032070
           C         -0.044656992135    -1.469606472635    -0.443449107300    12.000000000000

  Running in c1 symmetry.

  Rotational constants: A =      0.38633  B =      0.19245  C =      0.14218 [cm^-1]
  Rotational constants: A =  11582.01867  B =   5769.51587  C =   4262.41762 [MHz]
  Nuclear repulsion =  134.502274500501045

  Charge       = 0
  Multiplicity = 1
  Electrons    = 34
  Nalpha       = 17
  Nbeta        = 17

  ==> Algorithm <==

  SCF Algorithm Type is DF.
  DIIS enabled.
  MOM disabled.
  Fractional occupation disabled.
  Guess Type is READ.
  Energy threshold   = 1.00e-10
  Density threshold  = 1.00e-10
  Integral threshold = 0.00e+00

  ==> Primary Basis <==

  Basis Set: 6-31G(D)
    Number of shells: 44
    Number of basis function: 80
    Number of Cartesian functions: 80
    Spherical Harmonics?: false
    Max angular momentum: 2

  ==> Pre-Iterations <==

   -------------------------------------------------------
    Irrep   Nso     Nmo     Nalpha   Nbeta   Ndocc  Nsocc
   -------------------------------------------------------
     A         80      80       0       0       0       0
   -------------------------------------------------------
    Total      80      80      17      17      17       0
   -------------------------------------------------------

  ==> Integral Setup <==

  ==> DFJK: Density-Fitted J/K Matrices <==

    J tasked:                  Yes
    K tasked:                  Yes
    wK tasked:                  No
    OpenMP threads:              1
    Integrals threads:           1
    Memory (MB):               715
    Algorithm:                Core
    Integral Cache:           NONE
    Schwarz Cutoff:          1E-12
    Fitting Condition:       1E-12

   => Auxiliary Basis Set <=

  Basis Set: 
    Number of shells: 186
    Number of basis function: 574
    Number of Cartesian functions: 574
    Spherical Harmonics?: false
    Max angular momentum: 3

  Minimum eigenvalue in the overlap matrix is 3.7730171257E-03.
  Using Symmetric Orthogonalization.
  SCF Guess was Projection but file not found.
  Switching over to SAD guess.

  SCF Guess: Superposition of Atomic Densities via on-the-fly atomic UHF.

  ==> Iterations <==

                           Total Energy        Delta E     RMS |[F,P]|

   @DF-RHF iter   0:  -158.80493856322116   -1.58805e+02   4.59327e-02 
   @DF-RHF iter   1:  -157.17882656808982    1.62611e+00   4.41555e-03 
   @DF-RHF iter   2:  -157.27207175646336   -9.32452e-02   1.40255e-03 DIIS
   @DF-RHF iter   3:  -157.28186545560808   -9.79370e-03   5.59169e-04 DIIS
   @DF-RHF iter   4:  -157.28338521558229   -1.51976e-03   8.41833e-05 DIIS
   @DF-RHF iter   5:  -157.28343791627802   -5.27007e-05   1.69203e-05 DIIS
   @DF-RHF iter   6:  -157.28344000723357   -2.09096e-06   4.12968e-06 DIIS
   @DF-RHF iter   7:  -157.28344009421065   -8.69771e-08   1.06782e-06 DIIS
   @DF-RHF iter   8:  -157.28344010177838   -7.56773e-09   2.42931e-07 DIIS
   @DF-RHF iter   9:  -157.28344010225860   -4.80213e-10   6.78295e-08 DIIS
   @DF-RHF iter  10:  -157.28344010229475   -3.61524e-11   1.91855e-08 DIIS
   @DF-RHF iter  11:  -157.28344010229679   -2.04636e-12   4.38148e-09 DIIS
   @DF-RHF iter  12:  -157.28344010229736   -5.68434e-13   9.66850e-10 DIIS
   @DF-RHF iter  13:  -157.28344010229713    2.27374e-13   1.86028e-10 DIIS
   @DF-RHF iter  14:  -157.28344010229702    1.13687e-13   6.41822e-11 DIIS

  ==> Post-Iterations <==

    Orbital Energies (a.u.)
    -----------------------

    Doubly Occupied:                                                      

       1A    -11.210070     2A    -11.209512     3A    -11.202113  
       4A    -11.201980     5A     -1.068893     6A     -0.969886  
       7A     -0.883202     8A     -0.769619     9A     -0.645205  
      10A     -0.618308    11A     -0.567441    12A     -0.533573  
      13A     -0.527278    14A     -0.520707    15A     -0.455734  
      16A     -0.453281    17A     -0.452372  

    Virtual:                                                              

      18A      0.226551    19A      0.276040    20A      0.281544  
      21A      0.301257    22A      0.305875    23A      0.314011  
      24A      0.352579    25A      0.361755    26A      0.370792  
      27A      0.379157    28A      0.426857    29A      0.431529  
      30A      0.487080    31A      0.707414    32A      0.733011  
      33A      0.743603    34A      0.780311    35A      0.794096  
      36A      0.805119    37A      0.858928    38A      0.919036  
      39A      0.935320    40A      1.008387    41A      1.121575  
      42A      1.145214    43A      1.158854    44A      1.171346  
      45A      1.185125    46A      1.199173    47A      1.206340  
      48A      1.215937    49A      1.221250    50A      1.266223  
      51A      1.269424    52A      1.282361    53A      1.324502  
      54A      1.613782    55A      1.677013    56A      1.711876  
      57A      1.715824    58A      1.933942    59A      2.088504  
      60A      2.146803    61A      2.174213    62A      2.269250  
      63A      2.286742    64A      2.324831    65A      2.367956  
      66A      2.428040    67A      2.545890    68A      2.579406  
      69A      2.649447    70A      2.692655    71A      2.712652  
      72A      2.742523    73A      2.813381    74A      2.899267  
      75A      2.985317    76A      3.089186    77A      4.564968  
      78A      4.718598    79A      4.770809    80A      5.013291  

    Final Occupation by Irrep:
              A 
    DOCC [    17 ]

  Energy converged.

  @DF-RHF Final Energy:  -157.28344010229702

   => Energetics <=

    Nuclear Repulsion Energy =            134.5022745005010449
    One-Electron Energy =                -476.9930817480613996
    Two-Electron Energy =                 185.2073671452631061
    DFT Exchange-Correlation Energy =       0.0000000000000000
    Empirical Dispersion Energy =           0.0000000000000000
    PCM Polarization Energy =               0.0000000000000000
    EFP Energy =                            0.0000000000000000
    Total Energy =                       -157.2834401022972770


  Saving occupied orbitals to File 180.

*** tstop() called on lski1497 at Thu Feb 16 16:23:09 2017
Module time:
	user time   =       5.74 seconds =       0.10 minutes
	system time =       0.16 seconds =       0.00 minutes
	total time  =          7 seconds =       0.12 minutes
Total time:
	user time   =      29.84 seconds =       0.50 minutes
	system time =       0.89 seconds =       0.01 minutes
	total time  =         36 seconds =       0.60 minutes


Properties will be evaluated at   0.000000,   0.000000,   0.000000 Bohr

Properties computed using the SCF density matrix

  Nuclear Dipole Moment: (a.u.)
     X:    -0.9226      Y:    -0.3471      Z:    -0.3953

  Electronic Dipole Moment: (a.u.)
     X:     0.9518      Y:     0.3575      Z:     0.4076

  Dipole Moment: (a.u.)
     X:     0.0292      Y:     0.0104      Z:     0.0122     Total:     0.0333

  Dipole Moment: (Debye)
     X:     0.0742      Y:     0.0264      Z:     0.0310     Total:     0.0846


  //>>>>>>>>>>>>>>>>>>>>>>>>>>>>>>>>>>>//
  //               DFMP2               //
  //<<<<<<<<<<<<<<<<<<<<<<<<<<<<<<<<<<<//


*** tstart() called on lski1497
*** at Thu Feb 16 16:23:09 2017


*** tstop() called on lski1497 at Thu Feb 16 16:23:09 2017
Module time:
	user time   =       0.53 seconds =       0.01 minutes
	system time =       0.01 seconds =       0.00 minutes
	total time  =          0 seconds =       0.00 minutes
Total time:
	user time   =      30.39 seconds =       0.51 minutes
	system time =       0.90 seconds =       0.02 minutes
	total time  =         36 seconds =       0.60 minutes
	 --------------------------------------------------------
	                          DF-MP2                         
	      2nd-Order Density-Fitted Moller-Plesset Theory     
	              RMP2 Wavefunction,   1 Threads             
	                                                         
	        Rob Parrish, Justin Turney, Andy Simmonett,      
	           Ed Hohenstein, and C. David Sherrill          
	 --------------------------------------------------------

   => Auxiliary Basis Set <=

  Basis Set: 
    Number of shells: 132
    Number of basis function: 364
    Number of Cartesian functions: 414
    Spherical Harmonics?: true
    Max angular momentum: 3

	 --------------------------------------------------------
	                 NBF =    80, NAUX =   364
	 --------------------------------------------------------
	   CLASS    FOCC     OCC    AOCC    AVIR     VIR    FVIR
	   PAIRS       0      17      17      63      63       0
	 --------------------------------------------------------

DGAS Warning! /src/lib/libfock/apps.cc:80 is not currently checking restricted

         ------------------------------------------------------------
                                     CPHF                           
                                  Rob Parrish                       
         ------------------------------------------------------------

  ==> Geometry <==

    Molecular point group: c1
    Full point group: C1

    Geometry (in Angstrom), charge = 0, multiplicity = 1:

       Center              X                  Y                   Z               Mass       
    ------------   -----------------  -----------------  -----------------  -----------------
           H         -1.716816524465     0.398218613661     0.602007092305     1.007825032070
           H         -1.498357817336     2.035257570331     0.007184391891     1.007825032070
           H         -1.282695048518     0.670350271186    -1.073233673696     1.007825032070
           C         -1.147805628760     1.018526766024    -0.066327408455    12.000000000000
           H          0.898100827657     1.592536474920    -0.361785760338     1.007825032070
           H          0.460029146377     1.320719481306     1.321212766693     1.007825032070
           C          0.347815438550     0.960891781860     0.313671788942    12.000000000000
           H          1.838810499209    -0.450867781141    -0.338540771883     1.007825032070
           H          1.133102461088    -0.824692740790     1.228682070381     1.007825032070
           C          0.927301982820    -0.478713317090     0.231522784996    12.000000000000
           H          0.404419731128    -2.447851968450    -0.475317447560     1.007825032070
           H         -0.258366540543    -1.144734438695    -1.445291486062     1.007825032070
           H         -0.962383283737    -1.519223068005     0.113366067185     1.007825032070
           C         -0.044656992135    -1.469606472635    -0.443449107300    12.000000000000

  Nuclear repulsion =  134.502274500501045
  Reference energy  = -157.283440102297021

  ==> Basis Set <==

  Basis Set: 6-31G(D)
    Number of shells: 44
    Number of basis function: 80
    Number of Cartesian functions: 80
    Spherical Harmonics?: false
    Max angular momentum: 2

  ==> CGRSolver (by Rob Parrish) <==

   Number of roots    =         1
   Preconditioning    =    JACOBI
   Convergence cutoff =     1E-06
   Maximum iterations =       100

  ==> CPHFRHamiltonian (by Rob Parrish) <== 

  ==> DFJK: Density-Fitted J/K Matrices <==

    J tasked:                  Yes
    K tasked:                  Yes
    wK tasked:                  No
    OpenMP threads:              1
    Integrals threads:           1
    Memory (MB):               715
    Algorithm:                Core
    Integral Cache:           NONE
    Schwarz Cutoff:          1E-12
    Fitting Condition:       1E-12

   => Auxiliary Basis Set <=

  Basis Set: 
    Number of shells: 186
    Number of basis function: 574
    Number of Cartesian functions: 574
    Spherical Harmonics?: false
    Max angular momentum: 3

  ==> CPHF Iterations <==

  => Iterations <=

             Iter  Converged  Remaining    Residual
  CGR           1          0          1   7.477E-02
  CGR           2          0          1   8.577E-03
  CGR           3          0          1   2.142E-03
  CGR           4          0          1   4.245E-04
  CGR           5          0          1   7.481E-05
  CGR           6          0          1   1.331E-05
  CGR           7          0          1   1.675E-06
  CGR           8          1          0   4.203E-07

    CGRSolver converged.

  ==> DFCorrGrad: Density-Fitted Correlated Gradients <==

    OpenMP threads:              1
    Integrals threads:           1
    Memory (MB):               715
    Schwarz Cutoff:          0E+00
    Fitting Condition:       1E-12

   => Auxiliary Basis Set <=

  Basis Set: 
    Number of shells: 186
    Number of basis function: 510
    Number of Cartesian functions: 574
    Spherical Harmonics?: true
    Max angular momentum: 3

	-----------------------------------------------------------
	 ==================> DF-MP2 Energies <==================== 
	-----------------------------------------------------------
	 Reference Energy          =    -157.2834401022970212 [Eh]
	 Singles Energy            =      -0.0000000000000000 [Eh]
	 Same-Spin Energy          =      -0.1246186306577578 [Eh]
	 Opposite-Spin Energy      =      -0.4215588823863718 [Eh]
	 Correlation Energy        =      -0.5461775130441296 [Eh]
	 Total Energy              =    -157.8296176153411636 [Eh]
	-----------------------------------------------------------
	 ================> DF-SCS-MP2 Energies <================== 
	-----------------------------------------------------------
	 SCS Same-Spin Scale       =       0.3333333333333333 [-]
	 SCS Opposite-Spin Scale   =       1.2000000000000000 [-]
	 SCS Same-Spin Energy      =      -0.0415395435525859 [Eh]
	 SCS Opposite-Spin Energy  =      -0.5058706588636462 [Eh]
	 SCS Correlation Energy    =      -0.5474102024162322 [Eh]
	 SCS Total Energy          =    -157.8308503047132660 [Eh]
	-----------------------------------------------------------


  -Total Gradient:
     Atom            X                  Y                   Z
    ------   -----------------  -----------------  -----------------
       1        0.009782979417     0.003965713642    -0.006299335525
       2        0.005727901055    -0.009412906805    -0.000286522445
       3        0.005368826494     0.001227648611     0.010212935230
       4       -0.022664637435    -0.006908398462    -0.008583126751
       5       -0.006202544334    -0.010829851163     0.004263544034
       6       -0.003940159892    -0.009130976272    -0.009414843320
       7        0.016496453906     0.020381577442     0.008914299842
       8       -0.013484643996     0.002586213495     0.002179416200
       9       -0.006621726905     0.006157206940    -0.010272526216
      10        0.025739240723    -0.004795652540     0.009460819720
      11       -0.002927825721     0.011326851231     0.001616142208
      12        0.003050473368     0.000872379060     0.011997488777
      13        0.009530588474     0.004647294219    -0.003526391483
      14       -0.019854925153    -0.010087099398    -0.010261900272


			-----------------------------------------
			 OPTKING 2.0: for geometry optimizations 
			  - R.A. King,  Bethel University        
			-----------------------------------------

	Previous internal coordinate definitions found.
	---Fragment 1 Geometry and Gradient---
	 H          -3.2443130517        0.7525241208        1.1376285345
	 H          -2.8314859238        3.8460794178        0.0135765331
	 H          -2.4239423537        1.2667784256       -2.0281177199
	 C          -2.1690382921        1.9247366468       -0.1253406371
	 H           1.6971646040        3.0094577942       -0.6836760058
	 H           0.8693290998        2.4957981180        2.4967302923
	 C           0.6572759236        1.8158223111        0.5927537767
	 H           3.4748482538       -0.8520166285       -0.6397493437
	 H           2.1412533320       -1.5584434239        2.3218726174
	 C           1.7523467900       -0.9046370655        0.4375146572
	 H           0.7642425346       -4.6257698342       -0.8982198021
	 H          -0.4882420035       -2.1632345840       -2.7312050908
	 H          -1.8186408411       -2.8709155333        0.2142308197
	 C          -0.0843894851       -2.7771537564       -0.8379973667
	             0.0097829794        0.0039657136       -0.0062993355
	             0.0057279011       -0.0094129068       -0.0002865224
	             0.0053688265        0.0012276486        0.0102129352
	            -0.0226646374       -0.0069083985       -0.0085831268
	            -0.0062025443       -0.0108298512        0.0042635440
	            -0.0039401599       -0.0091309763       -0.0094148433
	             0.0164964539        0.0203815774        0.0089142998
	            -0.0134846440        0.0025862135        0.0021794162
	            -0.0066217269        0.0061572069       -0.0102725262
	             0.0257392407       -0.0047956525        0.0094608197
	            -0.0029278257        0.0113268512        0.0016161422
	             0.0030504734        0.0008723791        0.0119974888
	             0.0095305885        0.0046472942       -0.0035263915
	            -0.0198549252       -0.0100870994       -0.0102619003

	---Fragment 1 Intrafragment Coordinates---
	 - Coordinate -           - BOHR/RAD -       - ANG/DEG -
	 R(1,4)           =         2.031105	       1.074815
	 R(2,4)           =         2.037079	       1.077976
	 R(3,4)           =         2.029395	       1.073910
	 R(4,7)           =         2.918146	       1.544216
	 R(5,7)           =         2.033570	       1.076119
	 R(6,7)           =         2.032845	       1.075735
	 R(7,10)          =         2.936695	       1.554032
	 R(8,10)          =         2.032309	       1.075451
	 R(9,10)          =         2.032121	       1.075352
	 R(10,14)         =         2.916650	       1.543425
	 R(11,14)         =         2.034990	       1.076870
	 R(12,14)         =         2.030820	       1.074664
	 R(13,14)         =         2.030666	       1.074582
	 B(1,4,2)         =         1.906864	     109.255252
	 B(1,4,3)         =         1.906472	     109.232817
	 B(1,4,7)         =         1.915787	     109.766531
	 B(2,4,3)         =         1.905921	     109.201222
	 B(2,4,7)         =         1.910686	     109.474217
	 B(3,4,7)         =         1.918009	     109.893821
	 B(4,7,5)         =         1.895368	     108.596594
	 B(4,7,6)         =         1.895498	     108.604013
	 B(4,7,10)        =         1.963540	     112.502542
	 B(5,7,6)         =         1.915810	     109.767852
	 B(5,7,10)        =         1.896402	     108.655848
	 B(6,7,10)        =         1.897030	     108.691837
	 B(7,10,8)        =         1.896614	     108.667954
	 B(7,10,9)        =         1.896939	     108.686613
	 B(7,10,14)       =         1.963869	     112.521398
	 B(8,10,9)        =         1.915216	     109.733805
	 B(8,10,14)       =         1.895002	     108.575610
	 B(9,10,14)       =         1.895981	     108.631714
	 B(10,14,11)      =         1.910850	     109.483653
	 B(10,14,12)      =         1.916479	     109.806131
	 B(10,14,13)      =         1.918624	     109.929045
	 B(11,14,12)      =         1.907054	     109.266118
	 B(11,14,13)      =         1.906611	     109.240762
	 B(12,14,13)      =         1.904115	     109.097761
	 D(1,4,7,5)       =        -3.134918	    -179.617557
	 D(1,4,7,6)       =        -1.052287	     -60.291614
	 D(1,4,7,10)      =         1.048428	      60.070484
	 D(2,4,7,5)       =        -1.041950	     -59.699337
	 D(2,4,7,6)       =         1.040681	      59.626606
	 D(2,4,7,10)      =         3.141396	     179.988704
	 D(3,4,7,5)       =         1.051227	      60.230869
	 D(3,4,7,6)       =         3.133858	     179.556812
	 D(3,4,7,10)      =        -1.048613	     -60.081090
	 D(4,7,10,8)      =         2.275469	     130.374761
	 D(4,7,10,9)      =        -1.924251	    -110.251465
	 D(4,7,10,14)     =         0.176334	      10.103166
	 D(5,7,10,8)      =         0.176226	      10.096986
	 D(5,7,10,9)      =         2.259691	     129.470760
	 D(5,7,10,14)     =        -1.922910	    -110.174610
	 D(6,7,10,8)      =        -1.907885	    -109.313786
	 D(6,7,10,9)      =         0.175580	      10.059989
	 D(6,7,10,14)     =         2.276165	     130.414619
	 D(7,10,14,11)    =         3.140720	     179.949989
	 D(7,10,14,12)    =         1.046992	      59.988216
	 D(7,10,14,13)    =        -1.047958	     -60.043576
	 D(8,10,14,11)    =         1.040655	      59.625141
	 D(8,10,14,12)    =        -1.053073	     -60.336632
	 D(8,10,14,13)    =         3.135162	     179.631576
	 D(9,10,14,11)    =        -1.041329	     -59.663745
	 D(9,10,14,12)    =        -3.135057	    -179.625518
	 D(9,10,14,13)    =         1.053179	      60.342690

	Current energy   :      -157.8296176153

	Energy change for the previous step:
		Projected    :        -0.0136702386
		Actual       :        -0.0095214770

	Performing BFGS update.
	Previous computed or guess Hessian on step 1.
	Steps to be used in Hessian update: 1
	Adding user-defined constraint: Fragment 1; Coordinate 49:
		Value =     0.176334; Fixed value    =     0.174530
		Force =    -0.000947; Force constant =     0.525000
	Removing off-diagonal coupling between coordinate 49 and others.
	Taking RFO optimization step.
	Going to follow RFO solution 1.
	Using RFO vector 1.

	Determining step-restricting scale parameter for RS-RFO.
	Maximum step size allowed    0.10000

	 Iter      |step|        alpha        rfo_root  
	------------------------------------------------
	    0     0.19753       1.00000           1
	    1     0.15061       6.30989           1
	    2     0.12025      16.77108           1
	    3     0.10486      27.71961           1
	    4     0.10039      32.20083           1
	    5     0.10000      32.61885           1
	------------------------------------------------
	Norm of target step-size    0.10000
	Projected energy change by RFO approximation:        -0.0055068012

	Back-transformation to cartesian coordinates...
	Successfully converged to displaced geometry.

	--- Internal Coordinate Step in ANG or DEG, aJ/ANG or AJ/DEG ---
	 ---------------------------------------------------------------------------
	   Coordinate                Previous        Force       Change         New 
	   ----------                --------       ------       ------       ------
	    1 R(1,4)          =      1.074815     0.093797     0.012554     1.087369
	    2 R(2,4)          =      1.077976     0.088651     0.010875     1.088851
	    3 R(3,4)          =      1.073910     0.087727     0.012470     1.086380
	    4 R(4,7)          =      1.544216    -0.020869    -0.005281     1.538935
	    5 R(5,7)          =      1.076119     0.100551     0.012392     1.088511
	    6 R(6,7)          =      1.075735     0.101198     0.012467     1.088202
	    7 R(7,10)         =      1.554032     0.096274     0.003637     1.557669
	    8 R(8,10)         =      1.075451     0.103127     0.012691     1.088143
	    9 R(9,10)         =      1.075352     0.105240     0.012939     1.088291
	   10 R(10,14)        =      1.543425    -0.017806    -0.004828     1.538597
	   11 R(11,14)        =      1.076870     0.095225     0.011644     1.088514
	   12 R(12,14)        =      1.074664     0.094971     0.012693     1.087357
	   13 R(13,14)        =      1.074582     0.083881     0.012022     1.086604
	   14 B(1,4,2)        =    109.255252    -0.000298    -0.591826   108.663426
	   15 B(1,4,3)        =    109.232817    -0.000256    -0.627191   108.605626
	   16 B(1,4,7)        =    109.766531     0.000366     0.765895   110.532425
	   17 B(2,4,3)        =    109.201222    -0.000286    -0.529244   108.671978
	   18 B(2,4,7)        =    109.474217     0.000074     0.244075   109.718292
	   19 B(3,4,7)        =    109.893821     0.000391     0.704419   110.598240
	   20 B(4,7,5)        =    108.596594    -0.000553    -0.407235   108.189359
	   21 B(4,7,6)        =    108.604013    -0.000608    -0.408238   108.195775
	   22 B(4,7,10)       =    112.502542     0.001979     1.461615   113.964157
	   23 B(5,7,6)        =    109.767852     0.000078    -0.476918   109.290933
	   24 B(5,7,10)       =    108.655848    -0.000458    -0.088676   108.567172
	   25 B(6,7,10)       =    108.691837    -0.000455    -0.129932   108.561906
	   26 B(7,10,8)       =    108.667954    -0.000454    -0.117558   108.550396
	   27 B(7,10,9)       =    108.686613    -0.000461    -0.103331   108.583282
	   28 B(7,10,14)      =    112.521398     0.001978     1.457007   113.978405
	   29 B(8,10,9)       =    109.733805     0.000080    -0.471752   109.262053
	   30 B(8,10,14)      =    108.575610    -0.000605    -0.404269   108.171341
	   31 B(9,10,14)      =    108.631714    -0.000555    -0.410056   108.221658
	   32 B(10,14,11)     =    109.483653     0.000079     0.249752   109.733404
	   33 B(10,14,12)     =    109.806131     0.000356     0.738121   110.544251
	   34 B(10,14,13)     =    109.929045     0.000385     0.690456   110.619501
	   35 B(11,14,12)     =    109.266118    -0.000297    -0.586704   108.679415
	   36 B(11,14,13)     =    109.240762    -0.000289    -0.538298   108.702464
	   37 B(12,14,13)     =    109.097761    -0.000242    -0.587459   108.510302
	   38 D(1,4,7,5)      =   -179.617557     0.000087     0.618587  -178.998969
	   39 D(1,4,7,6)      =    -60.291614    -0.000045    -0.409862   -60.701476
	   40 D(1,4,7,10)     =     60.070484     0.000017     0.078235    60.148719
	   41 D(2,4,7,5)      =    -59.699337     0.000065     0.517775   -59.181561
	   42 D(2,4,7,6)      =     59.626606    -0.000066    -0.510674    59.115932
	   43 D(2,4,7,10)     =    179.988704    -0.000004    -0.022577   179.966127
	   44 D(3,4,7,5)      =     60.230869     0.000050     0.456937    60.687806
	   45 D(3,4,7,6)      =    179.556812    -0.000081    -0.571512   178.985300
	   46 D(3,4,7,10)     =    -60.081090    -0.000019    -0.083415   -60.164505
	   47 D(4,7,10,8)     =    130.374761     0.000066     0.508802   130.883563
	   48 D(4,7,10,9)     =   -110.251465    -0.000033    -0.183963  -110.435428
	   49 D(4,7,10,14)    =     10.103166     0.000023     0.164756    10.267922
	   50 D(5,7,10,8)     =     10.096986     0.000009     0.145277    10.242263
	   51 D(5,7,10,9)     =    129.470760    -0.000091    -0.547487   128.923273
	   52 D(5,7,10,14)    =   -110.174610    -0.000034    -0.198768  -110.373378
	   53 D(6,7,10,8)     =   -109.313786     0.000108     0.843059  -108.470727
	   54 D(6,7,10,9)     =     10.059989     0.000009     0.150294    10.210283
	   55 D(6,7,10,14)    =    130.414619     0.000065     0.499013   130.913632
	   56 D(7,10,14,11)   =    179.949989    -0.000004    -0.007569   179.942420
	   57 D(7,10,14,12)   =     59.988216     0.000018     0.099922    60.088138
	   58 D(7,10,14,13)   =    -60.043576    -0.000019    -0.083765   -60.127341
	   59 D(8,10,14,11)   =     59.625141    -0.000066    -0.510066    59.115075
	   60 D(8,10,14,12)   =    -60.336632    -0.000044    -0.402574   -60.739206
	   61 D(8,10,14,13)   =    179.631576    -0.000082    -0.586261   179.045315
	   62 D(9,10,14,11)   =    -59.663745     0.000065     0.511308   -59.152437
	   63 D(9,10,14,12)   =   -179.625518     0.000087     0.618799  -179.006719
	   64 D(9,10,14,13)   =     60.342690     0.000049     0.435112    60.777802
	 ---------------------------------------------------------------------------
	 Forces used to impose fixed constraints are not included.
	  Forces zeroed: 49 

  ==> Convergence Check <==

  Measures of convergence in internal coordinates in au.
  Criteria marked as inactive (o), active & met (*), and active & unmet ( ).
  ---------------------------------------------------------------------------------------------
   Step     Total Energy     Delta E     MAX Force     RMS Force      MAX Disp      RMS Disp   
  ---------------------------------------------------------------------------------------------
    Convergence Criteria    1.00e-06 *    3.00e-04 *             o    1.20e-03 *             o
  ---------------------------------------------------------------------------------------------
      2    -157.82961762   -9.52e-03      2.60e-02      7.60e-03 o    2.55e-02      1.25e-02 o  ~
  ---------------------------------------------------------------------------------------------

	Writing optimization data to binary file.
	Structure for next step:
	Cartesian Geometry (in Angstrom)
	    H    -1.7353688361   0.4463122599   0.6503686819
	    H    -1.4876692572   2.0868489923   0.0396155339
	    H    -1.3459866522   0.7043011260  -1.0520430589
	    C    -1.1554522957   1.0530522813  -0.0409592037
	    H     0.8858940552   1.5956183710  -0.4118049612
	    H     0.4935440822   1.3369350909   1.3001624640
	    C     0.3449149722   0.9625870163   0.2892438439
	    H     1.8354409563  -0.4528930166  -0.3916404905
	    H     1.1657365473  -0.8172332582   1.2110146192
	    C     0.9255082066  -0.4803453628   0.2044491732
	    H     0.4405514666  -2.4835539001  -0.4551572907
	    H    -0.2844377479  -1.2117696037  -1.4462759023
	    H    -0.9514500691  -1.5753999298   0.1462474963
	    C    -0.0327271769  -1.5036488942  -0.4295195980
			--------------------------
			 OPTKING Finished Execution 
			--------------------------

    Structure for next step:
    Molecular point group: c1
    Full point group: C1

    Geometry (in Angstrom), charge = 0, multiplicity = 1:

    H           -1.735291030397     0.446208867836     0.652678441090
    H           -1.487591451509     2.086745600201     0.041925293161
    H           -1.345908846442     0.704197733881    -1.049733299651
    C           -1.155374489979     1.052948889208    -0.038649444487
    H            0.885971860915     1.595514978882    -0.409495201983
    H            0.493621887927     1.336831698820     1.302472223282
    C            0.344992777875     0.962483624201     0.291553603167
    H            1.835518762011    -0.452996408690    -0.389330731297
    H            1.165814352981    -0.817336650291     1.213324378472
    C            0.925586012350    -0.480448754900     0.206758932450
    H            0.440629272336    -2.483657292207    -0.452847531488
    H           -0.284359942131    -1.211872995777    -1.443966143022
    H           -0.951372263371    -1.575503321939     0.148557255495
    C           -0.032649371155    -1.503752286288    -0.427209838782

gradient() will perform analytic gradient computation.
    SCF Algorithm Type (re)set to DF.

*** tstart() called on lski1497
*** at Thu Feb 16 16:23:32 2017


         ---------------------------------------------------------
                                   SCF
            by Justin Turney, Rob Parrish, and Andy Simmonett
                              RHF Reference
                        1 Threads,   1000 MiB Core
         ---------------------------------------------------------

  ==> Geometry <==

    Molecular point group: c1
    Full point group: C1

    Geometry (in Angstrom), charge = 0, multiplicity = 1:

       Center              X                  Y                   Z               Mass       
    ------------   -----------------  -----------------  -----------------  -----------------
           H         -1.735291030397     0.446208867836     0.652678441090     1.007825032070
           H         -1.487591451509     2.086745600201     0.041925293161     1.007825032070
           H         -1.345908846442     0.704197733881    -1.049733299651     1.007825032070
           C         -1.155374489979     1.052948889208    -0.038649444487    12.000000000000
           H          0.885971860915     1.595514978882    -0.409495201983     1.007825032070
           H          0.493621887927     1.336831698820     1.302472223282     1.007825032070
           C          0.344992777875     0.962483624201     0.291553603167    12.000000000000
           H          1.835518762011    -0.452996408690    -0.389330731297     1.007825032070
           H          1.165814352981    -0.817336650291     1.213324378472     1.007825032070
           C          0.925586012350    -0.480448754900     0.206758932450    12.000000000000
           H          0.440629272336    -2.483657292207    -0.452847531488     1.007825032070
           H         -0.284359942131    -1.211872995777    -1.443966143022     1.007825032070
           H         -0.951372263371    -1.575503321939     0.148557255495     1.007825032070
           C         -0.032649371155    -1.503752286288    -0.427209838782    12.000000000000

  Running in c1 symmetry.

  Rotational constants: A =      0.39089  B =      0.18501  C =      0.13888 [cm^-1]
  Rotational constants: A =  11718.63260  B =   5546.50623  C =   4163.64792 [MHz]
  Nuclear repulsion =  133.434549432166193

  Charge       = 0
  Multiplicity = 1
  Electrons    = 34
  Nalpha       = 17
  Nbeta        = 17

  ==> Algorithm <==

  SCF Algorithm Type is DF.
  DIIS enabled.
  MOM disabled.
  Fractional occupation disabled.
  Guess Type is READ.
  Energy threshold   = 1.00e-10
  Density threshold  = 1.00e-10
  Integral threshold = 0.00e+00

  ==> Primary Basis <==

  Basis Set: 6-31G(D)
    Number of shells: 44
    Number of basis function: 80
    Number of Cartesian functions: 80
    Spherical Harmonics?: false
    Max angular momentum: 2

  ==> Pre-Iterations <==

   -------------------------------------------------------
    Irrep   Nso     Nmo     Nalpha   Nbeta   Ndocc  Nsocc
   -------------------------------------------------------
     A         80      80       0       0       0       0
   -------------------------------------------------------
    Total      80      80      17      17      17       0
   -------------------------------------------------------

  ==> Integral Setup <==

  ==> DFJK: Density-Fitted J/K Matrices <==

    J tasked:                  Yes
    K tasked:                  Yes
    wK tasked:                  No
    OpenMP threads:              1
    Integrals threads:           1
    Memory (MB):               715
    Algorithm:                Core
    Integral Cache:           NONE
    Schwarz Cutoff:          1E-12
    Fitting Condition:       1E-12

   => Auxiliary Basis Set <=

  Basis Set: 
    Number of shells: 186
    Number of basis function: 574
    Number of Cartesian functions: 574
    Spherical Harmonics?: false
    Max angular momentum: 3

  Minimum eigenvalue in the overlap matrix is 3.9422478348E-03.
  Using Symmetric Orthogonalization.
  SCF Guess was Projection but file not found.
  Switching over to SAD guess.

  SCF Guess: Superposition of Atomic Densities via on-the-fly atomic UHF.

  ==> Iterations <==

                           Total Energy        Delta E     RMS |[F,P]|

   @DF-RHF iter   0:  -158.69864600859927   -1.58699e+02   4.51014e-02 
   @DF-RHF iter   1:  -157.18065003585963    1.51800e+00   4.42512e-03 
   @DF-RHF iter   2:  -157.27482741366396   -9.41774e-02   1.43806e-03 DIIS
   @DF-RHF iter   3:  -157.28491573208032   -1.00883e-02   5.75437e-04 DIIS
   @DF-RHF iter   4:  -157.28654904588547   -1.63331e-03   8.41354e-05 DIIS
   @DF-RHF iter   5:  -157.28660192952265   -5.28836e-05   1.67178e-05 DIIS
   @DF-RHF iter   6:  -157.28660399500012   -2.06548e-06   4.01045e-06 DIIS
   @DF-RHF iter   7:  -157.28660407635829   -8.13582e-08   1.04479e-06 DIIS
   @DF-RHF iter   8:  -157.28660408340471   -7.04642e-09   2.34165e-07 DIIS
   @DF-RHF iter   9:  -157.28660408384263   -4.37922e-10   6.65542e-08 DIIS
   @DF-RHF iter  10:  -157.28660408387708   -3.44471e-11   1.91056e-08 DIIS
   @DF-RHF iter  11:  -157.28660408387930   -2.21689e-12   4.25244e-09 DIIS
   @DF-RHF iter  12:  -157.28660408387935   -5.68434e-14   9.22578e-10 DIIS
   @DF-RHF iter  13:  -157.28660408387930    5.68434e-14   1.84063e-10 DIIS
   @DF-RHF iter  14:  -157.28660408387987   -5.68434e-13   6.45996e-11 DIIS

  ==> Post-Iterations <==

    Orbital Energies (a.u.)
    -----------------------

    Doubly Occupied:                                                      

       1A    -11.214499     2A    -11.213974     3A    -11.207126  
       4A    -11.207081     5A     -1.065587     6A     -0.970313  
       7A     -0.877987     8A     -0.766415     9A     -0.640140  
      10A     -0.613806    11A     -0.565644    12A     -0.533660  
      13A     -0.523196    14A     -0.518343    15A     -0.455204  
      16A     -0.453951    17A     -0.450831  

    Virtual:                                                              

      18A      0.223451    19A      0.273785    20A      0.277968  
      21A      0.298246    22A      0.303126    23A      0.312202  
      24A      0.348051    25A      0.362981    26A      0.363472  
      27A      0.373169    28A      0.422806    29A      0.425926  
      30A      0.489729    31A      0.706882    32A      0.732972  
      33A      0.734081    34A      0.786922    35A      0.801611  
      36A      0.807606    37A      0.862292    38A      0.915233  
      39A      0.938239    40A      1.008040    41A      1.119393  
      42A      1.133105    43A      1.147317    44A      1.161147  
      45A      1.169968    46A      1.180217    47A      1.192754  
      48A      1.204151    49A      1.215050    50A      1.251860  
      51A      1.255151    52A      1.278636    53A      1.309314  
      54A      1.606726    55A      1.658743    56A      1.704815  
      57A      1.717618    58A      1.935681    59A      2.079272  
      60A      2.120482    61A      2.168302    62A      2.259364  
      63A      2.281055    64A      2.323080    65A      2.363192  
      66A      2.418041    67A      2.530347    68A      2.567668  
      69A      2.637701    70A      2.669585    71A      2.709155  
      72A      2.731968    73A      2.791852    74A      2.894796  
      75A      2.985372    76A      3.085663    77A      4.549808  
      78A      4.711947    79A      4.762439    80A      5.004680  

    Final Occupation by Irrep:
              A 
    DOCC [    17 ]

  Energy converged.

  @DF-RHF Final Energy:  -157.28660408387987

   => Energetics <=

    Nuclear Repulsion Energy =            133.4345494321661931
    One-Electron Energy =                -474.8867921521839435
    Two-Electron Energy =                 184.1656386361379987
    DFT Exchange-Correlation Energy =       0.0000000000000000
    Empirical Dispersion Energy =           0.0000000000000000
    PCM Polarization Energy =               0.0000000000000000
    EFP Energy =                            0.0000000000000000
    Total Energy =                       -157.2866040838797517


  Saving occupied orbitals to File 180.

*** tstop() called on lski1497 at Thu Feb 16 16:23:40 2017
Module time:
	user time   =       6.00 seconds =       0.10 minutes
	system time =       0.16 seconds =       0.00 minutes
	total time  =          8 seconds =       0.13 minutes
Total time:
	user time   =      55.91 seconds =       0.93 minutes
	system time =       1.59 seconds =       0.03 minutes
	total time  =         67 seconds =       1.12 minutes


Properties will be evaluated at   0.000000,   0.000000,   0.000000 Bohr

Properties computed using the SCF density matrix

  Nuclear Dipole Moment: (a.u.)
     X:    -0.9215      Y:    -0.3486      Z:    -0.3623

  Electronic Dipole Moment: (a.u.)
     X:     0.9487      Y:     0.3589      Z:     0.3728

  Dipole Moment: (a.u.)
     X:     0.0272      Y:     0.0102      Z:     0.0106     Total:     0.0310

  Dipole Moment: (Debye)
     X:     0.0692      Y:     0.0260      Z:     0.0269     Total:     0.0787


  //>>>>>>>>>>>>>>>>>>>>>>>>>>>>>>>>>>>//
  //               DFMP2               //
  //<<<<<<<<<<<<<<<<<<<<<<<<<<<<<<<<<<<//


*** tstart() called on lski1497
*** at Thu Feb 16 16:23:40 2017


*** tstop() called on lski1497 at Thu Feb 16 16:23:40 2017
Module time:
	user time   =       0.56 seconds =       0.01 minutes
	system time =       0.00 seconds =       0.00 minutes
	total time  =          0 seconds =       0.00 minutes
Total time:
	user time   =      56.49 seconds =       0.94 minutes
	system time =       1.59 seconds =       0.03 minutes
	total time  =         67 seconds =       1.12 minutes
	 --------------------------------------------------------
	                          DF-MP2                         
	      2nd-Order Density-Fitted Moller-Plesset Theory     
	              RMP2 Wavefunction,   1 Threads             
	                                                         
	        Rob Parrish, Justin Turney, Andy Simmonett,      
	           Ed Hohenstein, and C. David Sherrill          
	 --------------------------------------------------------

   => Auxiliary Basis Set <=

  Basis Set: 
    Number of shells: 132
    Number of basis function: 364
    Number of Cartesian functions: 414
    Spherical Harmonics?: true
    Max angular momentum: 3

	 --------------------------------------------------------
	                 NBF =    80, NAUX =   364
	 --------------------------------------------------------
	   CLASS    FOCC     OCC    AOCC    AVIR     VIR    FVIR
	   PAIRS       0      17      17      63      63       0
	 --------------------------------------------------------

DGAS Warning! /src/lib/libfock/apps.cc:80 is not currently checking restricted

         ------------------------------------------------------------
                                     CPHF                           
                                  Rob Parrish                       
         ------------------------------------------------------------

  ==> Geometry <==

    Molecular point group: c1
    Full point group: C1

    Geometry (in Angstrom), charge = 0, multiplicity = 1:

       Center              X                  Y                   Z               Mass       
    ------------   -----------------  -----------------  -----------------  -----------------
           H         -1.735291030397     0.446208867836     0.652678441090     1.007825032070
           H         -1.487591451509     2.086745600201     0.041925293161     1.007825032070
           H         -1.345908846442     0.704197733881    -1.049733299651     1.007825032070
           C         -1.155374489979     1.052948889208    -0.038649444487    12.000000000000
           H          0.885971860915     1.595514978882    -0.409495201983     1.007825032070
           H          0.493621887927     1.336831698820     1.302472223282     1.007825032070
           C          0.344992777875     0.962483624201     0.291553603167    12.000000000000
           H          1.835518762011    -0.452996408690    -0.389330731297     1.007825032070
           H          1.165814352981    -0.817336650291     1.213324378472     1.007825032070
           C          0.925586012350    -0.480448754900     0.206758932450    12.000000000000
           H          0.440629272336    -2.483657292207    -0.452847531488     1.007825032070
           H         -0.284359942131    -1.211872995777    -1.443966143022     1.007825032070
           H         -0.951372263371    -1.575503321939     0.148557255495     1.007825032070
           C         -0.032649371155    -1.503752286288    -0.427209838782    12.000000000000

  Nuclear repulsion =  133.434549432166193
  Reference energy  = -157.286604083879865

  ==> Basis Set <==

  Basis Set: 6-31G(D)
    Number of shells: 44
    Number of basis function: 80
    Number of Cartesian functions: 80
    Spherical Harmonics?: false
    Max angular momentum: 2

  ==> CGRSolver (by Rob Parrish) <==

[...]
	 R(11,14)         =         2.065211	       1.092863
	 R(12,14)         =         2.064372	       1.092419
	 R(13,14)         =         2.064586	       1.092532
	 B(1,4,2)         =         1.878353	     107.621681
	 B(1,4,3)         =         1.889861	     108.281050
	 B(1,4,7)         =         1.950428	     111.751313
	 B(2,4,3)         =         1.877800	     107.590012
	 B(2,4,7)         =         1.917413	     109.859691
	 B(3,4,7)         =         1.947206	     111.566667
	 B(4,7,5)         =         1.877059	     107.547533
	 B(4,7,6)         =         1.896101	     108.638607
	 B(4,7,10)        =         2.029773	     116.297424
	 B(5,7,6)         =         1.832900	     105.017435
	 B(5,7,10)        =         1.915106	     109.727509
	 B(6,7,10)        =         1.902696	     109.016453
	 B(7,10,8)        =         1.901216	     108.931653
	 B(7,10,9)        =         1.915067	     109.725278
	 B(7,10,14)       =         2.031037	     116.369822
	 B(8,10,9)        =         1.830625	     104.887111
	 B(8,10,14)       =         1.896970	     108.688402
	 B(9,10,14)       =         1.878376	     107.623014
	 B(10,14,11)      =         1.915804	     109.767479
	 B(10,14,12)      =         1.948691	     111.651772
	 B(10,14,13)      =         1.950821	     111.773796
	 B(11,14,12)      =         1.880688	     107.755482
	 B(11,14,13)      =         1.877994	     107.601147
	 B(12,14,13)      =         1.887094	     108.122499
	 D(1,4,7,5)       =        -3.081814	    -176.574918
	 D(1,4,7,6)       =        -1.106631	     -63.405300
	 D(1,4,7,10)      =         1.046830	      59.978936
	 D(2,4,7,5)       =        -0.998170	     -57.190912
	 D(2,4,7,6)       =         0.977013	      55.978706
	 D(2,4,7,10)      =         3.130474	     179.362942
	 D(3,4,7,5)       =         1.082730	      62.035855
	 D(3,4,7,6)       =         3.057912	     175.205473
	 D(3,4,7,10)      =        -1.071812	     -61.410292
	 D(4,7,10,8)      =         2.327986	     133.383747
	 D(4,7,10,9)      =        -1.960283	    -112.315964
	 D(4,7,10,14)     =         0.177068	      10.145254
	 D(5,7,10,8)      =         0.193298	      11.075182
	 D(5,7,10,9)      =         2.188215	     125.375471
	 D(5,7,10,14)     =        -1.957619	    -112.163311
	 D(6,7,10,8)      =        -1.805163	    -103.428249
	 D(6,7,10,9)      =         0.189753	      10.872040
	 D(6,7,10,14)     =         2.327104	     133.333258
	 D(7,10,14,11)    =        -3.132247	    -179.464519
	 D(7,10,14,12)    =         1.066543	      61.108420
	 D(7,10,14,13)    =        -1.049864	     -60.152783
	 D(8,10,14,11)    =         0.997820	      57.170858
	 D(8,10,14,12)    =        -1.086576	     -62.256203
	 D(8,10,14,13)    =         3.080202	     176.482594
	 D(9,10,14,11)    =        -0.975804	     -55.909447
	 D(9,10,14,12)    =        -3.060199	    -175.336508
	 D(9,10,14,13)    =         1.106579	      63.402289

	Current energy   :      -157.8353878145

	Energy change for the previous step:
		Projected    :         0.0000000413
		Actual       :        -0.0000004859

	Performing BFGS update.
	Previous computed or guess Hessian on step 1.
	Denominators (dg)(dq) or (dq)(dq) are very small.
	 Skipping Hessian update for step 49.
	Steps to be used in Hessian update: 48 47
	Adding user-defined constraint: Fragment 1; Coordinate 49:
		Value =     0.177068; Fixed value    =     0.174530
		Force =    -0.004378; Force constant =     1.725000
	Removing off-diagonal coupling between coordinate 49 and others.
	Taking RFO optimization step.
	Going to follow RFO solution 1.
	Rejecting RFO root 1 because normalization gives large value.
	Rejecting RFO root 2 because normalization gives large value.
	Rejecting RFO root 3 because normalization gives large value.
	Rejecting RFO root 4 because normalization gives large value.
	Rejecting RFO root 5 because normalization gives large value.
	Rejecting RFO root 6 because normalization gives large value.
	Rejecting RFO root 7 because normalization gives large value.
	Rejecting RFO root 8 because normalization gives large value.
	Rejecting RFO root 9 because normalization gives large value.
	Rejecting RFO root 10 because normalization gives large value.
	Rejecting RFO root 11 because normalization gives large value.
	Rejecting RFO root 12 because normalization gives large value.
	Rejecting RFO root 13 because normalization gives large value.
	Rejecting RFO root 14 because normalization gives large value.
	Rejecting RFO root 15 because normalization gives large value.
	Rejecting RFO root 16 because normalization gives large value.
	Rejecting RFO root 17 because normalization gives large value.
	Rejecting RFO root 18 because normalization gives large value.
	Rejecting RFO root 19 because normalization gives large value.
	Rejecting RFO root 20 because normalization gives large value.
	Rejecting RFO root 21 because normalization gives large value.
	Rejecting RFO root 22 because normalization gives large value.
	Rejecting RFO root 23 because normalization gives large value.
	Rejecting RFO root 24 because normalization gives large value.
	Rejecting RFO root 25 because normalization gives large value.
	Rejecting RFO root 26 because normalization gives large value.
	Rejecting RFO root 27 because normalization gives large value.
	Rejecting RFO root 28 because normalization gives large value.
	Rejecting RFO root 29 because normalization gives large value.
	Rejecting RFO root 30 because normalization gives large value.
	Rejecting RFO root 31 because normalization gives large value.
	Rejecting RFO root 32 because normalization gives large value.
	Rejecting RFO root 33 because normalization gives large value.
	Using RFO vector 34.
	Norm of target step-size    0.00195
	Projected energy change by RFO approximation:        -0.0000000185

	Back-transformation to cartesian coordinates...
	Successfully converged to displaced geometry.

	--- Internal Coordinate Step in ANG or DEG, aJ/ANG or AJ/DEG ---
	 ---------------------------------------------------------------------------
	   Coordinate                Previous        Force       Change         New 
	   ----------                --------       ------       ------       ------
	    1 R(1,4)          =      1.092263     0.004628    -0.000010     1.092252
	    2 R(2,4)          =      1.092747     0.005342     0.000041     1.092787
	    3 R(3,4)          =      1.092943    -0.004397     0.000101     1.093044
	    4 R(4,7)          =      1.525922     0.011019     0.000025     1.525947
	    5 R(5,7)          =      1.095051     0.003410    -0.000053     1.094997
	    6 R(6,7)          =      1.095279     0.000063    -0.000091     1.095188
	    7 R(7,10)         =      1.550414    -0.010494    -0.000030     1.550383
	    8 R(8,10)         =      1.095479    -0.000819    -0.000130     1.095350
	    9 R(9,10)         =      1.094349     0.007485    -0.000038     1.094311
	   10 R(10,14)        =      1.526393     0.007979     0.000055     1.526447
	   11 R(11,14)        =      1.092863     0.004361     0.000098     1.092961
	   12 R(12,14)        =      1.092419     0.004380     0.000105     1.092524
	   13 R(13,14)        =      1.092532    -0.002726    -0.000103     1.092429
	   14 B(1,4,2)        =    107.621681    -0.000034    -0.008819   107.612861
	   15 B(1,4,3)        =    108.281050    -0.000058     0.021408   108.302458
	   16 B(1,4,7)        =    111.751313     0.000052     0.016673   111.767986
	   17 B(2,4,3)        =    107.590012    -0.000015    -0.010909   107.579103
	   18 B(2,4,7)        =    109.859691     0.000020    -0.015924   109.843767
	   19 B(3,4,7)        =    111.566667     0.000030    -0.003269   111.563398
	   20 B(4,7,5)        =    107.547533     0.000054     0.003889   107.551422
	   21 B(4,7,6)        =    108.638607    -0.000009    -0.000876   108.637731
	   22 B(4,7,10)       =    116.297424     0.000001     0.009287   116.306711
	   23 B(5,7,6)        =    105.017435     0.000034    -0.022063   104.995372
	   24 B(5,7,10)       =    109.727509    -0.000102     0.010706   109.738214
	   25 B(6,7,10)       =    109.016453     0.000027    -0.004302   109.012151
	   26 B(7,10,8)       =    108.931653     0.000038     0.000122   108.931775
	   27 B(7,10,9)       =    109.725278    -0.000099    -0.012180   109.713098
	   28 B(7,10,14)      =    116.369822    -0.000005    -0.004789   116.365033
	   29 B(8,10,9)       =    104.887111     0.000041     0.017854   104.904966
	   30 B(8,10,14)      =    108.688402    -0.000023     0.006671   108.695073
	   31 B(9,10,14)      =    107.623014     0.000052    -0.005073   107.617941
	   32 B(10,14,11)     =    109.767479     0.000041     0.008657   109.776136
	   33 B(10,14,12)     =    111.651772     0.000065    -0.010147   111.641625
	   34 B(10,14,13)     =    111.773796    -0.000010    -0.001549   111.772247
	   35 B(11,14,12)     =    107.755482    -0.000053    -0.003680   107.751801
	   36 B(11,14,13)     =    107.601147    -0.000011     0.014116   107.615263
	   37 B(12,14,13)     =    108.122499    -0.000037    -0.006792   108.115707
	   38 D(1,4,7,5)      =   -176.574918    -0.000012     0.020559  -176.554359
	   39 D(1,4,7,6)      =    -63.405300     0.000002    -0.003572   -63.408871
	   40 D(1,4,7,10)     =     59.978936     0.000009    -0.003243    59.975693
	   41 D(2,4,7,5)      =    -57.190912    -0.000011     0.009640   -57.181271
	   42 D(2,4,7,6)      =     55.978706     0.000003    -0.014490    55.964216
	   43 D(2,4,7,10)     =    179.362942     0.000010    -0.014161   179.348781
	   44 D(3,4,7,5)      =     62.035855    -0.000008    -0.016481    62.019373
	   45 D(3,4,7,6)      =    175.205473     0.000006    -0.040612   175.164861
	   46 D(3,4,7,10)     =    -61.410292     0.000013    -0.040283   -61.450575
	   47 D(4,7,10,8)     =    133.383747    -0.000002     0.001399   133.385146
	   48 D(4,7,10,9)     =   -112.315964     0.000002     0.016172  -112.299792
	   49 D(4,7,10,14)    =     10.145254    -0.000002    -0.004096    10.141158
	   50 D(5,7,10,8)     =     11.075182     0.000000    -0.019338    11.055845
	   51 D(5,7,10,9)     =    125.375471     0.000004    -0.004565   125.370906
	   52 D(5,7,10,14)    =   -112.163311     0.000001    -0.024833  -112.188144
	   53 D(6,7,10,8)     =   -103.428249    -0.000000     0.003545  -103.424704
	   54 D(6,7,10,9)     =     10.872040     0.000004     0.018318    10.890358
	   55 D(6,7,10,14)    =    133.333258     0.000001    -0.001950   133.331308
	   56 D(7,10,14,11)   =   -179.464519     0.000009     0.007967  -179.456552
	   57 D(7,10,14,12)   =     61.108420     0.000008     0.013327    61.121747
	   58 D(7,10,14,13)   =    -60.152783     0.000010     0.030354   -60.122430
	   59 D(8,10,14,11)   =     57.170858     0.000002     0.005862    57.176720
	   60 D(8,10,14,12)   =    -62.256203     0.000002     0.011222   -62.244981
	   61 D(8,10,14,13)   =    176.482594     0.000004     0.028248   176.510842
	   62 D(9,10,14,11)   =    -55.909447    -0.000013    -0.015627   -55.925074
	   63 D(9,10,14,12)   =   -175.336508    -0.000013    -0.010268  -175.346775
	   64 D(9,10,14,13)   =     63.402289    -0.000011     0.006759    63.409048
	 ---------------------------------------------------------------------------
	 Forces used to impose fixed constraints are not included.
	  Forces zeroed: 49 

  ==> Convergence Check <==

  Measures of convergence in internal coordinates in au.
  Criteria marked as inactive (o), active & met (*), and active & unmet ( ).
  ---------------------------------------------------------------------------------------------
   Step     Total Energy     Delta E     MAX Force     RMS Force      MAX Disp      RMS Disp   
  ---------------------------------------------------------------------------------------------
    Convergence Criteria    1.00e-06 *    3.00e-04 *             o    1.20e-03 *             o
  ---------------------------------------------------------------------------------------------
     50    -157.83538781   -4.86e-07 *    1.35e-03      5.68e-04 o    7.09e-04 *    2.44e-04 o  ~
  ---------------------------------------------------------------------------------------------


  **** Optimization has failed! (in 50 steps) ****

  ==> Optimization Summary <==

  Measures of convergence in internal coordinates in au.
  --------------------------------------------------------------------------------------------------------------- ~
   Step         Total Energy             Delta E       MAX Force       RMS Force        MAX Disp        RMS Disp  ~
  --------------------------------------------------------------------------------------------------------------- ~
      1    -157.820096138322   -157.820096138322      0.07187926      0.01733995      0.05238570      0.01265636  ~
      2    -157.829617615341     -0.009521477019      0.02601457      0.00759782      0.02551000      0.01253597  ~
      3    -157.833521254458     -0.003903639117      0.01273236      0.00337951      0.03356453      0.01252048  ~
      4    -157.834948951475     -0.001427697017      0.00592326      0.00151554      0.04420140      0.01249781  ~
      5    -157.835465334567     -0.000516383092      0.00188924      0.00046353      0.02843742      0.00768197  ~
      6    -157.835526089358     -0.000060754790      0.00052694      0.00013441      0.00482859      0.00200544  ~
      7    -157.835529807915     -0.000003718557      0.00017087      0.00005208      0.00546536      0.00278593  ~
      8    -157.835536163221     -0.000006355307      0.00039727      0.00012704      0.03770121      0.01249715  ~
      9    -157.835457602081      0.000078561141      0.00109150      0.00043352      0.04154668      0.01239308  ~
     10    -157.835512463861     -0.000054861780      0.00061481      0.00026435      0.01950442      0.00705825  ~
     11    -157.835524571165     -0.000012107305      0.00049319      0.00015870      0.00323917      0.00145596  ~
     12    -157.835532986739     -0.000008415573      0.00076660      0.00017171      0.02663952      0.01251268  ~
     13    -157.834870496875      0.000662489864      0.00457873      0.00199932      0.02602979      0.01246635  ~
     14    -157.834521710649      0.000348786225      0.00836586      0.00249044      0.03432165      0.01252753  ~
     15    -157.835515763065     -0.000994052416      0.00104546      0.00038387      0.00595981      0.00269745  ~
     16    -157.835541073537     -0.000025310472      0.00172934      0.00044311      0.00648736      0.00311526  ~
     17    -157.835536510793      0.000004562745      0.00174327      0.00045340      0.03801030      0.01249704  ~
     18    -157.834741091625      0.000795419167      0.01312649      0.00260334      0.03164717      0.01252728  ~
     19    -157.834977233709     -0.000236142084      0.00874085      0.00201627      0.02632515      0.01248360  ~
     20    -157.834974289079      0.000002944630      0.00906697      0.00215590      0.02788960      0.01251479  ~
     21    -157.834829343327      0.000144945752      0.00598973      0.00228790      0.03754005      0.01251961  ~
     22    -157.835010376510     -0.000181033183      0.00845788      0.00181268      0.02978123      0.01099386  ~
     23    -157.835339103166     -0.000328726656      0.00268655      0.00084732      0.02795986      0.01250766  ~
     24    -157.835165062093      0.000174041073      0.00312254      0.00120795      0.03274570      0.01248152  ~
     25    -157.835375881566     -0.000210819473      0.00240857      0.00071553      0.00596867      0.00190831  ~
     26    -157.835389807800     -0.000013926234      0.00165309      0.00060091      0.00569223      0.00209404  ~
     27    -157.835402277785     -0.000012469985      0.00117220      0.00053536      0.00394433      0.00140435  ~
     28    -157.835395747091      0.000006530694      0.00128173      0.00056698      0.00442434      0.00159564  ~
     29    -157.835394453460      0.000001293631      0.00125590      0.00054597      0.00147758      0.00060752  ~
     30    -157.835396074515     -0.000001621055      0.00126291      0.00054490      0.00980232      0.00307409  ~
     31    -157.835375814404      0.000020260111      0.00196691      0.00066017      0.02919048      0.01250209  ~
     32    -157.835082708994      0.000293105410      0.00447475      0.00132244      0.02742146      0.01251443  ~
     33    -157.834651894138      0.000430814856      0.00718350      0.00213783      0.02911588      0.01248214  ~
     34    -157.835272295223     -0.000620401086      0.00310783      0.00086630      0.03352917      0.01247621  ~
     35    -157.835178393374      0.000093901849      0.00389342      0.00137254      0.01814362      0.00728083  ~
     36    -157.835380614418     -0.000202221045      0.00164191      0.00058538      0.00270408      0.00094166  ~
     37    -157.835389251160     -0.000008636741      0.00146367      0.00056133      0.00164629      0.00056366  ~
     38    -157.835391136896     -0.000001885736      0.00135042      0.00056209      0.03195606      0.01247559  ~
     39    -157.835050350080      0.000340786815      0.00566467      0.00199713      0.03545817      0.01249691  ~
     40    -157.834278681282      0.000771668799      0.01255215      0.00297263      0.04176887      0.01254083  ~
     41    -157.835080445982     -0.000801764700      0.00606591      0.00170402      0.03508100      0.01249260  ~
     42    -157.834672696768      0.000407749213      0.00931675      0.00225852      0.02831677      0.01249476  ~
     43    -157.835060610157     -0.000387913389      0.00805262      0.00175477      0.02878032      0.01250193  ~
     44    -157.835001310342      0.000059299816      0.00860370      0.00169588      0.02207774      0.00981366  ~
     45    -157.835363369712     -0.000362059371      0.00139738      0.00059353      0.00644023      0.00231395  ~
     46    -157.835381012486     -0.000017642774      0.00145014      0.00059366      0.00404496      0.00134133  ~
     47    -157.835386147301     -0.000005134815      0.00141050      0.00056496      0.00258504      0.00077461  ~
     48    -157.835389435630     -0.000003288329      0.00138928      0.00056681      0.00073398      0.00032017  ~
     49    -157.835387328642      0.000002106988      0.00137644      0.00056633      0.00123430      0.00039690  ~
     50    -157.835387814504     -0.000000485862      0.00134502      0.00056860      0.00070881      0.00024368  ~
  --------------------------------------------------------------------------------------------------------------- ~

	Writing optimization data to binary file.
			--------------------------
			 OPTKING Finished Execution 
			--------------------------

    Structure for next step:
    Molecular point group: c1
    Full point group: C1

    Geometry (in Angstrom), charge = 0, multiplicity = 1:

    H           -1.773116624603     0.555040424290     0.628507562099
    H           -1.415811245385     2.176423160377     0.034387478762
    H           -1.361985359530     0.807185077804    -1.075895621034
    C           -1.137368510507     1.123406648417    -0.053987609931
    H            0.909714409899     1.592773850923    -0.406754461255
    H            0.530148151232     1.359132004012     1.272642784552
    C            0.342675342077     0.949654250768     0.274335179045
    H            1.839422243782    -0.492839131246    -0.345651846654
    H            1.162582529605    -0.835570957805     1.215872050697
    C            0.895474297157    -0.497398389951     0.209984870862
    H            0.463130623210    -2.525658199502    -0.383986298009
    H           -0.269992488412    -1.316411342967    -1.440661872874
    H           -0.963127639195    -1.638891974980     0.154577262758
    C           -0.026954972095    -1.548886522314    -0.401192610204

	Optimizer: Did not converge!	Cleaning optimization helper files.

*** Psi4 exiting successfully. Buy a developer a beer!
