 Entering Gaussian System, Link 0=g09
 Initial command:
 /softlib/exe/x86_64/pkg/gaussian/09revB.01/dist/g09/l1.exe /zenodotus/hwlab/hwlab_store011/chs2057/Weinsteinlab/parameters/methyl-pyrrol/torsion-scan/run-1/Gau-20542.inp -scrdir=/zenodotus/hwlab/hwlab_store011/chs2057/Weinsteinlab/parameters/methyl-pyrrol/torsion-scan/run-1/
 Entering Link 1 = /softlib/exe/x86_64/pkg/gaussian/09revB.01/dist/g09/l1.exe PID=     20543.
  
 Copyright (c) 1988,1990,1992,1993,1995,1998,2003,2009,2010,
            Gaussian, Inc.  All Rights Reserved.
  
 This is part of the Gaussian(R) 09 program.  It is based on
 the Gaussian(R) 03 system (copyright 2003, Gaussian, Inc.),
 the Gaussian(R) 98 system (copyright 1998, Gaussian, Inc.),
 the Gaussian(R) 94 system (copyright 1995, Gaussian, Inc.),
 the Gaussian 92(TM) system (copyright 1992, Gaussian, Inc.),
 the Gaussian 90(TM) system (copyright 1990, Gaussian, Inc.),
 the Gaussian 88(TM) system (copyright 1988, Gaussian, Inc.),
 the Gaussian 86(TM) system (copyright 1986, Carnegie Mellon
 University), and the Gaussian 82(TM) system (copyright 1983,
 Carnegie Mellon University). Gaussian is a federally registered
 trademark of Gaussian, Inc.
  
 This software contains proprietary and confidential information,
 including trade secrets, belonging to Gaussian, Inc.
  
 This software is provided under written license and may be
 used, copied, transmitted, or stored only in accord with that
 written license.
  
 The following legend is applicable only to US Government
 contracts under FAR:
  
                    RESTRICTED RIGHTS LEGEND
  
 Use, reproduction and disclosure by the US Government is
 subject to restrictions as set forth in subparagraphs (a)
 and (c) of the Commercial Computer Software - Restricted
 Rights clause in FAR 52.227-19.
  
 Gaussian, Inc.
 340 Quinnipiac St., Bldg. 40, Wallingford CT 06492
  
  
 ---------------------------------------------------------------
 Warning -- This program may not be used in any manner that
 competes with the business of Gaussian, Inc. or will provide
 assistance to any competitor of Gaussian, Inc.  The licensee
 of this program is prohibited from giving any competitor of
 Gaussian, Inc. access to this program.  By using this program,
 the user acknowledges that Gaussian, Inc. is engaged in the
 business of creating and licensing software in the field of
 computational chemistry and represents and warrants to the
 licensee that it is not a competitor of Gaussian, Inc. and that
 it will not use this program in any manner prohibited above.
 ---------------------------------------------------------------
  

 Cite this work as:
 Gaussian 09, Revision B.01,
 M. J. Frisch, G. W. Trucks, H. B. Schlegel, G. E. Scuseria, 
 M. A. Robb, J. R. Cheeseman, G. Scalmani, V. Barone, B. Mennucci, 
 G. A. Petersson, H. Nakatsuji, M. Caricato, X. Li, H. P. Hratchian, 
 A. F. Izmaylov, J. Bloino, G. Zheng, J. L. Sonnenberg, M. Hada, 
 M. Ehara, K. Toyota, R. Fukuda, J. Hasegawa, M. Ishida, T. Nakajima, 
 Y. Honda, O. Kitao, H. Nakai, T. Vreven, J. A. Montgomery, Jr., 
 J. E. Peralta, F. Ogliaro, M. Bearpark, J. J. Heyd, E. Brothers, 
 K. N. Kudin, V. N. Staroverov, T. Keith, R. Kobayashi, J. Normand, 
 K. Raghavachari, A. Rendell, J. C. Burant, S. S. Iyengar, J. Tomasi, 
 M. Cossi, N. Rega, J. M. Millam, M. Klene, J. E. Knox, J. B. Cross, 
 V. Bakken, C. Adamo, J. Jaramillo, R. Gomperts, R. E. Stratmann, 
 O. Yazyev, A. J. Austin, R. Cammi, C. Pomelli, J. W. Ochterski, 
 R. L. Martin, K. Morokuma, V. G. Zakrzewski, G. A. Voth, 
 P. Salvador, J. J. Dannenberg, S. Dapprich, A. D. Daniels, 
 O. Farkas, J. B. Foresman, J. V. Ortiz, J. Cioslowski, 
 and D. J. Fox, Gaussian, Inc., Wallingford CT, 2010.
 
 ******************************************
 Gaussian 09:  EM64L-G09RevB.01 12-Aug-2010
                24-Mar-2015 
 ******************************************
 %chk=UNK.scan1.neg.chk
 %nproc=16
 Will use up to   16 processors via shared memory.
 %mem=32GB
 ------------------------------------------------------
 # opt=modredundant B3LYP/cc-pVDZ Geom=PrintInputOrient
 ------------------------------------------------------
 1/14=-1,18=120,19=15,26=3,38=1/1,3;
 2/9=2110,12=2,17=6,18=5,40=1/2;
 3/5=16,11=2,16=1,25=1,30=1,71=1,74=-5/1,2,3;
 4//1;
 5/5=2,38=5/2;
 6/7=2,8=2,9=2,10=2,28=1/1;
 7//1,2,3,16;
 1/14=-1,18=20,19=15/3(2);
 2/9=2110/2;
 99//99;
 2/9=2110/2;
 3/5=16,11=2,16=1,25=1,30=1,71=1,74=-5/1,2,3;
 4/5=5,16=3/1;
 5/5=2,38=5/2;
 7//1,2,3,16;
 1/14=-1,18=20,19=15/3(-5);
 2/9=2110/2;
 6/7=2,8=2,9=2,10=2,19=2,28=1/1;
 99/9=1/99;
 -------------------------------
 UNK Dihedral Scan at MP2/6-31G*
 -------------------------------
 Symbolic Z-matrix:
 Charge =  0 Multiplicity = 1
 N1                    0.175     2.174     0.569 
 C2                   -0.572     1.478    -0.387 
 C3                   -0.135    -0.001    -0.302 
 C4                    0.787     0.019     0.913 
 C5                    0.91      1.281     1.357 
 C6                    0.655    -0.388    -1.574 
 C7                   -1.335    -0.969    -0.133 
 C8                   -2.228    -0.722     1.086 
 C9                   -3.369    -1.737     1.195 
 C10                  -1.478     2.016    -1.222 
 H11                  -0.08      3.101     0.881 
 H12                   1.303    -0.854     1.306 
 H13                   1.509     1.665     2.182 
 H14                   1.038    -1.419    -1.492 
 H15                   0.008    -0.328    -2.465 
 H16                   1.511     0.287    -1.725 
 H17                  -1.949    -0.925    -1.051 
 H18                  -0.93     -1.997    -0.088 
 H19                  -1.612    -0.754     2.002 
 H20                  -2.645     0.298     1.028 
 H21                  -3.999    -1.541     2.077 
 H22                  -4.023    -1.705     0.306 
 H23                  -2.985    -2.768     1.283 
 H24                  -2.011     1.391    -1.938 
 H25                  -1.705     3.085    -1.213 
 
 The following ModRedundant input section has been read:
 D       3       4       5       1 S   6 -15.00                                

 GradGradGradGradGradGradGradGradGradGradGradGradGradGradGradGradGradGrad
 Berny optimization.
 Initialization pass.
                           ----------------------------
                           !    Initial Parameters    !
                           ! (Angstroms and Degrees)  !
 --------------------------                            --------------------------
 ! Name  Definition              Value          Derivative Info.                !
 --------------------------------------------------------------------------------
 ! R1    R(1,2)                  1.3987         estimate D2E/DX2                !
 ! R2    R(1,5)                  1.3995         estimate D2E/DX2                !
 ! R3    R(1,11)                 1.0108         estimate D2E/DX2                !
 ! R4    R(2,3)                  1.5446         estimate D2E/DX2                !
 ! R5    R(2,10)                 1.3444         estimate D2E/DX2                !
 ! R6    R(3,4)                  1.5254         estimate D2E/DX2                !
 ! R7    R(3,6)                  1.5466         estimate D2E/DX2                !
 ! R8    R(3,7)                  1.551          estimate D2E/DX2                !
 ! R9    R(4,5)                  1.3435         estimate D2E/DX2                !
 ! R10   R(4,12)                 1.0876         estimate D2E/DX2                !
 ! R11   R(5,13)                 1.0894         estimate D2E/DX2                !
 ! R12   R(6,14)                 1.1029         estimate D2E/DX2                !
 ! R13   R(6,15)                 1.1028         estimate D2E/DX2                !
 ! R14   R(6,16)                 1.1005         estimate D2E/DX2                !
 ! R15   R(7,8)                  1.5311         estimate D2E/DX2                !
 ! R16   R(7,17)                 1.1053         estimate D2E/DX2                !
 ! R17   R(7,18)                 1.1058         estimate D2E/DX2                !
 ! R18   R(8,9)                  1.531          estimate D2E/DX2                !
 ! R19   R(8,19)                 1.1043         estimate D2E/DX2                !
 ! R20   R(8,20)                 1.1035         estimate D2E/DX2                !
 ! R21   R(9,21)                 1.1015         estimate D2E/DX2                !
 ! R22   R(9,22)                 1.1041         estimate D2E/DX2                !
 ! R23   R(9,23)                 1.1037         estimate D2E/DX2                !
 ! R24   R(10,24)                1.0897         estimate D2E/DX2                !
 ! R25   R(10,25)                1.0929         estimate D2E/DX2                !
 ! A1    A(2,1,5)              110.3538         estimate D2E/DX2                !
 ! A2    A(2,1,11)             122.181          estimate D2E/DX2                !
 ! A3    A(5,1,11)             122.9483         estimate D2E/DX2                !
 ! A4    A(1,2,3)              106.7244         estimate D2E/DX2                !
 ! A5    A(1,2,10)             125.8227         estimate D2E/DX2                !
 ! A6    A(3,2,10)             127.4471         estimate D2E/DX2                !
 ! A7    A(2,3,4)              101.6713         estimate D2E/DX2                !
 ! A8    A(2,3,6)              109.8083         estimate D2E/DX2                !
 ! A9    A(2,3,7)              112.6265         estimate D2E/DX2                !
 ! A10   A(4,3,6)              110.4658         estimate D2E/DX2                !
 ! A11   A(4,3,7)              112.8955         estimate D2E/DX2                !
 ! A12   A(6,3,7)              109.1873         estimate D2E/DX2                !
 ! A13   A(3,4,5)              109.3235         estimate D2E/DX2                !
 ! A14   A(3,4,12)             124.3387         estimate D2E/DX2                !
 ! A15   A(5,4,12)             126.2395         estimate D2E/DX2                !
 ! A16   A(1,5,4)              111.4213         estimate D2E/DX2                !
 ! A17   A(1,5,13)             119.3561         estimate D2E/DX2                !
 ! A18   A(4,5,13)             129.1761         estimate D2E/DX2                !
 ! A19   A(3,6,14)             110.497          estimate D2E/DX2                !
 ! A20   A(3,6,15)             110.5619         estimate D2E/DX2                !
 ! A21   A(3,6,16)             110.8966         estimate D2E/DX2                !
 ! A22   A(14,6,15)            108.3415         estimate D2E/DX2                !
 ! A23   A(14,6,16)            108.2675         estimate D2E/DX2                !
 ! A24   A(15,6,16)            108.1868         estimate D2E/DX2                !
 ! A25   A(3,7,8)              115.9321         estimate D2E/DX2                !
 ! A26   A(3,7,17)             108.3279         estimate D2E/DX2                !
 ! A27   A(3,7,18)             107.5337         estimate D2E/DX2                !
 ! A28   A(8,7,17)             109.3188         estimate D2E/DX2                !
 ! A29   A(8,7,18)             109.3397         estimate D2E/DX2                !
 ! A30   A(17,7,18)            105.9179         estimate D2E/DX2                !
 ! A31   A(7,8,9)              112.6056         estimate D2E/DX2                !
 ! A32   A(7,8,19)             109.291          estimate D2E/DX2                !
 ! A33   A(7,8,20)             109.1272         estimate D2E/DX2                !
 ! A34   A(9,8,19)             109.7214         estimate D2E/DX2                !
 ! A35   A(9,8,20)             109.5677         estimate D2E/DX2                !
 ! A36   A(19,8,20)            106.3304         estimate D2E/DX2                !
 ! A37   A(8,9,21)             111.426          estimate D2E/DX2                !
 ! A38   A(8,9,22)             111.4016         estimate D2E/DX2                !
 ! A39   A(8,9,23)             111.4492         estimate D2E/DX2                !
 ! A40   A(21,9,22)            107.5051         estimate D2E/DX2                !
 ! A41   A(21,9,23)            107.5402         estimate D2E/DX2                !
 ! A42   A(22,9,23)            107.2988         estimate D2E/DX2                !
 ! A43   A(2,10,24)            120.5442         estimate D2E/DX2                !
 ! A44   A(2,10,25)            121.7548         estimate D2E/DX2                !
 ! A45   A(24,10,25)           117.7007         estimate D2E/DX2                !
 ! D1    D(5,1,2,3)             -7.278          estimate D2E/DX2                !
 ! D2    D(5,1,2,10)           173.5469         estimate D2E/DX2                !
 ! D3    D(11,1,2,3)          -164.0358         estimate D2E/DX2                !
 ! D4    D(11,1,2,10)           16.7891         estimate D2E/DX2                !
 ! D5    D(2,1,5,4)              5.1729         estimate D2E/DX2                !
 ! D6    D(2,1,5,13)          -177.0826         estimate D2E/DX2                !
 ! D7    D(11,1,5,4)           161.7192         estimate D2E/DX2                !
 ! D8    D(11,1,5,13)          -20.5364         estimate D2E/DX2                !
 ! D9    D(1,2,3,4)              6.4393         estimate D2E/DX2                !
 ! D10   D(1,2,3,6)           -110.554          estimate D2E/DX2                !
 ! D11   D(1,2,3,7)            127.5364         estimate D2E/DX2                !
 ! D12   D(10,2,3,4)          -174.4032         estimate D2E/DX2                !
 ! D13   D(10,2,3,6)            68.6035         estimate D2E/DX2                !
 ! D14   D(10,2,3,7)           -53.3061         estimate D2E/DX2                !
 ! D15   D(1,2,10,24)          179.8457         estimate D2E/DX2                !
 ! D16   D(1,2,10,25)            0.0464         estimate D2E/DX2                !
 ! D17   D(3,2,10,24)            0.8409         estimate D2E/DX2                !
 ! D18   D(3,2,10,25)         -178.9584         estimate D2E/DX2                !
 ! D19   D(2,3,4,5)             -3.5881         estimate D2E/DX2                !
 ! D20   D(2,3,4,12)           179.825          estimate D2E/DX2                !
 ! D21   D(6,3,4,5)            112.927          estimate D2E/DX2                !
 ! D22   D(6,3,4,12)           -63.66           estimate D2E/DX2                !
 ! D23   D(7,3,4,5)           -124.4974         estimate D2E/DX2                !
 ! D24   D(7,3,4,12)            58.9157         estimate D2E/DX2                !
 ! D25   D(2,3,6,14)           175.733          estimate D2E/DX2                !
 ! D26   D(2,3,6,15)           -64.3309         estimate D2E/DX2                !
 ! D27   D(2,3,6,16)            55.6718         estimate D2E/DX2                !
 ! D28   D(4,3,6,14)            64.3914         estimate D2E/DX2                !
 ! D29   D(4,3,6,15)          -175.6725         estimate D2E/DX2                !
 ! D30   D(4,3,6,16)           -55.6698         estimate D2E/DX2                !
 ! D31   D(7,3,6,14)           -60.328          estimate D2E/DX2                !
 ! D32   D(7,3,6,15)            59.6081         estimate D2E/DX2                !
 ! D33   D(7,3,6,16)           179.6108         estimate D2E/DX2                !
 ! D34   D(2,3,7,8)            -57.6717         estimate D2E/DX2                !
 ! D35   D(2,3,7,17)            65.5993         estimate D2E/DX2                !
 ! D36   D(2,3,7,18)           179.6567         estimate D2E/DX2                !
 ! D37   D(4,3,7,8)             56.7806         estimate D2E/DX2                !
 ! D38   D(4,3,7,17)          -179.9484         estimate D2E/DX2                !
 ! D39   D(4,3,7,18)           -65.891          estimate D2E/DX2                !
 ! D40   D(6,3,7,8)           -179.9321         estimate D2E/DX2                !
 ! D41   D(6,3,7,17)           -56.661          estimate D2E/DX2                !
 ! D42   D(6,3,7,18)            57.3964         estimate D2E/DX2                !
 ! D43   D(3,4,5,1)             -0.6047         Scan                            !
 ! D44   D(3,4,5,13)          -178.0685         estimate D2E/DX2                !
 ! D45   D(12,4,5,1)           175.901          estimate D2E/DX2                !
 ! D46   D(12,4,5,13)           -1.5628         estimate D2E/DX2                !
 ! D47   D(3,7,8,9)           -178.7834         estimate D2E/DX2                !
 ! D48   D(3,7,8,19)           -56.5741         estimate D2E/DX2                !
 ! D49   D(3,7,8,20)            59.3194         estimate D2E/DX2                !
 ! D50   D(17,7,8,9)            58.4655         estimate D2E/DX2                !
 ! D51   D(17,7,8,19)         -179.3252         estimate D2E/DX2                !
 ! D52   D(17,7,8,20)          -63.4317         estimate D2E/DX2                !
 ! D53   D(18,7,8,9)           -57.0682         estimate D2E/DX2                !
 ! D54   D(18,7,8,19)           65.1411         estimate D2E/DX2                !
 ! D55   D(18,7,8,20)         -178.9654         estimate D2E/DX2                !
 ! D56   D(7,8,9,21)          -179.949          estimate D2E/DX2                !
 ! D57   D(7,8,9,22)           -59.8926         estimate D2E/DX2                !
 ! D58   D(7,8,9,23)            59.9175         estimate D2E/DX2                !
 ! D59   D(19,8,9,21)           58.0849         estimate D2E/DX2                !
 ! D60   D(19,8,9,22)          178.1414         estimate D2E/DX2                !
 ! D61   D(19,8,9,23)          -62.0486         estimate D2E/DX2                !
 ! D62   D(20,8,9,21)          -58.3016         estimate D2E/DX2                !
 ! D63   D(20,8,9,22)           61.7549         estimate D2E/DX2                !
 ! D64   D(20,8,9,23)         -178.4351         estimate D2E/DX2                !
 --------------------------------------------------------------------------------
 Trust Radius=3.00D-01 FncErr=1.00D-07 GrdErr=1.00D-06
 Number of optimizations in scan=   7
 Number of steps in this run=    144 maximum allowed number of steps=    150.
 GradGradGradGradGradGradGradGradGradGradGradGradGradGradGradGradGradGrad

                          Input orientation:                          
 ---------------------------------------------------------------------
 Center     Atomic      Atomic             Coordinates (Angstroms)
 Number     Number       Type             X           Y           Z
 ---------------------------------------------------------------------
      1          7           0        0.175000    2.174000    0.569000
      2          6           0       -0.572000    1.478000   -0.387000
      3          6           0       -0.135000   -0.001000   -0.302000
      4          6           0        0.787000    0.019000    0.913000
      5          6           0        0.910000    1.281000    1.357000
      6          6           0        0.655000   -0.388000   -1.574000
      7          6           0       -1.335000   -0.969000   -0.133000
      8          6           0       -2.228000   -0.722000    1.086000
      9          6           0       -3.369000   -1.737000    1.195000
     10          6           0       -1.478000    2.016000   -1.222000
     11          1           0       -0.080000    3.101000    0.881000
     12          1           0        1.303000   -0.854000    1.306000
     13          1           0        1.509000    1.665000    2.182000
     14          1           0        1.038000   -1.419000   -1.492000
     15          1           0        0.008000   -0.328000   -2.465000
     16          1           0        1.511000    0.287000   -1.725000
     17          1           0       -1.949000   -0.925000   -1.051000
     18          1           0       -0.930000   -1.997000   -0.088000
     19          1           0       -1.612000   -0.754000    2.002000
     20          1           0       -2.645000    0.298000    1.028000
     21          1           0       -3.999000   -1.541000    2.077000
     22          1           0       -4.023000   -1.705000    0.306000
     23          1           0       -2.985000   -2.768000    1.283000
     24          1           0       -2.011000    1.391000   -1.938000
     25          1           0       -1.705000    3.085000   -1.213000
 ---------------------------------------------------------------------
                    Distance matrix (angstroms):
                    1          2          3          4          5
     1  N    0.000000
     2  C    1.398700   0.000000
     3  C    2.363338   1.544550   0.000000
     4  C    2.266474   2.380244   1.525355   0.000000
     5  C    1.399506   2.297100   2.342612   1.343469   0.000000
     6  C    3.374417   2.529121   1.546562   2.523538   3.382506
     7  C    3.556874   2.575751   1.550995   2.563814   3.510360
     8  C    3.798488   3.122830   2.612859   3.109539   3.732626
     9  C    5.314860   4.545565   3.964021   4.520553   5.238741
    10  C    2.442346   1.344435   2.591976   3.698170   3.590823
    11  H    1.010791   2.117550   3.320379   3.201787   2.125812
    12  H    3.314263   3.438037   2.319723   1.087582   2.171468
    13  H    2.154160   3.311388   3.412997   2.200218   1.089441
    14  H    4.231092   3.493671   2.191518   2.813338   3.927236
    15  H    3.936121   2.813560   2.192247   3.483982   4.243839
    16  H    3.257008   2.747292   2.194810   2.748644   3.293624
    17  H    4.091403   2.848058   2.169187   3.497732   4.340366
    18  H    4.364621   3.506165   2.159129   2.830962   4.027271
    19  H    3.717532   3.430852   2.838477   2.745660   3.304199
    20  H    3.417961   2.773437   2.856291   3.445242   3.703047
    21  H    5.787708   5.189411   4.791841   5.166652   5.707921
    22  H    5.721802   4.745644   4.288336   5.145554   5.861338
    23  H    5.909210   5.161394   4.276799   4.704493   5.618799
    24  H    3.417124   2.117520   2.851935   4.223670   4.404698
    25  H    2.745878   2.132701   3.580254   4.486680   4.086263
                    6          7          8          9         10
     6  C    0.000000
     7  C    2.524706   0.000000
     8  C    3.936857   1.531149   0.000000
     9  C    5.067518   2.547658   1.531009   0.000000
    10  C    3.233080   3.180660   3.658689   4.847966   0.000000
    11  H    4.329015   4.378141   4.389904   5.858529   2.748497
    12  H    2.988555   3.007156   3.540309   4.756006   4.728810
    13  H    4.364821   4.515032   4.567729   6.028487   4.542311
    14  H    1.102893   2.771373   4.218844   5.171338   4.266425
    15  H    1.102765   2.766361   4.214799   5.175424   3.040984
    16  H    1.100528   3.494527   4.785386   6.036338   3.489494
    17  H    2.709744   1.105285   2.164675   2.778536   2.983381
    18  H    2.703572   1.105818   2.165342   2.768106   4.205999
    19  H    4.249826   2.163603   1.104326   2.169006   4.252650
    20  H    4.258051   2.160859   1.103473   2.166400   3.062011
    21  H    6.026519   3.508302   2.188443   1.101472   5.467275
    22  H    5.210813   2.821305   2.190140   1.104111   4.760005
    23  H    5.203503   2.822048   2.190428   1.103703   5.606490
    24  H    3.225662   3.047064   3.695461   4.630792   1.089665
    25  H    4.214457   4.211676   4.477966   5.640837   1.092873
                   11         12         13         14         15
    11  H    0.000000
    12  H    4.211335   0.000000
    13  H    2.505917   2.674915   0.000000
    14  H    5.226036   2.866750   4.819873   0.000000
    15  H    4.791816   4.021709   5.274434   1.788270   0.000000
    16  H    4.152242   3.245321   4.142890   1.785624   1.784610
    17  H    4.840915   4.016963   5.396124   3.059524   2.487097
    18  H    5.258428   2.869839   4.950946   2.485623   3.052136
    19  H    4.297056   2.998606   3.952797   4.435399   4.770741
    20  H    3.802321   4.122025   4.522844   4.781525   4.430726
    21  H    6.191699   5.401631   6.373972   6.174465   6.177150
    22  H    6.243037   5.485478   6.743834   5.378505   5.081686
    23  H    6.560929   4.695835   6.376184   5.070005   5.381371
    24  H    3.820945   5.152296   5.425852   4.170302   2.703526
    25  H    2.650607   5.559599   4.885921   5.280900   4.018761
                   16         17         18         19         20
    16  H    0.000000
    17  H    3.727576   0.000000
    18  H    3.722218   1.764912   0.000000
    19  H    4.972659   3.076300   2.525524   0.000000
    20  H    4.985124   2.510455   3.074688   1.767051   0.000000
    21  H    6.939516   3.790295   3.783374   2.514511   2.513093
    22  H    6.222393   2.598331   3.131637   3.097376   2.536174
    23  H    6.212496   3.149206   2.587877   2.541316   3.095316
    24  H    3.697116   2.480820   4.008691   4.503757   3.223936
    25  H    4.293437   4.020682   5.262411   5.008273   3.697709
                   21         22         23         24         25
    21  H    0.000000
    22  H    1.778739   0.000000
    23  H    1.778809   1.778185   0.000000
    24  H    5.354343   4.320752   5.349841   0.000000
    25  H    6.122615   5.533948   6.490456   1.867859   0.000000
 Stoichiometry    C9H15N
 Framework group  C1[X(C9H15N)]
 Deg. of freedom    69
 Full point group                 C1      NOp   1
 Largest Abelian subgroup         C1      NOp   1
 Largest concise Abelian subgroup C1      NOp   1
                         Standard orientation:                         
 ---------------------------------------------------------------------
 Center     Atomic      Atomic             Coordinates (Angstroms)
 Number     Number       Type             X           Y           Z
 ---------------------------------------------------------------------
      1          7           0       -1.833592   -0.179319   -1.157836
      2          6           0       -1.036564    0.734254   -0.460345
      3          6           0       -0.368844   -0.047712    0.692180
      4          6           0       -0.796419   -1.478786    0.382477
      5          6           0       -1.617891   -1.477132   -0.680580
      6          6           0       -0.957179    0.411289    2.046814
      7          6           0        1.171781    0.129270    0.719359
      8          6           0        1.915387   -0.280196   -0.554928
      9          6           0        3.431267   -0.102394   -0.434598
     10          6           0       -0.905697    2.041774   -0.744544
     11          1           0       -2.189038    0.013790   -2.084154
     12          1           0       -0.517717   -2.344904    0.978294
     13          1           0       -2.130849   -2.312869   -1.155237
     14          1           0       -0.543880   -0.192718    2.871879
     15          1           0       -0.713631    1.470048    2.236030
     16          1           0       -2.052417    0.303873    2.055689
     17          1           0        1.396139    1.186716    0.949855
     18          1           0        1.559354   -0.456183    1.573680
     19          1           0        1.681305   -1.333169   -0.791546
     20          1           0        1.539033    0.319127   -1.401582
     21          1           0        3.946277   -0.401417   -1.361200
     22          1           0        3.698637    0.949249   -0.230585
     23          1           0        3.845102   -0.711640    0.387424
     24          1           0       -0.260146    2.678029   -0.139719
     25          1           0       -1.438072    2.505089   -1.578982
 ---------------------------------------------------------------------
 Rotational constants (GHZ):      1.7864779      0.9498664      0.9387179
 Standard basis: CC-pVDZ (5D, 7F)
 There are   215 symmetry adapted basis functions of A   symmetry.
 Integral buffers will be    131072 words long.
 Raffenetti 2 integral format.
 Two-electron integral symmetry is turned on.
   215 basis functions,   435 primitive gaussians,   225 cartesian basis functions
    38 alpha electrons       38 beta electrons
       nuclear repulsion energy       543.3563678198 Hartrees.
 NAtoms=   25 NActive=   25 NUniq=   25 SFac= 1.00D+00 NAtFMM=   50 NAOKFM=F Big=F
 One-electron integrals computed using PRISM.
 NBasis=   215 RedAO= T  NBF=   215
 NBsUse=   215 1.00D-06 NBFU=   215
 Harris functional with IExCor=  402 diagonalized for initial guess.
 ExpMin= 1.22D-01 ExpMax= 9.05D+03 ExpMxC= 3.09D+02 IAcc=1 IRadAn=         1 AccDes= 0.00D+00
 HarFok:  IExCor=  402 AccDes= 0.00D+00 IRadAn=         1 IDoV= 1
 ScaDFX=  1.000000  1.000000  1.000000  1.000000
 FoFCou: FMM=F IPFlag=           0 FMFlag=      100000 FMFlg1=           0
         NFxFlg=           0 DoJE=T BraDBF=F KetDBF=T FulRan=T
         Omega=  0.000000  0.000000  1.000000  0.000000  0.000000 ICntrl=     500 IOpCl=  0
         NMat0=    1 NMatS0=    1 NMatT0=    0 NMatD0=    1 NMtDS0=    0 NMtDT0=    0
         I1Cent=           4 NGrid=           0.
 Petite list used in FoFCou.
 Initial guess orbital symmetries:
       Occupied  (A) (A) (A) (A) (A) (A) (A) (A) (A) (A) (A) (A)
                 (A) (A) (A) (A) (A) (A) (A) (A) (A) (A) (A) (A)
                 (A) (A) (A) (A) (A) (A) (A) (A) (A) (A) (A) (A)
                 (A) (A)
       Virtual   (A) (A) (A) (A) (A) (A) (A) (A) (A) (A) (A) (A)
                 (A) (A) (A) (A) (A) (A) (A) (A) (A) (A) (A) (A)
                 (A) (A) (A) (A) (A) (A) (A) (A) (A) (A) (A) (A)
                 (A) (A) (A) (A) (A) (A) (A) (A) (A) (A) (A) (A)
                 (A) (A) (A) (A) (A) (A) (A) (A) (A) (A) (A) (A)
                 (A) (A) (A) (A) (A) (A) (A) (A) (A) (A) (A) (A)
                 (A) (A) (A) (A) (A) (A) (A) (A) (A) (A) (A) (A)
                 (A) (A) (A) (A) (A) (A) (A) (A) (A) (A) (A) (A)
                 (A) (A) (A) (A) (A) (A) (A) (A) (A) (A) (A) (A)
                 (A) (A) (A) (A) (A) (A) (A) (A) (A) (A) (A) (A)
                 (A) (A) (A) (A) (A) (A) (A) (A) (A) (A) (A) (A)
                 (A) (A) (A) (A) (A) (A) (A) (A) (A) (A) (A) (A)
                 (A) (A) (A) (A) (A) (A) (A) (A) (A) (A) (A) (A)
                 (A) (A) (A) (A) (A) (A) (A) (A) (A) (A) (A) (A)
                 (A) (A) (A) (A) (A) (A) (A) (A) (A)
 The electronic state of the initial guess is 1-A.
 Requested convergence on RMS density matrix=1.00D-08 within 128 cycles.
 Requested convergence on MAX density matrix=1.00D-06.
 Requested convergence on             energy=1.00D-06.
 No special actions if energy rises.
 Keep R1 ints in memory in canonical form, NReq=329386040.
 Integral accuracy reduced to 1.0D-05 until final iterations.
 Initial convergence to 1.0D-05 achieved.  Increase integral accuracy.
 SCF Done:  E(RB3LYP) =  -406.725058075     A.U. after   14 cycles
             Convg  =    0.4059D-08             -V/T =  2.0079

 **********************************************************************

            Population analysis using the SCF density.

 **********************************************************************

 Orbital symmetries:
       Occupied  (A) (A) (A) (A) (A) (A) (A) (A) (A) (A) (A) (A)
                 (A) (A) (A) (A) (A) (A) (A) (A) (A) (A) (A) (A)
                 (A) (A) (A) (A) (A) (A) (A) (A) (A) (A) (A) (A)
                 (A) (A)
       Virtual   (A) (A) (A) (A) (A) (A) (A) (A) (A) (A) (A) (A)
                 (A) (A) (A) (A) (A) (A) (A) (A) (A) (A) (A) (A)
                 (A) (A) (A) (A) (A) (A) (A) (A) (A) (A) (A) (A)
                 (A) (A) (A) (A) (A) (A) (A) (A) (A) (A) (A) (A)
                 (A) (A) (A) (A) (A) (A) (A) (A) (A) (A) (A) (A)
                 (A) (A) (A) (A) (A) (A) (A) (A) (A) (A) (A) (A)
                 (A) (A) (A) (A) (A) (A) (A) (A) (A) (A) (A) (A)
                 (A) (A) (A) (A) (A) (A) (A) (A) (A) (A) (A) (A)
                 (A) (A) (A) (A) (A) (A) (A) (A) (A) (A) (A) (A)
                 (A) (A) (A) (A) (A) (A) (A) (A) (A) (A) (A) (A)
                 (A) (A) (A) (A) (A) (A) (A) (A) (A) (A) (A) (A)
                 (A) (A) (A) (A) (A) (A) (A) (A) (A) (A) (A) (A)
                 (A) (A) (A) (A) (A) (A) (A) (A) (A) (A) (A) (A)
                 (A) (A) (A) (A) (A) (A) (A) (A) (A) (A) (A) (A)
                 (A) (A) (A) (A) (A) (A) (A) (A) (A)
 The electronic state is 1-A.
 Alpha  occ. eigenvalues --  -14.35067 -10.21774 -10.21724 -10.20057 -10.17830
 Alpha  occ. eigenvalues --  -10.17577 -10.17272 -10.17236 -10.16654 -10.15768
 Alpha  occ. eigenvalues --   -0.95672  -0.81265  -0.76088  -0.75694  -0.69577
 Alpha  occ. eigenvalues --   -0.67109  -0.62935  -0.58350  -0.57356  -0.53318
 Alpha  occ. eigenvalues --   -0.50172  -0.45833  -0.43832  -0.43254  -0.42289
 Alpha  occ. eigenvalues --   -0.41766  -0.40556  -0.38733  -0.38457  -0.37195
 Alpha  occ. eigenvalues --   -0.36676  -0.34509  -0.32802  -0.31906  -0.31458
 Alpha  occ. eigenvalues --   -0.31307  -0.25947  -0.18142
 Alpha virt. eigenvalues --    0.01177   0.05271   0.06399   0.06863   0.08402
 Alpha virt. eigenvalues --    0.08622   0.10932   0.11676   0.12259   0.12589
 Alpha virt. eigenvalues --    0.13539   0.14244   0.14754   0.15838   0.16294
 Alpha virt. eigenvalues --    0.16957   0.19422   0.20808   0.21121   0.22509
 Alpha virt. eigenvalues --    0.24431   0.25893   0.26832   0.27960   0.34100
 Alpha virt. eigenvalues --    0.34613   0.37249   0.39400   0.41766   0.42514
 Alpha virt. eigenvalues --    0.42616   0.43260   0.45227   0.45416   0.49142
 Alpha virt. eigenvalues --    0.50784   0.51209   0.53270   0.54029   0.54577
 Alpha virt. eigenvalues --    0.56860   0.58055   0.59823   0.60646   0.61855
 Alpha virt. eigenvalues --    0.62674   0.62990   0.64146   0.65002   0.66014
 Alpha virt. eigenvalues --    0.66570   0.66777   0.67496   0.68355   0.69595
 Alpha virt. eigenvalues --    0.69814   0.70753   0.71549   0.71779   0.72943
 Alpha virt. eigenvalues --    0.73507   0.74688   0.75497   0.76444   0.78745
 Alpha virt. eigenvalues --    0.82430   0.83948   0.86746   0.88197   0.90556
 Alpha virt. eigenvalues --    0.92387   0.94418   0.97245   0.99822   1.01933
 Alpha virt. eigenvalues --    1.04309   1.06826   1.07878   1.08612   1.10957
 Alpha virt. eigenvalues --    1.13087   1.17741   1.20592   1.21949   1.22994
 Alpha virt. eigenvalues --    1.25586   1.26478   1.30364   1.33924   1.37736
 Alpha virt. eigenvalues --    1.39019   1.40926   1.42727   1.43447   1.43977
 Alpha virt. eigenvalues --    1.47743   1.48200   1.49425   1.50657   1.51604
 Alpha virt. eigenvalues --    1.51942   1.52825   1.56749   1.58355   1.59102
 Alpha virt. eigenvalues --    1.61412   1.62753   1.63176   1.63976   1.64640
 Alpha virt. eigenvalues --    1.65556   1.66106   1.67341   1.68512   1.69102
 Alpha virt. eigenvalues --    1.69728   1.70845   1.71983   1.73986   1.74600
 Alpha virt. eigenvalues --    1.74616   1.75859   1.76171   1.77707   1.78448
 Alpha virt. eigenvalues --    1.81380   1.82569   1.84154   1.85500   1.86169
 Alpha virt. eigenvalues --    1.89904   1.91731   1.92785   1.94076   1.95670
 Alpha virt. eigenvalues --    1.98583   1.99829   2.02613   2.03320   2.05768
 Alpha virt. eigenvalues --    2.08113   2.09981   2.12264   2.13301   2.17171
 Alpha virt. eigenvalues --    2.19289   2.20217   2.22360   2.22745   2.24136
 Alpha virt. eigenvalues --    2.28122   2.29344   2.30859   2.33325   2.36599
 Alpha virt. eigenvalues --    2.37482   2.40068   2.41904   2.42409   2.44083
 Alpha virt. eigenvalues --    2.44838   2.45616   2.47928   2.50866   2.52623
 Alpha virt. eigenvalues --    2.53560   2.56507   2.57649   2.59632   2.65611
 Alpha virt. eigenvalues --    2.68255   2.70460   2.73199   2.74394   2.96517
 Alpha virt. eigenvalues --    3.01356   3.34646
          Condensed to atoms (all electrons):
              1          2          3          4          5          6
     1  N    6.137914   0.418220  -0.055652  -0.049767   0.399133   0.000931
     2  C    0.418220   4.774031   0.286889  -0.060699  -0.085503  -0.051235
     3  C   -0.055652   0.286889   5.093629   0.363588  -0.034425   0.427042
     4  C   -0.049767  -0.060699   0.363588   4.899146   0.586361  -0.061126
     5  C    0.399133  -0.085503  -0.034425   0.586361   4.722292   0.002188
     6  C    0.000931  -0.051235   0.427042  -0.061126   0.002188   4.525152
     7  C    0.002003  -0.052792   0.407471  -0.059173   0.003850  -0.036354
     8  C    0.001775  -0.011933  -0.036512  -0.015823   0.000091   0.005576
     9  C    0.000010   0.000111   0.004449   0.000153  -0.000002  -0.000229
    10  C   -0.066765   0.694333  -0.084288   0.009103   0.004938  -0.006784
    11  H    0.371022  -0.027111   0.011959   0.006939  -0.036944  -0.000318
    12  H    0.004563   0.009638  -0.047831   0.404302  -0.048569  -0.002503
    13  H   -0.032770   0.003086   0.008192  -0.039921   0.388821  -0.000205
    14  H   -0.000155   0.006940  -0.017695  -0.003608  -0.000782   0.370957
    15  H   -0.000286  -0.005196  -0.017142   0.008416  -0.000134   0.369115
    16  H    0.000707  -0.003491  -0.015164  -0.003310   0.003210   0.374524
    17  H   -0.000153  -0.011549  -0.014917   0.008534  -0.000473  -0.004972
    18  H   -0.000288   0.008448  -0.016662  -0.008490   0.000002  -0.004999
    19  H   -0.000939  -0.002054  -0.008682   0.017007   0.000833   0.000548
    20  H   -0.001911   0.012052  -0.009006  -0.001528   0.001122   0.000537
    21  H    0.000000  -0.000002  -0.000355   0.000007   0.000006   0.000007
    22  H    0.000000  -0.000063   0.000413   0.000012  -0.000007  -0.000004
    23  H   -0.000001   0.000014   0.000465  -0.000077   0.000007  -0.000008
    24  H    0.005120   0.017437  -0.018494   0.000548  -0.000087  -0.000229
    25  H   -0.011809   0.029500   0.010108  -0.000672   0.000072   0.000052
              7          8          9         10         11         12
     1  N    0.002003   0.001775   0.000010  -0.066765   0.371022   0.004563
     2  C   -0.052792  -0.011933   0.000111   0.694333  -0.027111   0.009638
     3  C    0.407471  -0.036512   0.004449  -0.084288   0.011959  -0.047831
     4  C   -0.059173  -0.015823   0.000153   0.009103   0.006939   0.404302
     5  C    0.003850   0.000091  -0.000002   0.004938  -0.036944  -0.048569
     6  C   -0.036354   0.005576  -0.000229  -0.006784  -0.000318  -0.002503
     7  C    4.607834   0.447389  -0.037628  -0.005276  -0.000368  -0.002552
     8  C    0.447389   4.580377   0.448277  -0.004334   0.000089  -0.000577
     9  C   -0.037628   0.448277   4.504896  -0.000064  -0.000001  -0.000018
    10  C   -0.005276  -0.004334  -0.000064   4.767291  -0.012852  -0.000223
    11  H   -0.000368   0.000089  -0.000001  -0.012852   0.613100  -0.000188
    12  H   -0.002552  -0.000577  -0.000018  -0.000223  -0.000188   0.726757
    13  H   -0.000199   0.000013   0.000000  -0.000604  -0.005100  -0.007103
    14  H   -0.004522   0.000227  -0.000011   0.000165   0.000038   0.002909
    15  H   -0.003778   0.000266  -0.000007   0.004284   0.000016  -0.000150
    16  H    0.006070  -0.000342   0.000007   0.000508  -0.000079  -0.000189
    17  H    0.354238  -0.029826  -0.004870   0.003786  -0.000018  -0.000151
    18  H    0.353725  -0.030725  -0.005452   0.000078   0.000028   0.002400
    19  H   -0.024824   0.363174  -0.025823   0.000622  -0.000048   0.000700
    20  H   -0.023386   0.364200  -0.024961   0.007149   0.000002  -0.000017
    21  H    0.004323  -0.010246   0.374234   0.000008   0.000000  -0.000003
    22  H   -0.004643  -0.024296   0.386239   0.000041   0.000000   0.000001
    23  H   -0.004662  -0.024991   0.386341  -0.000007   0.000000  -0.000008
    24  H    0.001384  -0.000236   0.000007   0.360455  -0.000392  -0.000014
    25  H   -0.000035   0.000073  -0.000001   0.328936   0.004757   0.000010
             13         14         15         16         17         18
     1  N   -0.032770  -0.000155  -0.000286   0.000707  -0.000153  -0.000288
     2  C    0.003086   0.006940  -0.005196  -0.003491  -0.011549   0.008448
     3  C    0.008192  -0.017695  -0.017142  -0.015164  -0.014917  -0.016662
     4  C   -0.039921  -0.003608   0.008416  -0.003310   0.008534  -0.008490
     5  C    0.388821  -0.000782  -0.000134   0.003210  -0.000473   0.000002
     6  C   -0.000205   0.370957   0.369115   0.374524  -0.004972  -0.004999
     7  C   -0.000199  -0.004522  -0.003778   0.006070   0.354238   0.353725
     8  C    0.000013   0.000227   0.000266  -0.000342  -0.029826  -0.030725
     9  C    0.000000  -0.000011  -0.000007   0.000007  -0.004870  -0.005452
    10  C   -0.000604   0.000165   0.004284   0.000508   0.003786   0.000078
    11  H   -0.005100   0.000038   0.000016  -0.000079  -0.000018   0.000028
    12  H   -0.007103   0.002909  -0.000150  -0.000189  -0.000151   0.002400
    13  H    0.698534  -0.000017   0.000029  -0.000096   0.000024   0.000002
    14  H   -0.000017   0.691704  -0.027081  -0.029516  -0.001276   0.005101
    15  H    0.000029  -0.027081   0.684585  -0.028245   0.004936  -0.001461
    16  H   -0.000096  -0.029516  -0.028245   0.679642  -0.000002  -0.000016
    17  H    0.000024  -0.001276   0.004936  -0.000002   0.734421  -0.039765
    18  H    0.000002   0.005101  -0.001461  -0.000016  -0.039765   0.740242
    19  H    0.000043  -0.000049  -0.000032   0.000000   0.010969  -0.010169
    20  H    0.000025  -0.000023  -0.000064   0.000002  -0.011253   0.010923
    21  H    0.000000   0.000000   0.000000   0.000000   0.000005   0.000009
    22  H    0.000000   0.000001   0.000003   0.000000   0.007366  -0.001850
    23  H    0.000000   0.000003   0.000003   0.000001  -0.001916   0.007370
    24  H    0.000018  -0.000236   0.002508   0.000152   0.002824  -0.000286
    25  H   -0.000007   0.000020  -0.000250  -0.000021  -0.000125   0.000014
             19         20         21         22         23         24
     1  N   -0.000939  -0.001911   0.000000   0.000000  -0.000001   0.005120
     2  C   -0.002054   0.012052  -0.000002  -0.000063   0.000014   0.017437
     3  C   -0.008682  -0.009006  -0.000355   0.000413   0.000465  -0.018494
     4  C    0.017007  -0.001528   0.000007   0.000012  -0.000077   0.000548
     5  C    0.000833   0.001122   0.000006  -0.000007   0.000007  -0.000087
     6  C    0.000548   0.000537   0.000007  -0.000004  -0.000008  -0.000229
     7  C   -0.024824  -0.023386   0.004323  -0.004643  -0.004662   0.001384
     8  C    0.363174   0.364200  -0.010246  -0.024296  -0.024991  -0.000236
     9  C   -0.025823  -0.024961   0.374234   0.386239   0.386341   0.000007
    10  C    0.000622   0.007149   0.000008   0.000041  -0.000007   0.360455
    11  H   -0.000048   0.000002   0.000000   0.000000   0.000000  -0.000392
    12  H    0.000700  -0.000017  -0.000003   0.000001  -0.000008  -0.000014
    13  H    0.000043   0.000025   0.000000   0.000000   0.000000   0.000018
    14  H   -0.000049  -0.000023   0.000000   0.000001   0.000003  -0.000236
    15  H   -0.000032  -0.000064   0.000000   0.000003   0.000003   0.002508
    16  H    0.000000   0.000002   0.000000   0.000000   0.000001   0.000152
    17  H    0.010969  -0.011253   0.000005   0.007366  -0.001916   0.002824
    18  H   -0.010169   0.010923   0.000009  -0.001850   0.007370  -0.000286
    19  H    0.721503  -0.041702  -0.004598   0.008795  -0.008887  -0.000046
    20  H   -0.041702   0.713296  -0.004538  -0.008917   0.008738   0.000379
    21  H   -0.004598  -0.004538   0.694782  -0.031110  -0.031421  -0.000001
    22  H    0.008795  -0.008917  -0.031110   0.686756  -0.033681  -0.000036
    23  H   -0.008887   0.008738  -0.031421  -0.033681   0.689548   0.000001
    24  H   -0.000046   0.000379  -0.000001  -0.000036   0.000001   0.685472
    25  H    0.000014  -0.000049   0.000000   0.000001   0.000000  -0.057223
             25
     1  N   -0.011809
     2  C    0.029500
     3  C    0.010108
     4  C   -0.000672
     5  C    0.000072
     6  C    0.000052
     7  C   -0.000035
     8  C    0.000073
     9  C   -0.000001
    10  C    0.328936
    11  H    0.004757
    12  H    0.000010
    13  H   -0.000007
    14  H    0.000020
    15  H   -0.000250
    16  H   -0.000021
    17  H   -0.000125
    18  H    0.000014
    19  H    0.000014
    20  H   -0.000049
    21  H    0.000000
    22  H    0.000001
    23  H    0.000000
    24  H   -0.057223
    25  H    0.710079
 Mulliken atomic charges:
              1
     1  N   -0.120902
     2  C    0.050929
     3  C   -0.237377
     4  C    0.000079
     5  C    0.093998
     6  C    0.092335
     7  C    0.071907
     8  C   -0.021684
     9  C   -0.005657
    10  C   -0.000501
    11  H    0.075469
    12  H   -0.041183
    13  H   -0.012765
    14  H    0.006907
    15  H    0.009666
    16  H    0.015649
    17  H   -0.005836
    18  H   -0.008176
    19  H    0.003647
    20  H    0.008930
    21  H    0.008891
    22  H    0.014977
    23  H    0.013167
    24  H    0.000975
    25  H   -0.013445
 Sum of Mulliken atomic charges =   0.00000
 Mulliken charges with hydrogens summed into heavy atoms:
              1
     1  N   -0.045433
     2  C    0.050929
     3  C   -0.237377
     4  C   -0.041103
     5  C    0.081233
     6  C    0.124557
     7  C    0.057895
     8  C   -0.009108
     9  C    0.031378
    10  C   -0.012971
 Sum of Mulliken charges with hydrogens summed into heavy atoms =   0.00000
 Electronic spatial extent (au):  <R**2>=           1589.3563
 Charge=              0.0000 electrons
 Dipole moment (field-independent basis, Debye):
    X=             -0.6168    Y=             -0.8411    Z=             -0.9327  Tot=              1.3992
 Quadrupole moment (field-independent basis, Debye-Ang):
   XX=            -63.3252   YY=            -62.9704   ZZ=            -59.5718
   XY=              1.9041   XZ=              5.1049   YZ=              0.5544
 Traceless Quadrupole moment (field-independent basis, Debye-Ang):
   XX=             -1.3694   YY=             -1.0146   ZZ=              2.3840
   XY=              1.9041   XZ=              5.1049   YZ=              0.5544
 Octapole moment (field-independent basis, Debye-Ang**2):
  XXX=             -9.8325  YYY=             -6.9634  ZZZ=            -13.1703  XYY=             -1.6239
  XXY=             -4.7624  XXZ=            -12.7846  XZZ=            -11.5560  YZZ=             -2.3279
  YYZ=             -1.1659  XYZ=             -1.6914
 Hexadecapole moment (field-independent basis, Debye-Ang**3):
 XXXX=          -1241.7640 YYYY=           -495.4976 ZZZZ=           -468.5866 XXXY=              8.9964
 XXXZ=             30.8023 YYYX=             18.7257 YYYZ=              4.0096 ZZZX=             34.3324
 ZZZY=             -1.7709 XXYY=           -284.7588 XXZZ=           -257.2628 YYZZ=           -161.6501
 XXYZ=              5.2687 YYXZ=             14.5565 ZZXY=             -1.3357
 N-N= 5.433563678198D+02 E-N=-2.028724701271D+03  KE= 4.035241916671D+02
 Calling FoFJK, ICntrl=      2127 FMM=F ISym2X=0 I1Cent= 0 IOpClX= 0 NMat=1 NMatS=1 NMatT=0.
 ***** Axes restored to original set *****
 -------------------------------------------------------------------
 Center     Atomic                   Forces (Hartrees/Bohr)
 Number     Number              X              Y              Z
 -------------------------------------------------------------------
      1        7           0.000054863   -0.000749934   -0.000193460
      2        6           0.000685105    0.000366479    0.000549471
      3        6           0.000060186   -0.000631149    0.000045220
      4        6          -0.000219989    0.001433143    0.000174473
      5        6          -0.000156078   -0.000977926   -0.000556502
      6        6          -0.000362762    0.000190759    0.000174480
      7        6           0.000183949    0.000516702    0.000046971
      8        6           0.000181121   -0.000397565   -0.000006842
      9        6           0.000030463    0.000089668   -0.000500030
     10        6          -0.000590309    0.000653711   -0.000366249
     11        1          -0.000176031    0.000433039    0.000086837
     12        1           0.000179970   -0.000350317    0.000093964
     13        1           0.000067980    0.000103294    0.000147326
     14        1           0.000010953    0.000057243   -0.000066134
     15        1           0.000183310   -0.000056726    0.000072236
     16        1          -0.000015490   -0.000086066   -0.000057718
     17        1          -0.000098056   -0.000035259   -0.000121238
     18        1           0.000026185   -0.000242629    0.000061922
     19        1          -0.000092512    0.000056777   -0.000108084
     20        1          -0.000036456    0.000153100    0.000014920
     21        1          -0.000244217    0.000063569    0.000353193
     22        1           0.000168558   -0.000018275    0.000193986
     23        1           0.000042101   -0.000050280   -0.000005907
     24        1          -0.000036548   -0.000005490   -0.000051780
     25        1           0.000153704   -0.000515868    0.000018946
 -------------------------------------------------------------------
 Cartesian Forces:  Max     0.001433143 RMS     0.000334173

 GradGradGradGradGradGradGradGradGradGradGradGradGradGradGradGradGradGrad
 Berny optimization.
 Internal  Forces:  Max     0.000916365 RMS     0.000146805
 Search for a local minimum.
 Step number   1 out of a maximum of  144 on scan point     1 out of     7
 All quantities printed in internal units (Hartrees-Bohrs-Radians)
 Mixed Optimization -- En-DIIS/RFO-DIIS
 Second derivative matrix not updated -- first step.
 ITU=  0
     Eigenvalues ---    0.00230   0.00230   0.00354   0.00356   0.00729
     Eigenvalues ---    0.01271   0.01585   0.01945   0.02406   0.02824
     Eigenvalues ---    0.02824   0.03167   0.03517   0.04507   0.04703
     Eigenvalues ---    0.04821   0.05432   0.05445   0.05478   0.05515
     Eigenvalues ---    0.05544   0.07934   0.08334   0.08861   0.11803
     Eigenvalues ---    0.12205   0.12584   0.14323   0.15952   0.15984
     Eigenvalues ---    0.16000   0.16000   0.16000   0.16000   0.16000
     Eigenvalues ---    0.16000   0.16000   0.16000   0.18441   0.21897
     Eigenvalues ---    0.21956   0.22361   0.24995   0.27278   0.27567
     Eigenvalues ---    0.27945   0.28811   0.29318   0.29330   0.33047
     Eigenvalues ---    0.33104   0.33208   0.33232   0.33276   0.33301
     Eigenvalues ---    0.33364   0.33378   0.33520   0.33624   0.34483
     Eigenvalues ---    0.34851   0.34877   0.35094   0.42307   0.44009
     Eigenvalues ---    0.45840   0.53902   0.562231000.000001000.00000
     Eigenvalues --- 1000.000001000.000001000.000001000.000001000.00000
     Eigenvalues --- 1000.000001000.000001000.000001000.000001000.00000
     Eigenvalues --- 1000.000001000.000001000.000001000.000001000.00000
     Eigenvalues --- 1000.000001000.000001000.000001000.000001000.00000
     Eigenvalues --- 1000.000001000.000001000.000001000.000001000.00000
     Eigenvalues --- 1000.000001000.000001000.000001000.000001000.00000
     Eigenvalues --- 1000.000001000.000001000.000001000.000001000.00000
     Eigenvalues --- 1000.000001000.000001000.000001000.000001000.00000
     Eigenvalues --- 1000.000001000.000001000.000001000.000001000.00000
     Eigenvalues --- 1000.000001000.000001000.000001000.000001000.00000
     Eigenvalues --- 1000.000001000.000001000.000001000.000001000.00000
     Eigenvalues --- 1000.000001000.000001000.000001000.000001000.00000
     Eigenvalues --- 1000.000001000.000001000.000001000.00000
 RFO step:  Lambda=-7.94048516D-06 EMin= 2.30000000D-03
 Linear search not attempted -- first point.
 Iteration  1 RMS(Cart)=  0.00044696 RMS(Int)=  0.00000022
 Iteration  2 RMS(Cart)=  0.00000026 RMS(Int)=  0.00000012
 Iteration  1 RMS(Cart)=  0.00000001 RMS(Int)=  0.00000001
 Variable       Old X    -DE/DX   Delta X   Delta X   Delta X     New X
                                 (Linear)    (Quad)   (Total)
    R1        2.64316  -0.00038   0.00000  -0.00080  -0.00080   2.64236
    R2        2.64468  -0.00005   0.00000  -0.00025  -0.00025   2.64443
    R3        1.91012   0.00047   0.00000   0.00102   0.00102   1.91114
    R4        2.91878   0.00015   0.00000   0.00077   0.00077   2.91955
    R5        2.54061   0.00062   0.00000   0.00110   0.00110   2.54171
    R6        2.88250  -0.00010   0.00000  -0.00025  -0.00025   2.88226
    R7        2.92258  -0.00022   0.00000  -0.00079  -0.00079   2.92178
    R8        2.93096  -0.00021   0.00000  -0.00078  -0.00078   2.93018
    R9        2.53879  -0.00092   0.00000  -0.00172  -0.00172   2.53707
   R10        2.05523   0.00040   0.00000   0.00114   0.00114   2.05637
   R11        2.05875   0.00019   0.00000   0.00053   0.00053   2.05928
   R12        2.08417  -0.00006   0.00000  -0.00017  -0.00017   2.08400
   R13        2.08392  -0.00017   0.00000  -0.00051  -0.00051   2.08342
   R14        2.07970  -0.00006   0.00000  -0.00017  -0.00017   2.07953
   R15        2.89345  -0.00010   0.00000  -0.00035  -0.00035   2.89310
   R16        2.08869   0.00015   0.00000   0.00047   0.00047   2.08915
   R17        2.08969   0.00024   0.00000   0.00072   0.00072   2.09041
   R18        2.89319  -0.00005   0.00000  -0.00016  -0.00016   2.89302
   R19        2.08687  -0.00014   0.00000  -0.00043  -0.00043   2.08644
   R20        2.08526   0.00015   0.00000   0.00046   0.00046   2.08572
   R21        2.08148   0.00043   0.00000   0.00129   0.00129   2.08277
   R22        2.08647  -0.00026   0.00000  -0.00077  -0.00077   2.08570
   R23        2.08570   0.00006   0.00000   0.00019   0.00019   2.08589
   R24        2.05917   0.00005   0.00000   0.00015   0.00015   2.05932
   R25        2.06523  -0.00054   0.00000  -0.00155  -0.00155   2.06368
    A1        1.92604   0.00005   0.00000   0.00017   0.00017   1.92621
    A2        2.13246  -0.00010   0.00000  -0.00056  -0.00056   2.13190
    A3        2.14585   0.00005   0.00000   0.00040   0.00040   2.14625
    A4        1.86269  -0.00015   0.00000  -0.00016  -0.00016   1.86253
    A5        2.19602   0.00014   0.00000   0.00034   0.00034   2.19636
    A6        2.22437   0.00001   0.00000  -0.00016  -0.00016   2.22421
    A7        1.77450  -0.00011   0.00000  -0.00051  -0.00051   1.77399
    A8        1.91652  -0.00001   0.00000  -0.00057  -0.00057   1.91594
    A9        1.96570   0.00007   0.00000   0.00025   0.00025   1.96595
   A10        1.92799   0.00007   0.00000   0.00049   0.00049   1.92848
   A11        1.97040   0.00005   0.00000   0.00047   0.00047   1.97086
   A12        1.90568  -0.00007   0.00000  -0.00014  -0.00014   1.90553
   A13        1.90806   0.00011   0.00000   0.00051   0.00051   1.90857
   A14        2.17012  -0.00011   0.00000  -0.00062  -0.00062   2.16950
   A15        2.20330   0.00000   0.00000   0.00010   0.00010   2.20340
   A16        1.94467   0.00010   0.00000   0.00011   0.00011   1.94478
   A17        2.08316  -0.00009   0.00000  -0.00033  -0.00033   2.08283
   A18        2.25455   0.00000   0.00000   0.00024   0.00024   2.25479
   A19        1.92854   0.00005   0.00000   0.00025   0.00025   1.92879
   A20        1.92967   0.00014   0.00000   0.00091   0.00091   1.93058
   A21        1.93551   0.00008   0.00000   0.00053   0.00053   1.93604
   A22        1.89092  -0.00010   0.00000  -0.00064  -0.00064   1.89028
   A23        1.88962  -0.00008   0.00000  -0.00065  -0.00065   1.88898
   A24        1.88822  -0.00010   0.00000  -0.00048  -0.00048   1.88774
   A25        2.02340   0.00002   0.00000   0.00016   0.00016   2.02355
   A26        1.89068   0.00001   0.00000   0.00045   0.00045   1.89113
   A27        1.87682   0.00005   0.00000   0.00030   0.00030   1.87712
   A28        1.90797   0.00000   0.00000   0.00011   0.00011   1.90808
   A29        1.90834  -0.00007   0.00000  -0.00087  -0.00087   1.90746
   A30        1.84862   0.00000   0.00000  -0.00017  -0.00017   1.84845
   A31        1.96534   0.00007   0.00000   0.00045   0.00045   1.96579
   A32        1.90749  -0.00001   0.00000   0.00013   0.00013   1.90762
   A33        1.90463  -0.00003   0.00000  -0.00018  -0.00018   1.90445
   A34        1.91500  -0.00001   0.00000   0.00014   0.00014   1.91514
   A35        1.91232  -0.00001   0.00000  -0.00008  -0.00008   1.91224
   A36        1.85582  -0.00001   0.00000  -0.00052  -0.00052   1.85530
   A37        1.94475   0.00003   0.00000   0.00026   0.00026   1.94501
   A38        1.94432  -0.00001   0.00000  -0.00003  -0.00003   1.94429
   A39        1.94516  -0.00004   0.00000  -0.00035  -0.00035   1.94480
   A40        1.87632   0.00001   0.00000   0.00023   0.00023   1.87655
   A41        1.87693   0.00001   0.00000   0.00003   0.00003   1.87696
   A42        1.87272   0.00001   0.00000  -0.00013  -0.00013   1.87258
   A43        2.10389   0.00008   0.00000   0.00048   0.00048   2.10437
   A44        2.12502  -0.00009   0.00000  -0.00055  -0.00055   2.12447
   A45        2.05427   0.00001   0.00000   0.00007   0.00007   2.05433
    D1       -0.12703   0.00003   0.00000   0.00090   0.00090  -0.12612
    D2        3.02897   0.00000   0.00000  -0.00063  -0.00063   3.02833
    D3       -2.86297   0.00001   0.00000   0.00076   0.00076  -2.86221
    D4        0.29303  -0.00002   0.00000  -0.00078  -0.00078   0.29225
    D5        0.09028   0.00000   0.00000  -0.00056  -0.00056   0.08973
    D6       -3.09068   0.00001   0.00000   0.00009   0.00009  -3.09059
    D7        2.82253  -0.00002   0.00000  -0.00067  -0.00067   2.82186
    D8       -0.35843  -0.00001   0.00000  -0.00003  -0.00003  -0.35846
    D9        0.11239  -0.00003   0.00000  -0.00087  -0.00087   0.11152
   D10       -1.92953  -0.00004   0.00000  -0.00093  -0.00093  -1.93046
   D11        2.22593   0.00000   0.00000  -0.00050  -0.00050   2.22543
   D12       -3.04391   0.00000   0.00000   0.00071   0.00071  -3.04320
   D13        1.19736  -0.00001   0.00000   0.00065   0.00065   1.19800
   D14       -0.93037   0.00003   0.00000   0.00107   0.00107  -0.92930
   D15        3.13890   0.00001   0.00000   0.00070   0.00070   3.13960
   D16        0.00081   0.00003   0.00000   0.00135   0.00135   0.00216
   D17        0.01468  -0.00002   0.00000  -0.00115  -0.00115   0.01353
   D18       -3.12341  -0.00001   0.00000  -0.00050  -0.00050  -3.12392
   D19       -0.06262   0.00001   0.00000   0.00053   0.00053  -0.06209
   D20        3.13854   0.00002   0.00000   0.00060   0.00060   3.13914
   D21        1.97095  -0.00003   0.00000  -0.00019  -0.00019   1.97076
   D22       -1.11108  -0.00002   0.00000  -0.00011  -0.00011  -1.11119
   D23       -2.17289  -0.00003   0.00000   0.00032   0.00032  -2.17257
   D24        1.02827  -0.00002   0.00000   0.00039   0.00039   1.02867
   D25        3.06712  -0.00005   0.00000  -0.00062  -0.00062   3.06650
   D26       -1.12279  -0.00005   0.00000  -0.00066  -0.00066  -1.12345
   D27        0.97166  -0.00003   0.00000  -0.00031  -0.00031   0.97135
   D28        1.12384   0.00005   0.00000   0.00004   0.00004   1.12388
   D29       -3.06606   0.00005   0.00000   0.00000   0.00000  -3.06607
   D30       -0.97162   0.00006   0.00000   0.00035   0.00035  -0.97128
   D31       -1.05292  -0.00001   0.00000  -0.00078  -0.00078  -1.05371
   D32        1.04036  -0.00002   0.00000  -0.00083  -0.00083   1.03953
   D33        3.13480   0.00000   0.00000  -0.00048  -0.00048   3.13432
   D34       -1.00656  -0.00001   0.00000  -0.00050  -0.00050  -1.00706
   D35        1.14492   0.00002   0.00000   0.00012   0.00012   1.14504
   D36        3.13560   0.00004   0.00000   0.00030   0.00030   3.13590
   D37        0.99101  -0.00007   0.00000  -0.00068  -0.00068   0.99033
   D38       -3.14069  -0.00005   0.00000  -0.00006  -0.00006  -3.14076
   D39       -1.15002  -0.00002   0.00000   0.00012   0.00012  -1.14990
   D40       -3.14041   0.00001   0.00000   0.00016   0.00016  -3.14024
   D41       -0.98892   0.00003   0.00000   0.00078   0.00078  -0.98814
   D42        1.00176   0.00005   0.00000   0.00096   0.00096   1.00272
   D43       -0.01055   0.00000   0.00000   0.00000   0.00000  -0.01055
   D44       -3.10788  -0.00001   0.00000  -0.00071  -0.00071  -3.10859
   D45        3.07005  -0.00001   0.00000  -0.00010  -0.00010   3.06995
   D46       -0.02728  -0.00003   0.00000  -0.00081  -0.00081  -0.02809
   D47       -3.12036   0.00000   0.00000   0.00002   0.00002  -3.12034
   D48       -0.98741   0.00002   0.00000   0.00059   0.00059  -0.98681
   D49        1.03532  -0.00001   0.00000  -0.00005  -0.00005   1.03527
   D50        1.02042  -0.00003   0.00000  -0.00079  -0.00079   1.01963
   D51       -3.12982  -0.00001   0.00000  -0.00021  -0.00021  -3.13002
   D52       -1.10709  -0.00004   0.00000  -0.00085  -0.00085  -1.10795
   D53       -0.99603   0.00002   0.00000  -0.00016  -0.00016  -0.99619
   D54        1.13693   0.00004   0.00000   0.00041   0.00041   1.13734
   D55       -3.12353   0.00001   0.00000  -0.00023  -0.00023  -3.12377
   D56       -3.14070   0.00000   0.00000  -0.00013  -0.00013  -3.14083
   D57       -1.04532   0.00002   0.00000   0.00032   0.00032  -1.04500
   D58        1.04576   0.00000   0.00000  -0.00011  -0.00011   1.04565
   D59        1.01377  -0.00003   0.00000  -0.00070  -0.00070   1.01307
   D60        3.10915   0.00000   0.00000  -0.00025  -0.00025   3.10890
   D61       -1.08295  -0.00003   0.00000  -0.00068  -0.00068  -1.08364
   D62       -1.01755   0.00000   0.00000  -0.00012  -0.00012  -1.01767
   D63        1.07783   0.00003   0.00000   0.00033   0.00033   1.07816
   D64       -3.11428   0.00000   0.00000  -0.00010  -0.00010  -3.11438
         Item               Value     Threshold  Converged?
 Maximum Force            0.000916     0.000450     NO 
 RMS     Force            0.000147     0.000300     YES
 Maximum Displacement     0.001557     0.001800     YES
 RMS     Displacement     0.000447     0.001200     YES
 Predicted change in Energy=-3.970318D-06
 GradGradGradGradGradGradGradGradGradGradGradGradGradGradGradGradGradGrad

                          Input orientation:                          
 ---------------------------------------------------------------------
 Center     Atomic      Atomic             Coordinates (Angstroms)
 Number     Number       Type             X           Y           Z
 ---------------------------------------------------------------------
      1          7           0        0.174942    2.173645    0.569157
      2          6           0       -0.571418    1.478298   -0.387198
      3          6           0       -0.134876   -0.001241   -0.301830
      4          6           0        0.786977    0.019458    0.913107
      5          6           0        0.909865    1.280569    1.356906
      6          6           0        0.654528   -0.387960   -1.573775
      7          6           0       -1.334725   -0.968814   -0.133102
      8          6           0       -2.227680   -0.722191    1.085776
      9          6           0       -3.368927   -1.736767    1.194915
     10          6           0       -1.478214    2.016349   -1.222239
     11          1           0       -0.080824    3.100957    0.881356
     12          1           0        1.303313   -0.854095    1.306110
     13          1           0        1.508477    1.664774    2.182464
     14          1           0        1.038025   -1.418705   -1.492095
     15          1           0        0.008056   -0.328626   -2.464871
     16          1           0        1.510476    0.286806   -1.725486
     17          1           0       -1.948840   -0.925264   -1.051344
     18          1           0       -0.930012   -1.997310   -0.087497
     19          1           0       -1.611890   -0.753934    2.001651
     20          1           0       -2.644530    0.298144    1.027950
     21          1           0       -3.999163   -1.540817    2.077608
     22          1           0       -4.022644   -1.704692    0.306216
     23          1           0       -2.984851   -2.767871    1.282631
     24          1           0       -2.011430    1.391660   -1.938474
     25          1           0       -1.704635    3.084629   -1.212936
 ---------------------------------------------------------------------
                    Distance matrix (angstroms):
                    1          2          3          4          5
     1  N    0.000000
     2  C    1.398275   0.000000
     3  C    2.363204   1.544958   0.000000
     4  C    2.265703   2.379967   1.525225   0.000000
     5  C    1.399373   2.296779   2.342205   1.342558   0.000000
     6  C    3.374015   2.528602   1.546141   2.523512   3.382022
     7  C    3.556306   2.575958   1.550583   2.563758   3.509705
     8  C    3.798072   3.123301   2.612480   3.109343   3.732124
     9  C    5.314311   4.545963   3.963759   4.520540   5.238188
    10  C    2.442697   1.345017   2.592755   3.698427   3.591139
    11  H    1.011332   2.117294   3.320615   3.201519   2.126364
    12  H    3.314140   3.438308   2.319745   1.088186   2.171214
    13  H    2.154071   3.311177   3.412907   2.199749   1.089723
    14  H    4.230679   3.493384   2.191262   2.813598   3.926743
    15  H    3.936310   2.813803   2.192340   3.484051   4.243671
    16  H    3.257176   2.746807   2.194755   2.749017   3.293849
    17  H    4.091419   2.848770   2.169344   3.498036   4.340225
    18  H    4.364514   3.506888   2.159276   2.831362   4.026902
    19  H    3.716924   3.431041   2.837982   2.745473   3.303656
    20  H    3.417224   2.773662   2.855926   3.444720   3.702309
    21  H    5.787556   5.190353   4.792154   5.166978   5.707731
    22  H    5.721046   4.745863   4.287914   5.145237   5.860493
    23  H    5.908630   5.161680   4.276343   4.704512   5.618202
    24  H    3.417592   2.118395   2.853109   4.224397   4.405205
    25  H    2.745643   2.132211   3.580063   4.485918   4.085869
                    6          7          8          9         10
     6  C    0.000000
     7  C    2.523898   0.000000
     8  C    3.935994   1.530965   0.000000
     9  C    5.066864   2.547814   1.530921   0.000000
    10  C    3.233089   3.180881   3.658993   4.848021   0.000000
    11  H    4.329082   4.377720   4.389447   5.857774   2.748488
    12  H    2.988635   3.007281   3.540319   4.756186   4.729576
    13  H    4.364891   4.514580   4.567187   6.027836   4.542679
    14  H    1.102804   2.771138   4.218457   5.171306   4.266600
    15  H    1.102497   2.765872   4.214321   5.175027   3.041716
    16  H    1.100441   3.493914   4.784880   6.035905   3.489533
    17  H    2.709088   1.105532   2.164780   2.778644   2.983920
    18  H    2.703664   1.106199   2.164818   2.767809   4.206854
    19  H    4.249030   2.163368   1.104098   2.168862   4.252741
    20  H    4.257170   2.160743   1.103717   2.166446   3.062005
    21  H    6.026485   3.509082   2.189071   1.102153   5.467870
    22  H    5.209999   2.821245   2.189730   1.103704   4.759878
    23  H    5.202702   2.822024   2.190174   1.103803   5.606521
    24  H    3.226048   3.047808   3.696108   4.631196   1.089747
    25  H    4.213636   4.211090   4.477671   5.640344   1.092051
                   11         12         13         14         15
    11  H    0.000000
    12  H    4.211732   0.000000
    13  H    2.506268   2.674844   0.000000
    14  H    5.226131   2.866899   4.819912   0.000000
    15  H    4.792408   4.021704   5.274716   1.787568   0.000000
    16  H    4.152988   3.245788   4.143776   1.785062   1.784015
    17  H    4.840999   4.017356   5.396188   3.059265   2.486660
    18  H    5.258529   2.869987   4.950739   2.486131   3.052275
    19  H    4.296442   2.998703   3.952155   4.435113   4.770212
    20  H    3.801295   4.121952   4.521951   4.781151   4.430446
    21  H    6.191161   5.402135   6.373454   6.175027   6.177486
    22  H    6.242035   5.485356   6.742915   5.378297   5.081242
    23  H    6.560300   4.695897   6.375581   5.069801   5.380630
    24  H    3.821044   5.153470   5.426459   4.170920   2.704589
    25  H    2.650110   5.559396   4.885572   5.280164   4.018826
                   16         17         18         19         20
    16  H    0.000000
    17  H    3.726988   0.000000
    18  H    3.722388   1.765302   0.000000
    19  H    4.972309   3.076307   2.524971   0.000000
    20  H    4.984537   2.510811   3.074557   1.766722   0.000000
    21  H    6.939730   3.791184   3.783617   2.514762   2.513681
    22  H    6.221679   2.598296   3.131295   3.096801   2.536030
    23  H    6.211906   3.148961   2.587156   2.541250   3.095339
    24  H    3.697281   2.481744   4.010074   4.504196   3.224324
    25  H    4.292722   4.020571   5.262391   5.007668   3.697225
                   21         22         23         24         25
    21  H    0.000000
    22  H    1.779112   0.000000
    23  H    1.779460   1.777850   0.000000
    24  H    5.355317   4.320996   5.350210   0.000000
    25  H    6.122687   5.533406   6.489881   1.867264   0.000000
 Stoichiometry    C9H15N
 Framework group  C1[X(C9H15N)]
 Deg. of freedom    69
 Full point group                 C1      NOp   1
 Largest Abelian subgroup         C1      NOp   1
 Largest concise Abelian subgroup C1      NOp   1
                         Standard orientation:                         
 ---------------------------------------------------------------------
 Center     Atomic      Atomic             Coordinates (Angstroms)
 Number     Number       Type             X           Y           Z
 ---------------------------------------------------------------------
      1          7           0       -1.833277   -0.179452   -1.157687
      2          6           0       -1.037233    0.734218   -0.460051
      3          6           0       -0.368679   -0.048104    0.692295
      4          6           0       -0.796566   -1.478797    0.381904
      5          6           0       -1.617451   -1.477108   -0.680454
      6          6           0       -0.956730    0.411046    2.046522
      7          6           0        1.171493    0.129216    0.719383
      8          6           0        1.915263   -0.280094   -0.554637
      9          6           0        3.431072   -0.102084   -0.434810
     10          6           0       -0.905894    2.042249   -0.744438
     11          1           0       -2.188367    0.014117   -2.084636
     12          1           0       -0.517689   -2.345345    0.978117
     13          1           0       -2.130124   -2.312970   -1.155846
     14          1           0       -0.543972   -0.192981    2.871725
     15          1           0       -0.713189    1.469370    2.236621
     16          1           0       -2.051920    0.304091    2.055968
     17          1           0        1.396140    1.186742    0.950414
     18          1           0        1.559779   -0.456826    1.573469
     19          1           0        1.681178   -1.332752   -0.791587
     20          1           0        1.538565    0.319224   -1.401458
     21          1           0        3.946414   -0.401394   -1.361944
     22          1           0        3.698211    0.949184   -0.230763
     23          1           0        3.844912   -0.711275    0.387384
     24          1           0       -0.260447    2.678849   -0.139718
     25          1           0       -1.438203    2.504877   -1.578224
 ---------------------------------------------------------------------
 Rotational constants (GHZ):      1.7864955      0.9500246      0.9387895
 Standard basis: CC-pVDZ (5D, 7F)
 There are   215 symmetry adapted basis functions of A   symmetry.
 Integral buffers will be    131072 words long.
 Raffenetti 2 integral format.
 Two-electron integral symmetry is turned on.
   215 basis functions,   435 primitive gaussians,   225 cartesian basis functions
    38 alpha electrons       38 beta electrons
       nuclear repulsion energy       543.3838134451 Hartrees.
 NAtoms=   25 NActive=   25 NUniq=   25 SFac= 1.00D+00 NAtFMM=   50 NAOKFM=F Big=F
 One-electron integrals computed using PRISM.
 NBasis=   215 RedAO= T  NBF=   215
 NBsUse=   215 1.00D-06 NBFU=   215
 Initial guess read from the read-write file.
 B after Tr=     0.000000    0.000000    0.000000
         Rot=    1.000000    0.000000    0.000000    0.000000 Ang=   0.00 deg.
 Initial guess orbital symmetries:
       Occupied  (A) (A) (A) (A) (A) (A) (A) (A) (A) (A) (A) (A)
                 (A) (A) (A) (A) (A) (A) (A) (A) (A) (A) (A) (A)
                 (A) (A) (A) (A) (A) (A) (A) (A) (A) (A) (A) (A)
                 (A) (A)
       Virtual   (A) (A) (A) (A) (A) (A) (A) (A) (A) (A) (A) (A)
                 (A) (A) (A) (A) (A) (A) (A) (A) (A) (A) (A) (A)
                 (A) (A) (A) (A) (A) (A) (A) (A) (A) (A) (A) (A)
                 (A) (A) (A) (A) (A) (A) (A) (A) (A) (A) (A) (A)
                 (A) (A) (A) (A) (A) (A) (A) (A) (A) (A) (A) (A)
                 (A) (A) (A) (A) (A) (A) (A) (A) (A) (A) (A) (A)
                 (A) (A) (A) (A) (A) (A) (A) (A) (A) (A) (A) (A)
                 (A) (A) (A) (A) (A) (A) (A) (A) (A) (A) (A) (A)
                 (A) (A) (A) (A) (A) (A) (A) (A) (A) (A) (A) (A)
                 (A) (A) (A) (A) (A) (A) (A) (A) (A) (A) (A) (A)
                 (A) (A) (A) (A) (A) (A) (A) (A) (A) (A) (A) (A)
                 (A) (A) (A) (A) (A) (A) (A) (A) (A) (A) (A) (A)
                 (A) (A) (A) (A) (A) (A) (A) (A) (A) (A) (A) (A)
                 (A) (A) (A) (A) (A) (A) (A) (A) (A) (A) (A) (A)
                 (A) (A) (A) (A) (A) (A) (A) (A) (A)
 Requested convergence on RMS density matrix=1.00D-08 within 128 cycles.
 Requested convergence on MAX density matrix=1.00D-06.
 Requested convergence on             energy=1.00D-06.
 No special actions if energy rises.
 Keep R1 ints in memory in canonical form, NReq=329386040.
 SCF Done:  E(RB3LYP) =  -406.725062254     A.U. after    8 cycles
             Convg  =    0.2122D-08             -V/T =  2.0079
 Calling FoFJK, ICntrl=      2127 FMM=F ISym2X=0 I1Cent= 0 IOpClX= 0 NMat=1 NMatS=1 NMatT=0.
 ***** Axes restored to original set *****
 -------------------------------------------------------------------
 Center     Atomic                   Forces (Hartrees/Bohr)
 Number     Number              X              Y              Z
 -------------------------------------------------------------------
      1        7          -0.000076832   -0.000005496   -0.000101597
      2        6           0.000016713    0.000217138    0.000125782
      3        6           0.000011282   -0.000249367   -0.000091568
      4        6          -0.000028254    0.000045549    0.000045428
      5        6           0.000059967   -0.000061175    0.000025021
      6        6          -0.000077302    0.000060537    0.000105577
      7        6           0.000058899    0.000108085    0.000018851
      8        6          -0.000017678   -0.000060148   -0.000007567
      9        6           0.000000982    0.000034245   -0.000027652
     10        6          -0.000033570   -0.000053491   -0.000032823
     11        1          -0.000005823   -0.000004310   -0.000022489
     12        1          -0.000010119   -0.000010911   -0.000032977
     13        1          -0.000012689    0.000017310   -0.000007823
     14        1           0.000023616   -0.000026673   -0.000024234
     15        1           0.000012609   -0.000008640   -0.000010611
     16        1           0.000024779   -0.000011327   -0.000024951
     17        1           0.000006022   -0.000013902    0.000003920
     18        1          -0.000002897   -0.000030954   -0.000007442
     19        1          -0.000000343    0.000015978    0.000005185
     20        1          -0.000005958    0.000027801    0.000012398
     21        1           0.000013746   -0.000003709   -0.000000191
     22        1          -0.000001421   -0.000000166    0.000008929
     23        1          -0.000001918   -0.000009375    0.000015179
     24        1           0.000028352   -0.000008949    0.000011305
     25        1           0.000017838    0.000031950    0.000014351
 -------------------------------------------------------------------
 Cartesian Forces:  Max     0.000249367 RMS     0.000054408

 GradGradGradGradGradGradGradGradGradGradGradGradGradGradGradGradGradGrad
 Berny optimization.
 Using GEDIIS/GDIIS optimizer.
 Internal  Forces:  Max     0.000123020 RMS     0.000021979
 Search for a local minimum.
 Step number   2 out of a maximum of  144 on scan point     1 out of     7
 All quantities printed in internal units (Hartrees-Bohrs-Radians)
 Mixed Optimization -- En-DIIS/RFO-DIIS
 Swaping is turned off.
 Update second derivatives using D2CorX and points    1    2
 DE= -4.18D-06 DEPred=-3.97D-06 R= 1.05D+00
 SS=  1.41D+00  RLast= 6.66D-03 DXNew= 5.0454D-01 1.9985D-02
 Trust test= 1.05D+00 RLast= 6.66D-03 DXMaxT set to 3.00D-01
 ITU=  1  0
     Eigenvalues ---    0.00230   0.00230   0.00354   0.00356   0.00730
     Eigenvalues ---    0.01271   0.01606   0.01945   0.02404   0.02816
     Eigenvalues ---    0.02824   0.03168   0.03514   0.04489   0.04692
     Eigenvalues ---    0.04800   0.05424   0.05456   0.05473   0.05509
     Eigenvalues ---    0.05561   0.07865   0.08339   0.08854   0.11783
     Eigenvalues ---    0.12209   0.12573   0.14227   0.15334   0.15959
     Eigenvalues ---    0.15988   0.16000   0.16000   0.16000   0.16000
     Eigenvalues ---    0.16000   0.16000   0.16102   0.18336   0.21899
     Eigenvalues ---    0.21947   0.22375   0.24827   0.26169   0.27460
     Eigenvalues ---    0.27877   0.28730   0.29313   0.29337   0.32887
     Eigenvalues ---    0.33116   0.33192   0.33213   0.33268   0.33283
     Eigenvalues ---    0.33359   0.33398   0.33595   0.33741   0.34756
     Eigenvalues ---    0.34849   0.34952   0.35759   0.42226   0.43806
     Eigenvalues ---    0.46409   0.54438   0.572541000.000001000.00000
     Eigenvalues --- 1000.000001000.000001000.000001000.000001000.00000
     Eigenvalues --- 1000.000001000.000001000.000001000.000001000.00000
     Eigenvalues --- 1000.000001000.000001000.000001000.000001000.00000
     Eigenvalues --- 1000.000001000.000001000.000001000.000001000.00000
     Eigenvalues --- 1000.000001000.000001000.000001000.000001000.00000
     Eigenvalues --- 1000.000001000.000001000.000001000.000001000.00000
     Eigenvalues --- 1000.000001000.000001000.000001000.000001000.00000
     Eigenvalues --- 1000.000001000.000001000.000001000.000001000.00000
     Eigenvalues --- 1000.000001000.000001000.000001000.000001000.00000
     Eigenvalues --- 1000.000001000.000001000.000001000.000001000.00000
     Eigenvalues --- 1000.000001000.000001000.000001000.000001000.00000
     Eigenvalues --- 1000.000001000.000001000.000001000.000001000.00000
     Eigenvalues --- 1000.000001000.000001000.000001000.00000
 En-DIIS/RFO-DIIS IScMMF=        0 using points:     2    1
 RFO step:  Lambda=-1.34715016D-07.
 DidBck=F Rises=F RFO-DIIS coefs:    1.05086   -0.05086
 Iteration  1 RMS(Cart)=  0.00026893 RMS(Int)=  0.00000005
 Iteration  2 RMS(Cart)=  0.00000006 RMS(Int)=  0.00000002
 Iteration  1 RMS(Cart)=  0.00000000 RMS(Int)=  0.00000000
 Variable       Old X    -DE/DX   Delta X   Delta X   Delta X     New X
                                  (DIIS)     (GDIIS)  (Total)
    R1        2.64236  -0.00012  -0.00004  -0.00028  -0.00032   2.64204
    R2        2.64443   0.00007  -0.00001   0.00015   0.00013   2.64456
    R3        1.91114  -0.00001   0.00005  -0.00003   0.00002   1.91116
    R4        2.91955   0.00012   0.00004   0.00047   0.00051   2.92006
    R5        2.54171  -0.00002   0.00006  -0.00004   0.00001   2.54173
    R6        2.88226  -0.00002  -0.00001  -0.00002  -0.00003   2.88223
    R7        2.92178  -0.00005  -0.00004  -0.00018  -0.00022   2.92156
    R8        2.93018  -0.00008  -0.00004  -0.00028  -0.00032   2.92986
    R9        2.53707   0.00001  -0.00009   0.00003  -0.00005   2.53701
   R10        2.05637  -0.00001   0.00006  -0.00004   0.00002   2.05639
   R11        2.05928  -0.00001   0.00003  -0.00003   0.00000   2.05928
   R12        2.08400   0.00003  -0.00001   0.00009   0.00009   2.08408
   R13        2.08342   0.00000  -0.00003   0.00001  -0.00002   2.08340
   R14        2.07953   0.00002  -0.00001   0.00006   0.00005   2.07958
   R15        2.89310   0.00000  -0.00002   0.00001   0.00000   2.89310
   R16        2.08915  -0.00001   0.00002  -0.00003   0.00000   2.08915
[...]
 Number     Number       Type             X           Y           Z
 ---------------------------------------------------------------------
      1          7           0        1.580383   -1.723104   -0.125650
      2          6           0        1.291260   -0.218091    0.640224
      3          6           0        0.365059    0.760836   -0.383495
      4          6           0        1.039513   -0.049426   -1.496944
      5          6           0        0.603680   -1.278050   -0.987541
      6          6           0        0.891357    2.201053   -0.262812
      7          6           0       -1.166877    0.772184   -0.215317
      8          6           0       -1.894308   -0.512694    0.190860
      9          6           0       -3.377600   -0.267032    0.490625
     10          6           0        1.813209    0.008802    1.840539
     11          1           0        1.211447   -2.424279    0.546488
     12          1           0        0.676921    0.214797   -2.512605
     13          1           0        0.051251   -2.060444   -1.544740
     14          1           0        0.442763    2.817659   -1.062134
     15          1           0        0.623801    2.672169    0.698247
     16          1           0        1.983130    2.228826   -0.383223
     17          1           0       -1.408153    1.545359    0.536639
     18          1           0       -1.586718    1.143996   -1.170643
     19          1           0       -1.821016   -1.271289   -0.606152
     20          1           0       -1.407207   -0.943225    1.084202
     21          1           0       -3.889875   -1.201671    0.769466
     22          1           0       -3.506034    0.446154    1.322074
     23          1           0       -3.898939    0.151110   -0.387149
     24          1           0        1.558509    0.922335    2.384893
     25          1           0        2.515685   -0.685268    2.307353
 ---------------------------------------------------------------------
 Rotational constants (GHZ):      1.7075604      0.9997333      0.8952176

 **********************************************************************

            Population analysis using the SCF density.

 **********************************************************************

 Orbital symmetries:
       Occupied  (A) (A) (A) (A) (A) (A) (A) (A) (A) (A) (A) (A)
                 (A) (A) (A) (A) (A) (A) (A) (A) (A) (A) (A) (A)
                 (A) (A) (A) (A) (A) (A) (A) (A) (A) (A) (A) (A)
                 (A) (A)
       Virtual   (A) (A) (A) (A) (A) (A) (A) (A) (A) (A) (A) (A)
                 (A) (A) (A) (A) (A) (A) (A) (A) (A) (A) (A) (A)
                 (A) (A) (A) (A) (A) (A) (A) (A) (A) (A) (A) (A)
                 (A) (A) (A) (A) (A) (A) (A) (A) (A) (A) (A) (A)
                 (A) (A) (A) (A) (A) (A) (A) (A) (A) (A) (A) (A)
                 (A) (A) (A) (A) (A) (A) (A) (A) (A) (A) (A) (A)
                 (A) (A) (A) (A) (A) (A) (A) (A) (A) (A) (A) (A)
                 (A) (A) (A) (A) (A) (A) (A) (A) (A) (A) (A) (A)
                 (A) (A) (A) (A) (A) (A) (A) (A) (A) (A) (A) (A)
                 (A) (A) (A) (A) (A) (A) (A) (A) (A) (A) (A) (A)
                 (A) (A) (A) (A) (A) (A) (A) (A) (A) (A) (A) (A)
                 (A) (A) (A) (A) (A) (A) (A) (A) (A) (A) (A) (A)
                 (A) (A) (A) (A) (A) (A) (A) (A) (A) (A) (A) (A)
                 (A) (A) (A) (A) (A) (A) (A) (A) (A) (A) (A) (A)
                 (A) (A) (A) (A) (A) (A) (A) (A) (A)
 The electronic state is 1-A.
 Alpha  occ. eigenvalues --  -14.36002 -10.24115 -10.23968 -10.22376 -10.19058
 Alpha  occ. eigenvalues --  -10.18696 -10.18483 -10.18122 -10.17267 -10.15747
 Alpha  occ. eigenvalues --   -0.94419  -0.82013  -0.77377  -0.75017  -0.70799
 Alpha  occ. eigenvalues --   -0.67788  -0.61022  -0.59128  -0.54920  -0.52404
 Alpha  occ. eigenvalues --   -0.49183  -0.46858  -0.45302  -0.44286  -0.42907
 Alpha  occ. eigenvalues --   -0.40986  -0.39725  -0.38848  -0.37737  -0.36991
 Alpha  occ. eigenvalues --   -0.35318  -0.34025  -0.33687  -0.32928  -0.30971
 Alpha  occ. eigenvalues --   -0.29852  -0.25368  -0.19261
 Alpha virt. eigenvalues --   -0.04907   0.01850   0.04781   0.05170   0.06453
 Alpha virt. eigenvalues --    0.07461   0.08071   0.10891   0.11157   0.11583
 Alpha virt. eigenvalues --    0.11889   0.13663   0.14199   0.14465   0.15392
 Alpha virt. eigenvalues --    0.15944   0.17057   0.18503   0.21052   0.21302
 Alpha virt. eigenvalues --    0.22793   0.24319   0.26040   0.26855   0.27869
 Alpha virt. eigenvalues --    0.31045   0.31899   0.39052   0.40762   0.42175
 Alpha virt. eigenvalues --    0.42878   0.44325   0.44444   0.47007   0.49108
 Alpha virt. eigenvalues --    0.50097   0.51830   0.53775   0.54810   0.55515
 Alpha virt. eigenvalues --    0.56789   0.57619   0.58137   0.59120   0.61508
 Alpha virt. eigenvalues --    0.61692   0.62077   0.63167   0.64054   0.64901
 Alpha virt. eigenvalues --    0.65326   0.65657   0.66207   0.66528   0.66939
 Alpha virt. eigenvalues --    0.67863   0.69118   0.70084   0.71956   0.72298
 Alpha virt. eigenvalues --    0.73118   0.74787   0.75864   0.77781   0.79368
 Alpha virt. eigenvalues --    0.79967   0.80783   0.83436   0.86232   0.88077
 Alpha virt. eigenvalues --    0.90049   0.90670   0.95718   0.96349   0.99783
 Alpha virt. eigenvalues --    1.02225   1.04476   1.07732   1.09290   1.12125
 Alpha virt. eigenvalues --    1.16703   1.17694   1.19660   1.20443   1.22763
 Alpha virt. eigenvalues --    1.24736   1.28536   1.32040   1.32325   1.33736
 Alpha virt. eigenvalues --    1.36401   1.37850   1.39231   1.41774   1.42785
 Alpha virt. eigenvalues --    1.43883   1.44122   1.48130   1.49236   1.50481
 Alpha virt. eigenvalues --    1.51565   1.52853   1.55037   1.55739   1.56019
 Alpha virt. eigenvalues --    1.59000   1.60341   1.61326   1.61724   1.63051
 Alpha virt. eigenvalues --    1.63841   1.64410   1.65097   1.66804   1.67200
 Alpha virt. eigenvalues --    1.68319   1.70266   1.70629   1.71549   1.72431
 Alpha virt. eigenvalues --    1.74283   1.75471   1.76517   1.77365   1.77990
 Alpha virt. eigenvalues --    1.79598   1.81349   1.82920   1.84946   1.87111
 Alpha virt. eigenvalues --    1.88932   1.91263   1.91876   1.94778   1.95504
 Alpha virt. eigenvalues --    1.97861   2.01570   2.01973   2.03590   2.05441
 Alpha virt. eigenvalues --    2.07950   2.09130   2.09807   2.13147   2.14062
 Alpha virt. eigenvalues --    2.14973   2.18379   2.19555   2.21202   2.21888
 Alpha virt. eigenvalues --    2.24704   2.26542   2.27776   2.29340   2.33883
 Alpha virt. eigenvalues --    2.35962   2.38050   2.39593   2.40642   2.42389
 Alpha virt. eigenvalues --    2.43528   2.44548   2.45557   2.46170   2.49906
 Alpha virt. eigenvalues --    2.51596   2.53973   2.55144   2.61488   2.62338
 Alpha virt. eigenvalues --    2.64078   2.66388   2.68160   2.71856   2.81606
 Alpha virt. eigenvalues --    2.87639   2.99665
          Condensed to atoms (all electrons):
              1          2          3          4          5          6
     1  N    6.335078   0.256847  -0.045527  -0.103682   0.434152   0.002103
     2  C    0.256847   4.949190   0.292092  -0.087466  -0.084059  -0.035322
     3  C   -0.045527   0.292092   5.019264   0.391598  -0.065165   0.430136
     4  C   -0.103682  -0.087466   0.391598   5.137796   0.474855  -0.061692
     5  C    0.434152  -0.084059  -0.065165   0.474855   4.914738   0.008825
     6  C    0.002103  -0.035322   0.430136  -0.061692   0.008825   4.521479
     7  C    0.002617  -0.048504   0.406243  -0.054822  -0.037441  -0.050309
     8  C   -0.001158  -0.008736  -0.040141  -0.004685   0.001776   0.005446
     9  C    0.000008   0.000099   0.004273   0.000057  -0.000269  -0.000207
    10  C   -0.029502   0.722807  -0.050102  -0.000173  -0.008289   0.000095
    11  H    0.296987  -0.017579   0.003588   0.016642  -0.044637  -0.000146
    12  H    0.005141   0.009372  -0.040782   0.317500  -0.016591   0.000924
    13  H   -0.044453   0.008654   0.009163  -0.042452   0.347375  -0.000721
    14  H   -0.000107   0.006831  -0.019530  -0.006249   0.000317   0.373124
    15  H   -0.000021  -0.009483  -0.013129   0.007892  -0.000892   0.366311
    16  H   -0.000054  -0.002878  -0.005804   0.001242   0.000058   0.366931
    17  H   -0.000236  -0.003486  -0.013980   0.007989   0.002756  -0.010151
    18  H   -0.000117   0.006656  -0.015943  -0.005182   0.000813   0.001131
    19  H   -0.001106  -0.001370  -0.004548   0.000666   0.009180  -0.000171
    20  H   -0.000563   0.012090  -0.010503  -0.001181  -0.003421   0.000532
    21  H    0.000000  -0.000006  -0.000357   0.000010   0.000088   0.000008
    22  H   -0.000001  -0.000020   0.000455  -0.000018   0.000017  -0.000041
    23  H   -0.000002   0.000013   0.000384  -0.000004  -0.000011   0.000013
    24  H    0.004082   0.017039  -0.013527   0.001185  -0.000323   0.001945
    25  H   -0.005416   0.025211   0.006853  -0.001494   0.000829   0.000003
              7          8          9         10         11         12
     1  N    0.002617  -0.001158   0.000008  -0.029502   0.296987   0.005141
     2  C   -0.048504  -0.008736   0.000099   0.722807  -0.017579   0.009372
     3  C    0.406243  -0.040141   0.004273  -0.050102   0.003588  -0.040782
     4  C   -0.054822  -0.004685   0.000057  -0.000173   0.016642   0.317500
     5  C   -0.037441   0.001776  -0.000269  -0.008289  -0.044637  -0.016591
     6  C   -0.050309   0.005446  -0.000207   0.000095  -0.000146   0.000924
     7  C    4.658585   0.448566  -0.035368  -0.000411   0.000940  -0.009715
     8  C    0.448566   4.603770   0.444073  -0.000596   0.000107  -0.000547
     9  C   -0.035368   0.444073   4.491871  -0.000030  -0.000029   0.000009
    10  C   -0.000411  -0.000596  -0.000030   4.693978  -0.000916  -0.000384
    11  H    0.000940   0.000107  -0.000029  -0.000916   0.661475  -0.001163
    12  H   -0.009715  -0.000547   0.000009  -0.000384  -0.001163   0.780848
    13  H    0.002119  -0.001911   0.000289  -0.000824  -0.001162  -0.010786
    14  H   -0.001373   0.000290   0.000002   0.000175   0.000002   0.003563
    15  H   -0.002835   0.000241  -0.000027   0.000286   0.000001  -0.000531
    16  H    0.007607  -0.000366   0.000008   0.000797   0.000088  -0.001134
    17  H    0.346151  -0.033239  -0.005812   0.001393  -0.000120   0.000070
    18  H    0.340724  -0.024545  -0.004317  -0.000260  -0.000016   0.007277
    19  H   -0.020523   0.359838  -0.024879   0.000083  -0.000688   0.000144
    20  H   -0.020353   0.367385  -0.023940   0.002384   0.001796  -0.000100
    21  H    0.004211  -0.009086   0.374492   0.000001  -0.000005   0.000000
    22  H   -0.005003  -0.021569   0.386055   0.000008   0.000002   0.000000
    23  H   -0.003316  -0.025091   0.387740  -0.000001   0.000001  -0.000002
    24  H    0.000788   0.000005   0.000002   0.344481  -0.000089  -0.000035
    25  H   -0.000226   0.000018   0.000001   0.337071  -0.001011   0.000058
             13         14         15         16         17         18
     1  N   -0.044453  -0.000107  -0.000021  -0.000054  -0.000236  -0.000117
     2  C    0.008654   0.006831  -0.009483  -0.002878  -0.003486   0.006656
     3  C    0.009163  -0.019530  -0.013129  -0.005804  -0.013980  -0.015943
     4  C   -0.042452  -0.006249   0.007892   0.001242   0.007989  -0.005182
     5  C    0.347375   0.000317  -0.000892   0.000058   0.002756   0.000813
     6  C   -0.000721   0.373124   0.366311   0.366931  -0.010151   0.001131
     7  C    0.002119  -0.001373  -0.002835   0.007607   0.346151   0.340724
     8  C   -0.001911   0.000290   0.000241  -0.000366  -0.033239  -0.024545
     9  C    0.000289   0.000002  -0.000027   0.000008  -0.005812  -0.004317
    10  C   -0.000824   0.000175   0.000286   0.000797   0.001393  -0.000260
    11  H   -0.001162   0.000002   0.000001   0.000088  -0.000120  -0.000016
    12  H   -0.010786   0.003563  -0.000531  -0.001134   0.000070   0.007277
    13  H    0.758930  -0.000001   0.000053   0.000057  -0.000147  -0.000394
    14  H   -0.000001   0.688332  -0.032919  -0.026573  -0.001010   0.004048
    15  H    0.000053  -0.032919   0.694705  -0.029037   0.006108  -0.001225
    16  H    0.000057  -0.026573  -0.029037   0.671416  -0.000004  -0.000382
    17  H   -0.000147  -0.001010   0.006108  -0.000004   0.735154  -0.038042
    18  H   -0.000394   0.004048  -0.001225  -0.000382  -0.038042   0.720308
    19  H    0.001835  -0.000019  -0.000002   0.000012   0.010802  -0.012678
    20  H    0.000723  -0.000011   0.000044  -0.000004  -0.010037   0.010151
    21  H   -0.000027   0.000000   0.000000   0.000000   0.000198  -0.000003
    22  H   -0.000003   0.000002  -0.000018   0.000001   0.007901  -0.001600
    23  H   -0.000010   0.000003   0.000003   0.000000  -0.002147   0.006695
    24  H    0.000072  -0.000305   0.003664   0.000879  -0.000394  -0.000073
    25  H   -0.000021   0.000017  -0.000167  -0.000195   0.000003   0.000017
             19         20         21         22         23         24
     1  N   -0.001106  -0.000563   0.000000  -0.000001  -0.000002   0.004082
     2  C   -0.001370   0.012090  -0.000006  -0.000020   0.000013   0.017039
     3  C   -0.004548  -0.010503  -0.000357   0.000455   0.000384  -0.013527
     4  C    0.000666  -0.001181   0.000010  -0.000018  -0.000004   0.001185
     5  C    0.009180  -0.003421   0.000088   0.000017  -0.000011  -0.000323
     6  C   -0.000171   0.000532   0.000008  -0.000041   0.000013   0.001945
     7  C   -0.020523  -0.020353   0.004211  -0.005003  -0.003316   0.000788
     8  C    0.359838   0.367385  -0.009086  -0.021569  -0.025091   0.000005
     9  C   -0.024879  -0.023940   0.374492   0.386055   0.387740   0.000002
    10  C    0.000083   0.002384   0.000001   0.000008  -0.000001   0.344481
    11  H   -0.000688   0.001796  -0.000005   0.000002   0.000001  -0.000089
    12  H    0.000144  -0.000100   0.000000   0.000000  -0.000002  -0.000035
    13  H    0.001835   0.000723  -0.000027  -0.000003  -0.000010   0.000072
    14  H   -0.000019  -0.000011   0.000000   0.000002   0.000003  -0.000305
    15  H   -0.000002   0.000044   0.000000  -0.000018   0.000003   0.003664
    16  H    0.000012  -0.000004   0.000000   0.000001   0.000000   0.000879
    17  H    0.010802  -0.010037   0.000198   0.007901  -0.002147  -0.000394
    18  H   -0.012678   0.010151  -0.000003  -0.001600   0.006695  -0.000073
    19  H    0.721234  -0.048266  -0.005311   0.008554  -0.009129  -0.000013
    20  H   -0.048266   0.716231  -0.004514  -0.008811   0.008647   0.000216
    21  H   -0.005311  -0.004514   0.689009  -0.030649  -0.030218   0.000000
    22  H    0.008554  -0.008811  -0.030649   0.676180  -0.031870  -0.000005
    23  H   -0.009129   0.008647  -0.030218  -0.031870   0.678454   0.000000
    24  H   -0.000013   0.000216   0.000000  -0.000005   0.000000   0.679311
    25  H    0.000002   0.000026   0.000000   0.000000   0.000000  -0.054832
             25
     1  N   -0.005416
     2  C    0.025211
     3  C    0.006853
     4  C   -0.001494
     5  C    0.000829
     6  C    0.000003
     7  C   -0.000226
     8  C    0.000018
     9  C    0.000001
    10  C    0.337071
    11  H   -0.001011
    12  H    0.000058
    13  H   -0.000021
    14  H    0.000017
    15  H   -0.000167
    16  H   -0.000195
    17  H    0.000003
    18  H    0.000017
    19  H    0.000002
    20  H    0.000026
    21  H    0.000000
    22  H    0.000000
    23  H    0.000000
    24  H   -0.054832
    25  H    0.677139
 Mulliken atomic charges:
              1
     1  N   -0.105069
     2  C   -0.007992
     3  C   -0.225012
     4  C    0.011668
     5  C    0.065320
     6  C    0.079751
     7  C    0.071649
     8  C   -0.059844
     9  C    0.005899
    10  C   -0.012069
    11  H    0.085932
    12  H   -0.043138
    13  H   -0.026355
    14  H    0.011392
    15  H    0.010978
    16  H    0.017334
    17  H    0.000278
    18  H    0.006956
    19  H    0.016354
    20  H    0.011481
    21  H    0.012163
    22  H    0.020430
    23  H    0.019849
    24  H    0.015928
    25  H    0.016116
 Sum of Mulliken atomic charges =   0.00000
 Mulliken charges with hydrogens summed into heavy atoms:
              1
     1  N   -0.019137
     2  C   -0.007992
     3  C   -0.225012
     4  C   -0.031470
     5  C    0.038966
     6  C    0.119455
     7  C    0.078883
     8  C   -0.032009
     9  C    0.058341
    10  C    0.019974
 Sum of Mulliken charges with hydrogens summed into heavy atoms =   0.00000
 Electronic spatial extent (au):  <R**2>=           1601.6963
 Charge=              0.0000 electrons
 Dipole moment (field-independent basis, Debye):
    X=             -2.0564    Y=             -0.7329    Z=              0.9795  Tot=              2.3927
 Quadrupole moment (field-independent basis, Debye-Ang):
   XX=            -68.5836   YY=            -60.0875   ZZ=            -63.4029
   XY=              0.6594   XZ=              3.6797   YZ=             -0.3677
 Traceless Quadrupole moment (field-independent basis, Debye-Ang):
   XX=             -4.5590   YY=              3.9371   ZZ=              0.6218
   XY=              0.6594   XZ=              3.6797   YZ=             -0.3677
 Octapole moment (field-independent basis, Debye-Ang**2):
  XXX=            -12.0869  YYY=            -14.0224  ZZZ=              4.3495  XYY=             -1.0251
  XXY=              1.2358  XXZ=              7.6768  XZZ=             -0.7044  YZZ=             -0.9603
  YYZ=              2.9119  XYZ=             -3.3503
 Hexadecapole moment (field-independent basis, Debye-Ang**3):
 XXXX=          -1244.2197 YYYY=           -574.8559 ZZZZ=           -434.7552 XXXY=              4.9693
 XXXZ=             20.2552 YYYX=             -8.6664 YYYZ=             -5.1480 ZZZX=             15.3424
 ZZZY=              4.0977 XXYY=           -304.0394 XXZZ=           -269.4729 YYZZ=           -162.2606
 XXYZ=             -9.9436 YYXZ=              7.1939 ZZXY=             -4.3830
 N-N= 5.386865665117D+02 E-N=-2.018759736380D+03  KE= 4.033868020585D+02
 1\1\GINC-NODE109\Scan\RB3LYP\CC-pVDZ\C9H15N1\CHS2057\24-Mar-2015\0\\# 
 opt=modredundant B3LYP/cc-pVDZ Geom=PrintInputOrient\\UNK Dihedral Sca
 n at MP2/6-31G*\\0,1\N,0.0953545377,2.3032550775,0.9728110097\C,-0.429
 7338769,1.5662729891,-0.481960061\C,-0.0703959136,-0.086765849,-0.4321
 025666\C,1.0722348657,0.3575764703,0.4888413322\C,0.2141259621,0.99710
 89137,1.3908435279\C,0.3968471799,-0.5107748433,-1.8348427099\C,-1.154
 9608161,-1.0688385415,0.0521411094\C,-2.1255570891,-0.6416407408,1.156
 9002474\C,-3.242740832,-1.6688821096,1.373785676\C,-0.9838966188,2.318
 7663086,-1.426060286\H,-0.76087078,2.7533385071,1.3520645089\H,1.66354
 32282,-0.4902843285,0.8942281494\H,0.1691657153,0.8290755122,2.4851615
 073\H,0.8254899108,-1.5274815282,-1.7807440437\H,-0.4291888854,-0.5460
 970018,-2.5653131739\H,1.1759488873,0.1680284262,-2.2082926222\H,-1.75
 65396536,-1.353598985,-0.8301661303\H,-0.6283285633,-1.9919888269,0.36
 4566783\H,-1.592271875,-0.5001980072,2.1117138719\H,-2.5721775632,0.33
 45137024,0.8954885753\H,-3.9255243214,-1.3538727655,2.178958225\H,-3.8
 440709724,-1.8065714085,0.4595210104\H,-2.8314014834,-2.6544496758,1.6
 505171632\H,-1.4128519649,1.8520596082,-2.3170806529\H,-1.0121988069,3
 .4084493934,-1.3559804963\\Version=EM64L-G09RevB.01\State=1-A\HF=-406.
 7250623,-406.7215112,-406.710108,-406.6885421,-406.6533207,-406.602303
 7,-406.539725\RMSD=2.122e-09,9.570e-09,9.809e-09,8.792e-09,5.373e-09,3
 .075e-09,8.311e-09\PG=C01 [X(C9H15N1)]\\@


 HIGGLEDY-PIGGLEDY
 NIC'LAUS COPERNICUS
 LOOKED AT THE UNIVERSE,
 SPOKE TO THE THRONG;
 GIVE UP YOUR PTOLOMY,
 RISE UP AND FOLLOW ME,
 HELIOCENTRICALLY
 PTOLEMY'S WRONG.
   -- NANCY L. STARK
 Job cpu time:  0 days  6 hours 42 minutes 28.1 seconds.
 File lengths (MBytes):  RWF=    102 Int=      0 D2E=      0 Chk=      6 Scr=      2
 Normal termination of Gaussian 09 at Tue Mar 24 19:04:30 2015.
