    -----------------------------------------------------------------------
          Psi4: An Open-Source Ab Initio Electronic Structure Package
                              Psi4 1.0.0 Driver

                          Git: Rev {master} 6a9a71b 

    J. M. Turney, A. C. Simmonett, R. M. Parrish, E. G. Hohenstein,
    F. A. Evangelista, J. T. Fermann, B. J. Mintz, L. A. Burns, J. J. Wilke,
    M. L. Abrams, N. J. Russ, M. L. Leininger, C. L. Janssen, E. T. Seidl,
    W. D. Allen, H. F. Schaefer, R. A. King, E. F. Valeev, C. D. Sherrill,
    and T. D. Crawford, WIREs Comput. Mol. Sci. 2, 556-565 (2012)
    (doi: 10.1002/wcms.93)

                         Additional Contributions by
    A. E. DePrince, U. Bozkaya, A. Yu. Sokolov, D. G. A. Smith, R. Di Remigio,
    R. M. Richard, J. F. Gonthier, H. R. McAlexander, M. Saitow, and
    B. P. Pritchard
    -----------------------------------------------------------------------


    Psi4 started on: Tue Feb 21 17:40:07 2017

    Process ID:  34287
    PSI4DATADIR: /Users/sternc1/anaconda/share/psi4
    Memory level set to 256.000 MB

  ==> Input File <==

--------------------------------------------------------------------------

memory 1000 mb

molecule butane {
  symmetry C1
  0 1 
  H      1.604   0.760   -8.260
  H      1.745   2.388   -8.880
  H      2.043   1.024   -9.930
  C      2.142   1.395   -8.932
  H      4.169   2.051   -9.210
  H      3.731   1.788   -7.539
  C      3.631   1.416   -8.537
  H      4.405   -0.367   -7.623
  H      3.492   -0.657   -9.084
  C      4.203   -0.012   -8.612
  H      5.904   -0.993   -9.482
  H      6.219   0.644   -8.959
  H      5.306   0.354   -10.419
  C      5.507   -0.001   -9.430
  units Angstrom
}

dih_string = "4 7 10 14 130"
set optking fixed_dihedral = $dih_string

optimize('B3LYP/cc-PVDZ')
--------------------------------------------------------------------------

  Memory set to 1000.000 MiB by Python script.
gradient() will perform analytic gradient computation.

*** tstart() called on lski1497
*** at Tue Feb 21 17:40:09 2017


         ---------------------------------------------------------
                                   SCF
            by Justin Turney, Rob Parrish, and Andy Simmonett
                              RKS Reference
                        1 Threads,   1000 MiB Core
         ---------------------------------------------------------

  ==> Geometry <==

    Molecular point group: c1
    Full point group: C1

    Geometry (in Angstrom), charge = 0, multiplicity = 1:

       Center              X                  Y                   Z               Mass       
    ------------   -----------------  -----------------  -----------------  -----------------
           H         -2.265196917049     0.060552058646     0.628309228775     1.007825032070
           H         -2.124196917049     1.688552058646     0.008309228775     1.007825032070
           H         -1.826196917049     0.324552058646    -1.041690771225     1.007825032070
           C         -1.727196917049     0.695552058646    -0.043690771225    12.000000000000
           H          0.299803082951     1.351552058646    -0.321690771225     1.007825032070
           H         -0.138196917049     1.088552058646     1.349309228775     1.007825032070
           C         -0.238196917049     0.716552058646     0.351309228775    12.000000000000
           H          0.535803082951    -1.066447941354     1.265309228775     1.007825032070
           H         -0.377196917049    -1.356447941354    -0.195690771225     1.007825032070
           C          0.333803082951    -0.711447941354     0.276309228775    12.000000000000
           H          2.034803082951    -1.692447941354    -0.593690771225     1.007825032070
           H          2.349803082951    -0.055447941354    -0.070690771225     1.007825032070
           H          1.436803082951    -0.345447941354    -1.530690771225     1.007825032070
           C          1.637803082951    -0.700447941354    -0.541690771225    12.000000000000

  Running in c1 symmetry.

  Rotational constants: A =      0.63077  B =      0.12932  C =      0.12654 [cm^-1]
  Rotational constants: A =  18910.12966  B =   3876.87935  C =   3793.68694 [MHz]
  Nuclear repulsion =  132.350612314562881

  Charge       = 0
  Multiplicity = 1
  Electrons    = 34
  Nalpha       = 17
  Nbeta        = 17

  ==> Algorithm <==

  SCF Algorithm Type is DF.
  DIIS enabled.
  MOM disabled.
  Fractional occupation disabled.
  Guess Type is SAD.
  Energy threshold   = 1.00e-08
  Density threshold  = 1.00e-08
  Integral threshold = 0.00e+00

  ==> Primary Basis <==

  Basis Set: CC-PVDZ
    Number of shells: 54
    Number of basis function: 106
    Number of Cartesian functions: 110
    Spherical Harmonics?: true
    Max angular momentum: 2

  ==> DFT Potential <==

   => B3LYP Composite Functional <= 

    B3LYP Hybrid-GGA Exchange-Correlation Functional (VWN1-RPA)

    P.J. Stephens et. al., J. Phys. Chem., 98, 11623-11627, 1994

    Points   =           5000
    Deriv    =              1
    GGA      =           TRUE
    Meta     =          FALSE

    X_LRC        =          FALSE
    X_Hybrid     =           TRUE
    X_Alpha      =   2.000000E-01
    X_Omega      =   0.000000E+00
    C_LRC        =          FALSE
    C_Hybrid     =          FALSE
    C_Alpha      =   0.000000E+00
    C_Omega      =   0.000000E+00

   => Exchange Functionals <=

    0.8000    B3_X
    0.2000      HF 

   => Correlation Functionals <=

    0.1900 VWN3RPA_C
    0.8100   LYP_C

   => Molecular Quadrature <=

    Radial Scheme    =       TREUTLER
    Pruning Scheme   =           FLAT
    Nuclear Scheme   =       TREUTLER

    BS radius alpha  =              1
    Pruning alpha    =              1
    Radial Points    =             75
    Spherical Points =            302
    Total Points     =         312764
    Total Blocks     =            274
    Max Points       =           4785
    Max Functions    =            106

  ==> Pre-Iterations <==

   -------------------------------------------------------
    Irrep   Nso     Nmo     Nalpha   Nbeta   Ndocc  Nsocc
   -------------------------------------------------------
     A        106     106       0       0       0       0
   -------------------------------------------------------
    Total     106     106      17      17      17       0
   -------------------------------------------------------

  ==> Integral Setup <==

  ==> DFJK: Density-Fitted J/K Matrices <==

    J tasked:                  Yes
    K tasked:                  Yes
    wK tasked:                  No
    OpenMP threads:              1
    Integrals threads:           1
    Memory (MB):               715
    Algorithm:                Core
    Integral Cache:           NONE
    Schwarz Cutoff:          1E-12
    Fitting Condition:       1E-12

   => Auxiliary Basis Set <=

  Basis Set: 
    Number of shells: 186
    Number of basis function: 510
    Number of Cartesian functions: 574
    Spherical Harmonics?: true
    Max angular momentum: 3

  Minimum eigenvalue in the overlap matrix is 4.4297531027E-03.
  Using Symmetric Orthogonalization.
  SCF Guess: Superposition of Atomic Densities via on-the-fly atomic UHF.

  ==> Iterations <==

                           Total Energy        Delta E     RMS |[F,P]|

   @DF-RKS iter   0:  -159.06918290853147   -1.59069e+02   3.41255e-02 
   @DF-RKS iter   1:  -158.31190001008866    7.57283e-01   4.49689e-03 
   @DF-RKS iter   2:  -158.27670535684211    3.51947e-02   5.18997e-03 DIIS
   @DF-RKS iter   3:  -158.44313910198679   -1.66434e-01   3.58655e-04 DIIS
   @DF-RKS iter   4:  -158.44383073379169   -6.91632e-04   1.19674e-04 DIIS
   @DF-RKS iter   5:  -158.44390171614722   -7.09824e-05   4.46273e-05 DIIS
   @DF-RKS iter   6:  -158.44391267829110   -1.09621e-05   4.93334e-06 DIIS
   @DF-RKS iter   7:  -158.44391282411567   -1.45825e-07   9.37616e-07 DIIS
   @DF-RKS iter   8:  -158.44391282991378   -5.79811e-09   1.34949e-07 DIIS
   @DF-RKS iter   9:  -158.44391283003046   -1.16671e-10   2.83824e-08 DIIS
   @DF-RKS iter  10:  -158.44391283003608   -5.62750e-12   6.03677e-09 DIIS

  ==> Post-Iterations <==

    Orbital Energies (a.u.)
    -----------------------

    Doubly Occupied:                                                      

       1A    -10.168751     2A    -10.168568     3A    -10.164616  
       4A    -10.164513     5A     -0.794814     6A     -0.722965  
       7A     -0.631640     8A     -0.578934     9A     -0.468910  
      10A     -0.434791    11A     -0.424174    12A     -0.399526  
      13A     -0.364774    14A     -0.363242    15A     -0.330778  
      16A     -0.324114    17A     -0.309314  

    Virtual:                                                              

      18A      0.064386    19A      0.090478    20A      0.102885  
      21A      0.109668    22A      0.143488    23A      0.150348  
      24A      0.151304    25A      0.152016    26A      0.159485  
      27A      0.169711    28A      0.226335    29A      0.247332  
      30A      0.258026    31A      0.404830    32A      0.420936  
      33A      0.432360    34A      0.451202    35A      0.484744  
      36A      0.490484    37A      0.496868    38A      0.583523  
      39A      0.590381    40A      0.638135    41A      0.648437  
      42A      0.665885    43A      0.666324    44A      0.676253  
      45A      0.676447    46A      0.690488    47A      0.693883  
      48A      0.699049    49A      0.712040    50A      0.738363  
      51A      0.739404    52A      0.748935    53A      0.878838  
      54A      0.880888    55A      0.976345    56A      1.125326  
      57A      1.131255    58A      1.188700    59A      1.231304  
      60A      1.257161    61A      1.344244    62A      1.377180  
      63A      1.441238    64A      1.442488    65A      1.472670  
      66A      1.501340    67A      1.561395    68A      1.580690  
      69A      1.600916    70A      1.642458    71A      1.661011  
      72A      1.665671    73A      1.684704    74A      1.697098  
      75A      1.708505    76A      1.713577    77A      1.716238  
      78A      1.737619    79A      1.759294    80A      1.787534  
      81A      1.794769    82A      1.803918    83A      1.861159  
      84A      1.928538    85A      1.993451    86A      2.027407  
      87A      2.029762    88A      2.078074    89A      2.099990  
      90A      2.173047    91A      2.220840    92A      2.255256  
      93A      2.278789    94A      2.309305    95A      2.348851  
      96A      2.351190    97A      2.501317    98A      2.512627  
      99A      2.528291   100A      2.537725   101A      2.584903  
     102A      2.588413   103A      2.611208   104A      2.641319  
     105A      2.685892   106A      2.745106  

    Final Occupation by Irrep:
              A 
    DOCC [    17 ]

  Energy converged.

  @DF-RKS Final Energy:  -158.44391283003608

   => Energetics <=

    Nuclear Repulsion Energy =            132.3506123145628806
    One-Electron Energy =                -473.0937934600471522
    Two-Electron Energy =                 202.9810104501914338
    DFT Exchange-Correlation Energy =     -20.6817421347432244
    Empirical Dispersion Energy =           0.0000000000000000
    PCM Polarization Energy =               0.0000000000000000
    EFP Energy =                            0.0000000000000000
    Total Energy =                       -158.4439128300360835


  Saving occupied orbitals to File 180.

*** tstop() called on lski1497 at Tue Feb 21 17:42:13 2017
Module time:
	user time   =     111.36 seconds =       1.86 minutes
	system time =       1.17 seconds =       0.02 minutes
	total time  =        124 seconds =       2.07 minutes
Total time:
	user time   =     111.36 seconds =       1.86 minutes
	system time =       1.17 seconds =       0.02 minutes
	total time  =        124 seconds =       2.07 minutes


Properties will be evaluated at   0.000000,   0.000000,   0.000000 Bohr

Properties computed using the SCF density matrix

  Nuclear Dipole Moment: (a.u.)
     X:    -0.0693      Y:    -0.0023      Z:    -0.4715

  Electronic Dipole Moment: (a.u.)
     X:     0.0736      Y:     0.0022      Z:     0.4986

  Dipole Moment: (a.u.)
     X:     0.0042      Y:    -0.0002      Z:     0.0271     Total:     0.0274

  Dipole Moment: (Debye)
     X:     0.0108      Y:    -0.0004      Z:     0.0689     Total:     0.0697


*** tstart() called on lski1497
*** at Tue Feb 21 17:42:13 2017


         ------------------------------------------------------------
                                   SCF GRAD                          
                          Rob Parrish, Justin Turney,                
                       Andy Simmonett, and Alex Sokolov              
         ------------------------------------------------------------

  ==> Geometry <==

    Molecular point group: c1
    Full point group: C1

    Geometry (in Angstrom), charge = 0, multiplicity = 1:

       Center              X                  Y                   Z               Mass       
    ------------   -----------------  -----------------  -----------------  -----------------
           H         -2.265196917049     0.060552058646     0.628309228775     1.007825032070
           H         -2.124196917049     1.688552058646     0.008309228775     1.007825032070
           H         -1.826196917049     0.324552058646    -1.041690771225     1.007825032070
           C         -1.727196917049     0.695552058646    -0.043690771225    12.000000000000
           H          0.299803082951     1.351552058646    -0.321690771225     1.007825032070
           H         -0.138196917049     1.088552058646     1.349309228775     1.007825032070
           C         -0.238196917049     0.716552058646     0.351309228775    12.000000000000
           H          0.535803082951    -1.066447941354     1.265309228775     1.007825032070
           H         -0.377196917049    -1.356447941354    -0.195690771225     1.007825032070
           C          0.333803082951    -0.711447941354     0.276309228775    12.000000000000
           H          2.034803082951    -1.692447941354    -0.593690771225     1.007825032070
           H          2.349803082951    -0.055447941354    -0.070690771225     1.007825032070
           H          1.436803082951    -0.345447941354    -1.530690771225     1.007825032070
           C          1.637803082951    -0.700447941354    -0.541690771225    12.000000000000

  Nuclear repulsion =  132.350612314562881

  ==> Basis Set <==

  Basis Set: CC-PVDZ
    Number of shells: 54
    Number of basis function: 106
    Number of Cartesian functions: 110
    Spherical Harmonics?: true
    Max angular momentum: 2

  ==> DFJKGrad: Density-Fitted SCF Gradients <==

    Gradient:                    1
    J tasked:                  Yes
    K tasked:                  Yes
    wK tasked:                  No
    OpenMP threads:              1
    Integrals threads:           1
    Memory (MB):               715
    Schwarz Cutoff:          0E+00
    Fitting Condition:       1E-12

   => Auxiliary Basis Set <=

  Basis Set: 
    Number of shells: 186
    Number of basis function: 510
    Number of Cartesian functions: 574
    Spherical Harmonics?: true
    Max angular momentum: 3

  ==> DFT Potential <==

   => B3LYP Composite Functional <= 

    B3LYP Hybrid-GGA Exchange-Correlation Functional (VWN1-RPA)

    P.J. Stephens et. al., J. Phys. Chem., 98, 11623-11627, 1994

    Points   =           5000
    Deriv    =              1
    GGA      =           TRUE
    Meta     =          FALSE

    X_LRC        =          FALSE
    X_Hybrid     =           TRUE
    X_Alpha      =   2.000000E-01
    X_Omega      =   0.000000E+00
    C_LRC        =          FALSE
    C_Hybrid     =          FALSE
    C_Alpha      =   0.000000E+00
    C_Omega      =   0.000000E+00

   => Exchange Functionals <=

    0.8000    B3_X
    0.2000      HF 

   => Correlation Functionals <=

    0.1900 VWN3RPA_C
    0.8100   LYP_C

   => Molecular Quadrature <=

    Radial Scheme    =       TREUTLER
    Pruning Scheme   =           FLAT
    Nuclear Scheme   =       TREUTLER

    BS radius alpha  =              1
    Pruning alpha    =              1
    Radial Points    =             75
    Spherical Points =            302
    Total Points     =         312764
    Total Blocks     =            274
    Max Points       =           4785
    Max Functions    =            106


  -Total Gradient:
     Atom            X                  Y                   Z
    ------   -----------------  -----------------  -----------------
       1        0.014214601492     0.012941789477    -0.012605854928
       2        0.013030345745    -0.019037065774     0.000263314428
       3        0.005028537095     0.007761840375     0.021348951099
       4       -0.028772883062    -0.009971730377    -0.010534806386
       5       -0.011015553164    -0.015705765367     0.011644365435
       6       -0.003559536077    -0.012119103787    -0.019547988899
       7        0.026075528705     0.028489684316     0.007263698645
       8       -0.002343844338     0.011745648630    -0.019773936266
       9        0.014282760514     0.016087705842     0.007781161923
      10       -0.022623711583    -0.028537868701     0.014375261656
      11       -0.012697636285     0.019729399773     0.003840685309
      12       -0.017134477042    -0.012975162018    -0.007635217841
      13        0.001562933340    -0.007232790465     0.021683600154
      14        0.023954482626     0.008823711281    -0.018094015579


*** tstop() called on lski1497 at Tue Feb 21 17:42:59 2017
Module time:
	user time   =      42.89 seconds =       0.71 minutes
	system time =       0.50 seconds =       0.01 minutes
	total time  =         46 seconds =       0.77 minutes
Total time:
	user time   =     154.28 seconds =       2.57 minutes
	system time =       1.67 seconds =       0.03 minutes
	total time  =        170 seconds =       2.83 minutes

			-----------------------------------------
			 OPTKING 2.0: for geometry optimizations 
			  - R.A. King,  Bethel University        
			-----------------------------------------

	Internal coordinates to be generated automatically.
	Detected frag 1 with atoms:  1 2 3 4 5 6 7 8 9 10 11 12 13 14
	---Fragment 1 Bond Connectivity---
	 1 : 4
	 2 : 4
	 3 : 4
	 4 : 1 2 3 7
	 5 : 7
	 6 : 7
	 7 : 4 5 6 10
	 8 : 10
	 9 : 10
	 10 : 7 8 9 14
	 11 : 14
	 12 : 14
	 13 : 14
	 14 : 10 11 12 13

	Assuming in current code that numbering for constraints corresponds to unified fragment.
	Fixed dihedral atom list: 
	     4     7    10    14
	---Fragment 1 Geometry and Gradient---
	 H          -4.2806018103        0.1144268076        1.1873323692
	 H          -4.0141504255        3.1909009520        0.0157021668
	 H          -3.4510120379        0.6133145067       -1.9685102728
	 C          -3.2639291508        1.3144029020       -0.0825635921
	 H           0.5665457206        2.5540632452       -0.6079074571
	 H          -0.2611543256        2.0570652722        2.5498249110
	 C          -0.4501269389        1.3540871508        0.6638782303
	 H           1.0125210879       -2.0152945441        2.3910879158
	 H          -0.7127988714       -2.5633151227       -0.3698019643
	 C           0.6307964091       -1.3444417670        0.5221487704
	 H           3.8452205611       -3.1982631033       -1.1219129652
	 H           4.4404842930       -0.1047814238       -0.1335861977
	 H           2.7151643337       -0.6528020023       -2.8925863517
	 C           3.0949992864       -1.3236547795       -1.0236472063
	             0.0142146015        0.0129417895       -0.0126058549
	             0.0130303457       -0.0190370658        0.0002633144
	             0.0050285371        0.0077618404        0.0213489511
	            -0.0287728831       -0.0099717304       -0.0105348064
	            -0.0110155532       -0.0157057654        0.0116443654
	            -0.0035595361       -0.0121191038       -0.0195479889
	             0.0260755287        0.0284896843        0.0072636986
	            -0.0023438443        0.0117456486       -0.0197739363
	             0.0142827605        0.0160877058        0.0077811619
	            -0.0226237116       -0.0285378687        0.0143752617
	            -0.0126976363        0.0197293998        0.0038406853
	            -0.0171344770       -0.0129751620       -0.0076352178
	             0.0015629333       -0.0072327905        0.0216836002
	             0.0239544826        0.0088237113       -0.0180940156

	Previous optimization step data not found.  Starting new optimization.

	---Fragment 1 Intrafragment Coordinates---
	 - Coordinate -           - BOHR/RAD -       - ANG/DEG -
	 R(1,4)           =         2.021436	       1.069698
	 R(2,4)           =         2.023298	       1.070683
	 R(3,4)           =         2.020723	       1.069320
	 R(4,7)           =         2.911397	       1.540645
	 R(5,7)           =         2.022623	       1.070326
	 R(6,7)           =         2.021555	       1.069761
	 R(7,10)          =         2.910419	       1.540128
	 R(8,10)          =         2.022051	       1.070023
	 R(9,10)          =         2.021504	       1.069734
	 R(10,14)         =         2.908988	       1.539370
	 R(11,14)         =         2.021545	       1.069756
	 R(12,14)         =         2.021927	       1.069958
	 R(13,14)         =         2.021695	       1.069835
	 B(1,4,2)         =         1.910870	     109.484805
	 B(1,4,3)         =         1.911121	     109.499161
	 B(1,4,7)         =         1.910399	     109.457783
	 B(2,4,3)         =         1.910042	     109.437340
	 B(2,4,7)         =         1.910564	     109.467262
	 B(3,4,7)         =         1.910803	     109.480971
	 B(4,7,5)         =         1.909937	     109.431343
	 B(4,7,6)         =         1.911630	     109.528316
	 B(4,7,10)        =         1.911154	     109.501062
	 B(5,7,6)         =         1.910605	     109.469614
	 B(5,7,10)        =         1.910047	     109.437654
	 B(6,7,10)        =         1.910425	     109.459295
	 B(7,10,8)        =         1.909980	     109.433789
	 B(7,10,9)        =         1.911015	     109.493080
	 B(7,10,14)       =         1.911194	     109.503379
	 B(8,10,9)        =         1.910548	     109.466355
	 B(8,10,14)       =         1.910920	     109.487637
	 B(9,10,14)       =         1.910142	     109.443087
	 B(10,14,11)      =         1.910888	     109.485811
	 B(10,14,12)      =         1.911435	     109.517145
	 B(10,14,13)      =         1.911822	     109.539338
	 B(11,14,12)      =         1.910760	     109.478486
	 B(11,14,13)      =         1.909745	     109.420341
	 B(12,14,13)      =         1.909148	     109.386113
	 D(1,4,7,5)       =         3.140997	     179.965873
	 D(1,4,7,6)       =        -1.047644	     -60.025575
	 D(1,4,7,10)      =         1.047427	      60.013132
	 D(2,4,7,5)       =        -1.047689	     -60.028143
	 D(2,4,7,6)       =         1.046856	      59.980409
	 D(2,4,7,10)      =        -3.141259	    -179.980883
	 D(3,4,7,5)       =         1.046044	      59.933911
	 D(3,4,7,6)       =         3.140588	     179.942463
	 D(3,4,7,10)      =        -1.047526	     -60.018830
	 D(4,7,10,8)      =        -1.919625	    -109.986390
	 D(4,7,10,9)      =         0.174500	       9.998109
	 D(4,7,10,14)     =         2.268871	     129.996747
	 D(5,7,10,8)      =         2.270058	     130.064734
	 D(5,7,10,9)      =        -1.919003	    -109.950767
	 D(5,7,10,14)     =         0.175368	      10.047872
	 D(6,7,10,8)      =         0.176183	      10.094536
	 D(6,7,10,9)      =         2.270307	     130.079035
	 D(6,7,10,14)     =        -1.918507	    -109.922327
	 D(7,10,14,11)    =        -3.141492	    -179.994218
	 D(7,10,14,12)    =         1.046496	      59.959777
	 D(7,10,14,13)    =        -1.047300	     -60.005863
	 D(8,10,14,11)    =         1.047579	      60.021874
	 D(8,10,14,12)    =        -1.047619	     -60.024131
	 D(8,10,14,13)    =        -3.141414	    -179.989771
	 D(9,10,14,11)    =        -1.046586	     -59.964988
	 D(9,10,14,12)    =         3.141401	     179.989007
	 D(9,10,14,13)    =         1.047605	      60.023367

	Current energy   :      -158.4439128300

	Generating empirical Hessian (Schlegel '84) for each fragment.
	Adding user-defined constraint: Fragment 1; Coordinate 49:
		Value =     2.268871; Fixed value    =     2.268928
		Force =     0.000028; Force constant =     0.500000
	Removing off-diagonal coupling between coordinate 49 and others.
	Taking RFO optimization step.
	Going to follow RFO solution 1.
	Using RFO vector 1.

	Determining step-restricting scale parameter for RS-RFO.
	Maximum step size allowed    0.10000

	 Iter      |step|        alpha        rfo_root  
	------------------------------------------------
	    0     0.26698       1.00000           1
	    1     0.19453       6.21677           1
	    2     0.14373      19.50137           1
	    3     0.11460      39.08037           1
	    4     0.10252      53.40072           1
	    5     0.10010      56.98564           1
	    6     0.10000      57.13658           1
	------------------------------------------------
	Norm of target step-size    0.10000
	Projected energy change by RFO approximation:        -0.0073627832

	Back-transformation to cartesian coordinates...
	Successfully converged to displaced geometry.

	--- Internal Coordinate Step in ANG or DEG, aJ/ANG or AJ/DEG ---
	 ---------------------------------------------------------------------------
	   Coordinate                Previous        Force       Change         New 
	   ----------                --------       ------       ------       ------
	    1 R(1,4)          =      1.069698     0.187447     0.014799     1.084497
	    2 R(2,4)          =      1.070683     0.185157     0.014641     1.085324
	    3 R(3,4)          =      1.069320     0.190176     0.015006     1.084326
	    4 R(4,7)          =      1.540645     0.023713     0.002099     1.542744
	    5 R(5,7)          =      1.070326     0.182702     0.014439     1.084765
	    6 R(6,7)          =      1.069761     0.187714     0.014822     1.084583
	    7 R(7,10)         =      1.540128     0.105116     0.009301     1.549428
	    8 R(8,10)         =      1.070023     0.186331     0.014719     1.084742
	    9 R(9,10)         =      1.069734     0.186408     0.014718     1.084452
	   10 R(10,14)        =      1.539370     0.028725     0.002539     1.541910
	   11 R(11,14)        =      1.069756     0.191087     0.015088     1.084844
	   12 R(12,14)        =      1.069958     0.186079     0.014697     1.084655
	   13 R(13,14)        =      1.069835     0.187336     0.014794     1.084629
	   14 B(1,4,2)        =    109.484805    -0.000330    -0.411071   109.073734
	   15 B(1,4,3)        =    109.499161    -0.000240    -0.308954   109.190207
	   16 B(1,4,7)        =    109.457783     0.000222     0.273808   109.731591
	   17 B(2,4,3)        =    109.437340    -0.000308    -0.387009   109.050331
	   18 B(2,4,7)        =    109.467262     0.000483     0.610997   110.078259
	   19 B(3,4,7)        =    109.480971     0.000173     0.214976   109.695947
	   20 B(4,7,5)        =    109.431343    -0.000268    -0.312610   109.118732
	   21 B(4,7,6)        =    109.528316    -0.000311    -0.351785   109.176531
	   22 B(4,7,10)       =    109.501062     0.000947     1.112654   110.613716
	   23 B(5,7,6)        =    109.469614    -0.000009    -0.109339   109.360274
	   24 B(5,7,10)       =    109.437654    -0.000205    -0.204709   109.232945
	   25 B(6,7,10)       =    109.459295    -0.000155    -0.139159   109.320136
	   26 B(7,10,8)       =    109.433789    -0.000155    -0.139349   109.294440
	   27 B(7,10,9)       =    109.493080    -0.000212    -0.214635   109.278445
	   28 B(7,10,14)      =    109.503379     0.000952     1.118352   110.621730
	   29 B(8,10,9)       =    109.466355    -0.000009    -0.109478   109.356877
	   30 B(8,10,14)      =    109.487637    -0.000309    -0.348392   109.139245
	   31 B(9,10,14)      =    109.443087    -0.000268    -0.311608   109.131479
	   32 B(10,14,11)     =    109.485811     0.000485     0.613158   110.098968
	   33 B(10,14,12)     =    109.517145     0.000212     0.261815   109.778960
	   34 B(10,14,13)     =    109.539338     0.000164     0.203856   109.743195
	   35 B(11,14,12)     =    109.478486    -0.000328    -0.408992   109.069494
	   36 B(11,14,13)     =    109.420341    -0.000306    -0.384416   109.035925
	   37 B(12,14,13)     =    109.386113    -0.000228    -0.294422   109.091691
	   38 D(1,4,7,5)      =    179.965873     0.000034     0.212160   180.178033
	   39 D(1,4,7,6)      =    -60.025575    -0.000050    -0.322387   -60.347962
	   40 D(1,4,7,10)     =     60.013132    -0.000004    -0.025772    59.987360
	   41 D(2,4,7,5)      =    -60.028143     0.000040     0.254830   -59.773313
	   42 D(2,4,7,6)      =     59.980409    -0.000044    -0.279717    59.700692
	   43 D(2,4,7,10)     =   -179.980883     0.000002     0.016897  -179.963986
	   44 D(3,4,7,5)      =     59.933911     0.000046     0.290108    60.224019
	   45 D(3,4,7,6)      =    179.942463    -0.000038    -0.244439   179.698024
	   46 D(3,4,7,10)     =    -60.018830     0.000008     0.052175   -59.966654
	   47 D(4,7,10,8)     =   -109.986390     0.000035     0.221769  -109.764621
	   48 D(4,7,10,9)     =      9.998109    -0.000019    -0.126730     9.871379
	   49 D(4,7,10,14)    =    129.996747     0.000010     0.046719   130.043466
	   50 D(5,7,10,8)     =    130.064734     0.000006     0.048335   130.113069
	   51 D(5,7,10,9)     =   -109.950767    -0.000048    -0.300163  -110.250930
	   52 D(5,7,10,14)    =     10.047872    -0.000019    -0.126715     9.921156
	   53 D(6,7,10,8)     =     10.094536     0.000059     0.390327    10.484863
	   54 D(6,7,10,9)     =    130.079035     0.000005     0.041829   130.120863
	   55 D(6,7,10,14)    =   -109.922327     0.000034     0.215277  -109.707050
	   56 D(7,10,14,11)   =   -179.994218     0.000003     0.020222  -179.973997
	   57 D(7,10,14,12)   =     59.959777    -0.000003    -0.020034    59.939743
	   58 D(7,10,14,13)   =    -60.005863     0.000008     0.054093   -59.951770
	   59 D(8,10,14,11)   =     60.021874    -0.000044    -0.280587    59.741288
	   60 D(8,10,14,12)   =    -60.024131    -0.000050    -0.320842   -60.344973
	   61 D(8,10,14,13)   =   -179.989771    -0.000039    -0.246716  -180.236486
	   62 D(9,10,14,11)   =    -59.964988     0.000039     0.250980   -59.714008
	   63 D(9,10,14,12)   =    179.989007     0.000034     0.210725   180.199732
	   64 D(9,10,14,13)   =     60.023367     0.000045     0.284852    60.308219
	 ---------------------------------------------------------------------------
	 Forces used to impose fixed constraints are not included.
	  Forces zeroed: 49 

  ==> Convergence Check <==

  Measures of convergence in internal coordinates in au.
  Criteria marked as inactive (o), active & met (*), and active & unmet ( ).
  --------------------------------------------------------------------------------------------- ~
   Step     Total Energy     Delta E     MAX Force     RMS Force      MAX Disp      RMS Disp    ~
  --------------------------------------------------------------------------------------------- ~
    Convergence Criteria    1.00e-06 *    3.00e-04 *             o    1.20e-03 *             o  ~
  --------------------------------------------------------------------------------------------- ~
      1    -158.44391283   -1.58e+02      2.32e-02      9.70e-03 o    2.85e-02      1.25e-02 o  ~
  ---------------------------------------------------------------------------------------------

	Writing optimization data to binary file.
	Structure for next step:
	Cartesian Geometry (in Angstrom)
	    H    -2.2933845067   0.0426455366   0.6371245639
	    H    -2.1629436834   1.6937371742   0.0205091943
	    H    -1.8549683695   0.3238929142  -1.0521562182
	    C    -1.7477983438   0.6926647499  -0.0381120452
	    H     0.2799087708   1.3694282770  -0.3269245976
	    H    -0.1575490439   1.0894327781   1.3652087559
	    C    -0.2554065095   0.7145003834   0.3522087010
	    H     0.5588072194  -1.0672830469   1.2743804367
	    H    -0.3602143891  -1.3742533344  -0.2067256290
	    C     0.3503516768  -0.7093415801   0.2718388274
	    H     2.0756243316  -1.6978866038  -0.5943180476
	    H     2.3793894261  -0.0376616388  -0.0712300225
	    H     1.4611491679  -0.3447168179  -1.5494168408
	    C     1.6592774146  -0.6974299704  -0.5430578756
			--------------------------
			 OPTKING Finished Execution 
			--------------------------

    Structure for next step:
    Molecular point group: c1
    Full point group: C1

    Geometry (in Angstrom), charge = 0, multiplicity = 1:

    H           -2.293424613151     0.042610456654     0.637003303271
    H           -2.162983789788     1.693702094276     0.020387933705
    H           -1.855008475898     0.323857834271    -1.052277478773
    C           -1.747838450258     0.692629670017    -0.038233305813
    H            0.279868664360     1.369393197040    -0.327045858195
    H           -0.157589150275     1.089397698158     1.365087495321
    C           -0.255446615937     0.714465303453     0.352087440422
    H            0.558767112992    -1.067318126831     1.274259176075
    H           -0.360254495481    -1.374288414303    -0.206846889617
    C            0.350311570406    -0.709376660004     0.271717566788
    H            2.075584225203    -1.697921683699    -0.594439308173
    H            2.379349319717    -0.037696718711    -0.071351283086
    H            1.461109061532    -0.344751897862    -1.549538101388
    C            1.659237308159    -0.697465050310    -0.543179136235

gradient() will perform analytic gradient computation.

*** tstart() called on lski1497
*** at Tue Feb 21 17:43:00 2017


         ---------------------------------------------------------
                                   SCF
            by Justin Turney, Rob Parrish, and Andy Simmonett
                              RKS Reference
                        1 Threads,   1000 MiB Core
         ---------------------------------------------------------

  ==> Geometry <==

    Molecular point group: c1
    Full point group: C1

    Geometry (in Angstrom), charge = 0, multiplicity = 1:

       Center              X                  Y                   Z               Mass       
    ------------   -----------------  -----------------  -----------------  -----------------
           H         -2.293424613151     0.042610456654     0.637003303271     1.007825032070
           H         -2.162983789788     1.693702094276     0.020387933705     1.007825032070
           H         -1.855008475898     0.323857834271    -1.052277478773     1.007825032070
           C         -1.747838450258     0.692629670017    -0.038233305813    12.000000000000
           H          0.279868664360     1.369393197040    -0.327045858195     1.007825032070
           H         -0.157589150275     1.089397698158     1.365087495321     1.007825032070
           C         -0.255446615937     0.714465303453     0.352087440422    12.000000000000
           H          0.558767112992    -1.067318126831     1.274259176075     1.007825032070
           H         -0.360254495481    -1.374288414303    -0.206846889617     1.007825032070
           C          0.350311570406    -0.709376660004     0.271717566788    12.000000000000
           H          2.075584225203    -1.697921683699    -0.594439308173     1.007825032070
           H          2.379349319717    -0.037696718711    -0.071351283086     1.007825032070
           H          1.461109061532    -0.344751897862    -1.549538101388     1.007825032070
           C          1.659237308159    -0.697465050310    -0.543179136235    12.000000000000

  Running in c1 symmetry.

  Rotational constants: A =      0.62905  B =      0.12652  C =      0.12397 [cm^-1]
  Rotational constants: A =  18858.49121  B =   3793.05832  C =   3716.53185 [MHz]
  Nuclear repulsion =  131.185875892511035

  Charge       = 0
  Multiplicity = 1
  Electrons    = 34
  Nalpha       = 17
  Nbeta        = 17

  ==> Algorithm <==

  SCF Algorithm Type is DF.
  DIIS enabled.
  MOM disabled.
  Fractional occupation disabled.
  Guess Type is READ.
  Energy threshold   = 1.00e-08
  Density threshold  = 1.00e-08
  Integral threshold = 0.00e+00

  ==> Primary Basis <==

  Basis Set: CC-PVDZ
    Number of shells: 54
    Number of basis function: 106
    Number of Cartesian functions: 110
    Spherical Harmonics?: true
    Max angular momentum: 2

  ==> DFT Potential <==

   => B3LYP Composite Functional <= 

    B3LYP Hybrid-GGA Exchange-Correlation Functional (VWN1-RPA)

    P.J. Stephens et. al., J. Phys. Chem., 98, 11623-11627, 1994

    Points   =           5000
    Deriv    =              1
    GGA      =           TRUE
    Meta     =          FALSE

    X_LRC        =          FALSE
    X_Hybrid     =           TRUE
    X_Alpha      =   2.000000E-01
    X_Omega      =   0.000000E+00
    C_LRC        =          FALSE
    C_Hybrid     =          FALSE
    C_Alpha      =   0.000000E+00
    C_Omega      =   0.000000E+00

   => Exchange Functionals <=

    0.8000    B3_X
    0.2000      HF 

   => Correlation Functionals <=

    0.1900 VWN3RPA_C
    0.8100   LYP_C

   => Molecular Quadrature <=

    Radial Scheme    =       TREUTLER
    Pruning Scheme   =           FLAT
    Nuclear Scheme   =       TREUTLER

    BS radius alpha  =              1
    Pruning alpha    =              1
    Radial Points    =             75
    Spherical Points =            302
    Total Points     =         312788
    Total Blocks     =            273
    Max Points       =           4927
    Max Functions    =            106

  ==> Pre-Iterations <==

   -------------------------------------------------------
    Irrep   Nso     Nmo     Nalpha   Nbeta   Ndocc  Nsocc
   -------------------------------------------------------
     A        106     106       0       0       0       0
   -------------------------------------------------------
    Total     106     106      17      17      17       0
   -------------------------------------------------------

  ==> Integral Setup <==

  ==> DFJK: Density-Fitted J/K Matrices <==

    J tasked:                  Yes
    K tasked:                  Yes
    wK tasked:                  No
    OpenMP threads:              1
    Integrals threads:           1
    Memory (MB):               715
    Algorithm:                Core
    Integral Cache:           NONE
    Schwarz Cutoff:          1E-12
    Fitting Condition:       1E-12

   => Auxiliary Basis Set <=

  Basis Set: 
    Number of shells: 186
    Number of basis function: 510
    Number of Cartesian functions: 574
    Spherical Harmonics?: true
    Max angular momentum: 3

  Minimum eigenvalue in the overlap matrix is 4.5254080678E-03.
  Using Symmetric Orthogonalization.
  SCF Guess was Projection but file not found.
  Switching over to SAD guess.

  SCF Guess: Superposition of Atomic Densities via on-the-fly atomic UHF.

  ==> Iterations <==

                           Total Energy        Delta E     RMS |[F,P]|

   @DF-RKS iter   0:  -158.99847029200782   -1.58998e+02   3.32783e-02 
   @DF-RKS iter   1:  -158.32515794482956    6.73312e-01   4.35135e-03 
   @DF-RKS iter   2:  -158.28858496694545    3.65730e-02   5.07705e-03 DIIS
   @DF-RKS iter   3:  -158.44911145930632   -1.60526e-01   3.50907e-04 DIIS
   @DF-RKS iter   4:  -158.44978335850431   -6.71899e-04   1.15553e-04 DIIS
   @DF-RKS iter   5:  -158.44984911078450   -6.57523e-05   4.50474e-05 DIIS
   @DF-RKS iter   6:  -158.44986033698129   -1.12262e-05   4.88629e-06 DIIS
   @DF-RKS iter   7:  -158.44986048069180   -1.43711e-07   9.28395e-07 DIIS
   @DF-RKS iter   8:  -158.44986048643426   -5.74246e-09   1.38305e-07 DIIS
   @DF-RKS iter   9:  -158.44986048655957   -1.25311e-10   2.81477e-08 DIIS
   @DF-RKS iter  10:  -158.44986048656440   -4.83169e-12   4.73618e-09 DIIS

  ==> Post-Iterations <==

    Orbital Energies (a.u.)
    -----------------------

    Doubly Occupied:                                                      

       1A    -10.173832     2A    -10.173673     3A    -10.169956  
       4A    -10.169894     5A     -0.790818     6A     -0.720516  
       7A     -0.628771     8A     -0.574747     9A     -0.465278  
      10A     -0.432473    11A     -0.421399    12A     -0.398036  
      13A     -0.362824    14A     -0.361144    15A     -0.328129  
      16A     -0.322304    17A     -0.312414  

    Virtual:                                                              

      18A      0.062325    19A      0.087943    20A      0.100460  
      21A      0.107427    22A      0.140668    23A      0.147356  
      24A      0.148124    25A      0.148834    26A      0.155106  
      27A      0.165604    28A      0.222963    29A      0.246589  
      30A      0.257246    31A      0.403166    32A      0.418753  
      33A      0.428547    34A      0.446408    35A      0.484960  
      36A      0.490649    37A      0.496528    38A      0.580736  
      39A      0.585006    40A      0.630672    41A      0.641900  
      42A      0.657816    43A      0.659025    44A      0.670457  
      45A      0.672369    46A      0.682738    47A      0.686182  
      48A      0.692623    49A      0.704249    50A      0.727791  
      51A      0.730729    52A      0.742267    53A      0.875615  
      54A      0.880455    55A      0.972973    56A      1.118258  
      57A      1.130986    58A      1.187128    59A      1.218755  
      60A      1.250628    61A      1.333601    62A      1.368378  
      63A      1.431656    64A      1.432957    65A      1.468158  
      66A      1.487887    67A      1.550286    68A      1.577128  
      69A      1.588651    70A      1.633608    71A      1.650677  
      72A      1.656309    73A      1.674634    74A      1.683836  
      75A      1.691731    76A      1.701170    77A      1.708109  
      78A      1.726492    79A      1.749676    80A      1.774416  
      81A      1.780473    82A      1.789150    83A      1.854359  
      84A      1.910074    85A      1.972117    86A      2.018070  
      87A      2.022980    88A      2.060852    89A      2.087462  
      90A      2.148485    91A      2.196863    92A      2.231555  
      93A      2.254718    94A      2.289291    95A      2.316972  
      96A      2.322660    97A      2.458111    98A      2.469250  
      99A      2.494809   100A      2.509494   101A      2.557106  
     102A      2.559534   103A      2.578429   104A      2.611082  
     105A      2.654765   106A      2.714982  

    Final Occupation by Irrep:
              A 
    DOCC [    17 ]

  Energy converged.

  @DF-RKS Final Energy:  -158.44986048656440

   => Energetics <=

    Nuclear Repulsion Energy =            131.1858758925110351
    One-Electron Energy =                -470.8264793591888520
    Two-Electron Energy =                 201.8236557276892995
    DFT Exchange-Correlation Energy =     -20.6329127475758902
    Empirical Dispersion Energy =           0.0000000000000000
    PCM Polarization Energy =               0.0000000000000000
    EFP Energy =                            0.0000000000000000
    Total Energy =                       -158.4498604865644040


  Saving occupied orbitals to File 180.

*** tstop() called on lski1497 at Tue Feb 21 17:45:05 2017
Module time:
	user time   =     101.06 seconds =       1.68 minutes
	system time =       1.03 seconds =       0.02 minutes
	total time  =        125 seconds =       2.08 minutes
Total time:
	user time   =     256.02 seconds =       4.27 minutes
	system time =       2.73 seconds =       0.05 minutes
	total time  =        296 seconds =       4.93 minutes


Properties will be evaluated at   0.000000,   0.000000,   0.000000 Bohr

Properties computed using the SCF density matrix

  Nuclear Dipole Moment: (a.u.)
     X:    -0.0699      Y:    -0.0028      Z:    -0.4732

  Electronic Dipole Moment: (a.u.)
     X:     0.0738      Y:     0.0029      Z:     0.4982

  Dipole Moment: (a.u.)
     X:     0.0039      Y:     0.0000      Z:     0.0250     Total:     0.0253

  Dipole Moment: (Debye)
     X:     0.0098      Y:     0.0001      Z:     0.0635     Total:     0.0643


*** tstart() called on lski1497
*** at Tue Feb 21 17:45:05 2017


         ------------------------------------------------------------
                                   SCF GRAD                          
                          Rob Parrish, Justin Turney,                
                       Andy Simmonett, and Alex Sokolov              
         ------------------------------------------------------------

  ==> Geometry <==

    Molecular point group: c1
    Full point group: C1

    Geometry (in Angstrom), charge = 0, multiplicity = 1:

       Center              X                  Y                   Z               Mass       
    ------------   -----------------  -----------------  -----------------  -----------------
           H         -2.293424613151     0.042610456654     0.637003303271     1.007825032070
           H         -2.162983789788     1.693702094276     0.020387933705     1.007825032070
           H         -1.855008475898     0.323857834271    -1.052277478773     1.007825032070
           C         -1.747838450258     0.692629670017    -0.038233305813    12.000000000000
           H          0.279868664360     1.369393197040    -0.327045858195     1.007825032070
           H         -0.157589150275     1.089397698158     1.365087495321     1.007825032070
           C         -0.255446615937     0.714465303453     0.352087440422    12.000000000000
           H          0.558767112992    -1.067318126831     1.274259176075     1.007825032070
           H         -0.360254495481    -1.374288414303    -0.206846889617     1.007825032070
           C          0.350311570406    -0.709376660004     0.271717566788    12.000000000000
           H          2.075584225203    -1.697921683699    -0.594439308173     1.007825032070
           H          2.379349319717    -0.037696718711    -0.071351283086     1.007825032070
           H          1.461109061532    -0.344751897862    -1.549538101388     1.007825032070
           C          1.659237308159    -0.697465050310    -0.543179136235    12.000000000000

  Nuclear repulsion =  131.185875892511035

  ==> Basis Set <==

  Basis Set: CC-PVDZ
    Number of shells: 54
    Number of basis function: 106
    Number of Cartesian functions: 110
    Spherical Harmonics?: true
    Max angular momentum: 2

  ==> DFJKGrad: Density-Fitted SCF Gradients <==

    Gradient:                    1
    J tasked:                  Yes
    K tasked:                  Yes
    wK tasked:                  No
    OpenMP threads:              1
    Integrals threads:           1
    Memory (MB):               715
    Schwarz Cutoff:          0E+00
    Fitting Condition:       1E-12

   => Auxiliary Basis Set <=

  Basis Set: 
    Number of shells: 186
    Number of basis function: 510
    Number of Cartesian functions: 574
    Spherical Harmonics?: true
    Max angular momentum: 3

  ==> DFT Potential <==

   => B3LYP Composite Functional <= 

    B3LYP Hybrid-GGA Exchange-Correlation Functional (VWN1-RPA)

    P.J. Stephens et. al., J. Phys. Chem., 98, 11623-11627, 1994

    Points   =           5000
    Deriv    =              1
    GGA      =           TRUE
    Meta     =          FALSE

    X_LRC        =          FALSE
    X_Hybrid     =           TRUE
    X_Alpha      =   2.000000E-01
    X_Omega      =   0.000000E+00
    C_LRC        =          FALSE
    C_Hybrid     =          FALSE
    C_Alpha      =   0.000000E+00
    C_Omega      =   0.000000E+00

   => Exchange Functionals <=

    0.8000    B3_X
    0.2000      HF 

   => Correlation Functionals <=

    0.1900 VWN3RPA_C
    0.8100   LYP_C

   => Molecular Quadrature <=

    Radial Scheme    =       TREUTLER
    Pruning Scheme   =           FLAT
    Nuclear Scheme   =       TREUTLER

    BS radius alpha  =              1
    Pruning alpha    =              1
    Radial Points    =             75
    Spherical Points =            302
    Total Points     =         312788
    Total Blocks     =            273
    Max Points       =           4927
    Max Functions    =            106


  -Total Gradient:
     Atom            X                  Y                   Z
    ------   -----------------  -----------------  -----------------
       1        0.008437819690     0.006812880473    -0.005922030564
       2        0.007751257308    -0.009346699372     0.000318168769
       3        0.003804599698     0.004057894946     0.011156878346
       4       -0.019740108052    -0.006754436595    -0.007337928405
       5       -0.006092767271    -0.009654908558     0.004924464147
       6       -0.003003178483    -0.008211677901    -0.009431968501
       7        0.017726688085     0.020782602793     0.005015243554
       8        0.000110526815     0.008046434670    -0.009954738015
       9        0.007433248300     0.009804556067     0.002835446840
      10       -0.015349484319    -0.020759314217     0.009883427464
      11       -0.007461594309     0.009684404363     0.002458402932
      12       -0.009708987753    -0.006797123070    -0.003103972786
      13       -0.000262893272    -0.003759068446     0.011687313340
      14        0.016356131468     0.006094611433    -0.012521653282


*** tstop() called on lski1497 at Tue Feb 21 17:45:50 2017
Module time:
	user time   =      39.89 seconds =       0.66 minutes
	system time =       0.51 seconds =       0.01 minutes
	total time  =         45 seconds =       0.75 minutes
Total time:
	user time   =     295.94 seconds =       4.93 minutes
	system time =       3.24 seconds =       0.05 minutes
	total time  =        341 seconds =       5.68 minutes

			-----------------------------------------
			 OPTKING 2.0: for geometry optimizations 
			  - R.A. King,  Bethel University        
			-----------------------------------------

	Previous internal coordinate definitions found.
	---Fragment 1 Geometry and Gradient---
	 H          -4.3339444253        0.0805220935        1.2037617889
	 H          -4.0874469926        3.2006331089        0.0385276111
	 H          -3.5054579936        0.6120026128       -1.9885162507
	 C          -3.3029359955        1.3088803878       -0.0722504771
	 H           0.5288751288        2.5877781106       -0.6180271049
	 H          -0.2978003355        2.0586632993        2.5796415136
	 C          -0.4827241457        1.3501437550        0.6653488372
	 H           1.0559168156       -2.0169389564        2.4080008651
	 H          -0.6807823346       -2.5970287306       -0.3908839728
	 C           0.6619929292       -1.3405276125        0.5134717867
	 H           3.9222857514       -3.2086069773       -1.1233274951
	 H           4.4963185887       -0.0712364745       -0.1348343843
	 H           2.7610959766       -0.6514866708       -2.9282026441
	 C           3.1355041019       -1.3180179323       -1.0264598086
	             0.0084378197        0.0068128805       -0.0059220306
	             0.0077512573       -0.0093466994        0.0003181688
	             0.0038045997        0.0040578949        0.0111568783
	            -0.0197401081       -0.0067544366       -0.0073379284
	            -0.0060927673       -0.0096549086        0.0049244641
	            -0.0030031785       -0.0082116779       -0.0094319685
	             0.0177266881        0.0207826028        0.0050152436
	             0.0001105268        0.0080464347       -0.0099547380
	             0.0074332483        0.0098045561        0.0028354468
	            -0.0153494843       -0.0207593142        0.0098834275
	            -0.0074615943        0.0096844044        0.0024584029
	            -0.0097089878       -0.0067971231       -0.0031039728
	            -0.0002628933       -0.0037590684        0.0116873133
	             0.0163561315        0.0060946114       -0.0125216533

	---Fragment 1 Intrafragment Coordinates---
	 - Coordinate -           - BOHR/RAD -       - ANG/DEG -
	 R(1,4)           =         2.049402	       1.084497
	 R(2,4)           =         2.050965	       1.085324
	 R(3,4)           =         2.049080	       1.084326
	 R(4,7)           =         2.915365	       1.542744
	 R(5,7)           =         2.049909	       1.084765
	 R(6,7)           =         2.049564	       1.084583
	 R(7,10)          =         2.927995	       1.549428
	 R(8,10)          =         2.049866	       1.084742
	 R(9,10)          =         2.049317	       1.084452
	 R(10,14)         =         2.913787	       1.541910
	 R(11,14)         =         2.050057	       1.084844
	 R(12,14)         =         2.049701	       1.084655
	 R(13,14)         =         2.049651	       1.084629
	 B(1,4,2)         =         1.903696	     109.073734
	 B(1,4,3)         =         1.905729	     109.190207
	 B(1,4,7)         =         1.915178	     109.731591
	 B(2,4,3)         =         1.903287	     109.050331
	 B(2,4,7)         =         1.921228	     110.078259
	 B(3,4,7)         =         1.914555	     109.695947
	 B(4,7,5)         =         1.904481	     109.118732
	 B(4,7,6)         =         1.905490	     109.176531
	 B(4,7,10)        =         1.930574	     110.613716
	 B(5,7,6)         =         1.908697	     109.360274
	 B(5,7,10)        =         1.906475	     109.232945
	 B(6,7,10)        =         1.907996	     109.320136
	 B(7,10,8)        =         1.907548	     109.294440
	 B(7,10,9)        =         1.907269	     109.278445
	 B(7,10,14)       =         1.930713	     110.621730
	 B(8,10,9)        =         1.908638	     109.356877
	 B(8,10,14)       =         1.904839	     109.139245
	 B(9,10,14)       =         1.904704	     109.131479
	 B(10,14,11)      =         1.921589	     110.098968
	 B(10,14,12)      =         1.916004	     109.778960
	 B(10,14,13)      =         1.915380	     109.743195
	 B(11,14,12)      =         1.903622	     109.069494
	 B(11,14,13)      =         1.903036	     109.035925
	 B(12,14,13)      =         1.904009	     109.091691
	 D(1,4,7,5)       =        -3.138485	    -179.821967
	 D(1,4,7,6)       =        -1.053271	     -60.347962
	 D(1,4,7,10)      =         1.046977	      59.987360
	 D(2,4,7,5)       =        -1.043241	     -59.773313
	 D(2,4,7,6)       =         1.041974	      59.700692
	 D(2,4,7,10)      =        -3.140964	    -179.963986
	 D(3,4,7,5)       =         1.051107	      60.224019
	 D(3,4,7,6)       =         3.136322	     179.698024
	 D(3,4,7,10)      =        -1.046616	     -59.966654
	 D(4,7,10,8)      =        -1.915754	    -109.764621
	 D(4,7,10,9)      =         0.172288	       9.871379
	 D(4,7,10,14)     =         2.269687	     130.043466
	 D(5,7,10,8)      =         2.270901	     130.113069
	 D(5,7,10,9)      =        -1.924242	    -110.250930
	 D(5,7,10,14)     =         0.173157	       9.921156
	 D(6,7,10,8)      =         0.182995	      10.484863
	 D(6,7,10,9)      =         2.271037	     130.120863
	 D(6,7,10,14)     =        -1.914749	    -109.707050
	 D(7,10,14,11)    =        -3.141139	    -179.973997
	 D(7,10,14,12)    =         1.046146	      59.939743
	 D(7,10,14,13)    =        -1.046356	     -59.951770
	 D(8,10,14,11)    =         1.042682	      59.741288
	 D(8,10,14,12)    =        -1.053218	     -60.344973
	 D(8,10,14,13)    =         3.137465	     179.763514
	 D(9,10,14,11)    =        -1.042206	     -59.714008
	 D(9,10,14,12)    =        -3.138107	    -179.800268
	 D(9,10,14,13)    =         1.052577	      60.308219

	Current energy   :      -158.4498604866

	Energy change for the previous step:
		Projected    :        -0.0073627832
		Actual       :        -0.0059476565

	Performing BFGS update.
	Previous computed or guess Hessian on step 1.
	Steps to be used in Hessian update: 1
	Adding user-defined constraint: Fragment 1; Coordinate 49:
		Value =     2.269687; Fixed value    =     2.268930
		Force =    -0.000397; Force constant =     0.525000
	Removing off-diagonal coupling between coordinate 49 and others.
	Taking RFO optimization step.
	Going to follow RFO solution 1.
	Using RFO vector 1.

	Determining step-restricting scale parameter for RS-RFO.
	Maximum step size allowed    0.10000

	 Iter      |step|        alpha        rfo_root  
	------------------------------------------------
	    0     0.20793       1.00000           1
	    1     0.15490       6.70233           1
	    2     0.12215      17.44204           1
	    3     0.10566      29.03547           1
	    4     0.10052      34.28862           1
	    5     0.10001      34.87283           1
	------------------------------------------------
	Norm of target step-size    0.10001
	Projected energy change by RFO approximation:        -0.0040221101

	Back-transformation to cartesian coordinates...
	Successfully converged to displaced geometry.

	--- Internal Coordinate Step in ANG or DEG, aJ/ANG or AJ/DEG ---
	 ---------------------------------------------------------------------------
	   Coordinate                Previous        Force       Change         New 
	   ----------                --------       ------       ------       ------
	    1 R(1,4)          =      1.084497     0.099001     0.012325     1.096822
	    2 R(2,4)          =      1.085324     0.095307     0.011614     1.096938
	    3 R(3,4)          =      1.084326     0.100427     0.012496     1.096822
	    4 R(4,7)          =      1.542744    -0.002306    -0.002445     1.540299
	    5 R(5,7)          =      1.084765     0.098192     0.012413     1.097178
	    6 R(6,7)          =      1.084583     0.098202     0.012127     1.096710
	    7 R(7,10)         =      1.549428     0.046663     0.004987     1.554416
	    8 R(8,10)         =      1.084742     0.097503     0.012047     1.096789
	    9 R(9,10)         =      1.084452     0.099958     0.012604     1.097056
	   10 R(10,14)        =      1.541910     0.000763    -0.001964     1.539946
	   11 R(11,14)        =      1.084844     0.098125     0.011921     1.096764
	   12 R(12,14)        =      1.084655     0.098301     0.012244     1.096899
	   13 R(13,14)        =      1.084629     0.099014     0.012336     1.096965
	   14 B(1,4,2)        =    109.073734    -0.000256    -0.672943   108.400791
	   15 B(1,4,3)        =    109.190207    -0.000220    -0.668354   108.521853
	   16 B(1,4,7)        =    109.731591     0.000206     0.611410   110.343000
	   17 B(2,4,3)        =    109.050331    -0.000240    -0.636088   108.414244
	   18 B(2,4,7)        =    110.078259     0.000327     0.780881   110.859140
	   19 B(3,4,7)        =    109.695947     0.000173     0.536637   110.232584
	   20 B(4,7,5)        =    109.118732    -0.000159    -0.282529   108.836203
	   21 B(4,7,6)        =    109.176531    -0.000182    -0.302967   108.873564
	   22 B(4,7,10)       =    110.613716     0.000600     1.309129   111.922845
	   23 B(5,7,6)        =    109.360274    -0.000076    -0.585291   108.774984
	   24 B(5,7,10)       =    109.232945    -0.000115    -0.151822   109.081123
	   25 B(6,7,10)       =    109.320136    -0.000074    -0.021199   109.298937
	   26 B(7,10,8)       =    109.294440    -0.000073    -0.015039   109.279401
	   27 B(7,10,9)       =    109.278445    -0.000119    -0.165998   109.112447
	   28 B(7,10,14)      =    110.621730     0.000601     1.306879   111.928609
	   29 B(8,10,9)       =    109.356877    -0.000076    -0.586249   108.770628
	   30 B(8,10,14)      =    109.139245    -0.000180    -0.293477   108.845768
	   31 B(9,10,14)      =    109.131479    -0.000158    -0.280937   108.850542
	   32 B(10,14,11)     =    110.098968     0.000327     0.777043   110.876012
	   33 B(10,14,12)     =    109.778960     0.000198     0.588491   110.367450
	   34 B(10,14,13)     =    109.743195     0.000166     0.516622   110.259817
	   35 B(11,14,12)     =    109.069494    -0.000253    -0.667097   108.402397
	   36 B(11,14,13)     =    109.035925    -0.000237    -0.628753   108.407171
	   37 B(12,14,13)     =    109.091691    -0.000210    -0.635731   108.455960
	   38 D(1,4,7,5)      =   -179.821967     0.000028     0.432880  -179.389086
	   39 D(1,4,7,6)      =    -60.347962    -0.000040    -0.616189   -60.964151
	   40 D(1,4,7,10)     =     59.987360    -0.000002    -0.015047    59.972313
	   41 D(2,4,7,5)      =    -59.773313     0.000032     0.486917   -59.286396
	   42 D(2,4,7,6)      =     59.700692    -0.000036    -0.562152    59.138540
	   43 D(2,4,7,10)     =   -179.963986     0.000002     0.038990  -179.924996
	   44 D(3,4,7,5)      =     60.224019     0.000036     0.536848    60.760867
	   45 D(3,4,7,6)      =    179.698024    -0.000032    -0.512222   179.185802
	   46 D(3,4,7,10)     =    -59.966654     0.000006     0.088920   -59.877734
	   47 D(4,7,10,8)     =   -109.764621     0.000030     0.528533  -109.236089
	   48 D(4,7,10,9)     =      9.871379    -0.000018    -0.291586     9.579793
	   49 D(4,7,10,14)    =    130.043466     0.000006     0.075159   130.118625
	   50 D(5,7,10,8)     =    130.113069     0.000007     0.154691   130.267761
	   51 D(5,7,10,9)     =   -110.250930    -0.000041    -0.665427  -110.916358
	   52 D(5,7,10,14)    =      9.921156    -0.000018    -0.298682     9.622475
	   53 D(6,7,10,8)     =     10.484863     0.000054     0.968736    11.453599
	   54 D(6,7,10,9)     =    130.120863     0.000006     0.148617   130.269480
	   55 D(6,7,10,14)    =   -109.707050     0.000030     0.515363  -109.191687
	   56 D(7,10,14,11)   =   -179.973997     0.000003     0.046797  -179.927200
	   57 D(7,10,14,12)   =     59.939743    -0.000001     0.001350    59.941093
	   58 D(7,10,14,13)   =    -59.951770     0.000006     0.091708   -59.860062
	   59 D(8,10,14,11)   =     59.741288    -0.000036    -0.565425    59.175863
	   60 D(8,10,14,12)   =    -60.344973    -0.000040    -0.610871   -60.955844
	   61 D(8,10,14,13)   =    179.763514    -0.000032    -0.520513   179.243000
	   62 D(9,10,14,11)   =    -59.714008     0.000031     0.477877   -59.236130
	   63 D(9,10,14,12)   =   -179.800268     0.000027     0.432431  -179.367837
	   64 D(9,10,14,13)   =     60.308219     0.000035     0.522789    60.831008
	 ---------------------------------------------------------------------------
	 Forces used to impose fixed constraints are not included.
	  Forces zeroed: 49 

  ==> Convergence Check <==

  Measures of convergence in internal coordinates in au.
  Criteria marked as inactive (o), active & met (*), and active & unmet ( ).
  ---------------------------------------------------------------------------------------------
   Step     Total Energy     Delta E     MAX Force     RMS Force      MAX Disp      RMS Disp   
  ---------------------------------------------------------------------------------------------
    Convergence Criteria    1.00e-06 *    3.00e-04 *             o    1.20e-03 *             o
  ---------------------------------------------------------------------------------------------
      2    -158.44986049   -5.95e-03      1.22e-02      5.30e-03 o    2.38e-02      1.25e-02 o  ~
  ---------------------------------------------------------------------------------------------

	Writing optimization data to binary file.
	Structure for next step:
	Cartesian Geometry (in Angstrom)
	    H    -2.3227698842   0.0304887063   0.6421781440
	    H    -2.1964864816   1.6975423825   0.0332024596
	    H    -1.8875161698   0.3269036969  -1.0587179045
	    C    -1.7641446117   0.6914866668  -0.0316455056
	    H     0.2600204074   1.3854086570  -0.3296694356
	    H    -0.1736693918   1.0909368929   1.3751272655
	    C    -0.2723727099   0.7098613103   0.3515008103
	    H     0.5768320350  -1.0687123263   1.2791263011
	    H    -0.3423501537  -1.3902744450  -0.2150412451
	    C     0.3662046540  -0.7047561231   0.2661516384
	    H     2.1117320127  -1.7018833425  -0.5922806014
	    H     2.4089242673  -0.0256121333  -0.0751310831
	    H     1.4902099841  -0.3479645125  -1.5652381105
	    C     1.6770677136  -0.6961877279  -0.5419311788
			--------------------------
			 OPTKING Finished Execution 
			--------------------------

    Structure for next step:
    Molecular point group: c1
    Full point group: C1

    Geometry (in Angstrom), charge = 0, multiplicity = 1:

    H           -2.322862857453     0.030460153233     0.641859573433
    H           -2.196579454930     1.697513829466     0.032883889099
    H           -1.887609143064     0.326875143790    -1.059036474992
    C           -1.764237585007     0.691458113770    -0.031964076158
    H            0.259927434101     1.385380103889    -0.329988006128
    H           -0.173762365090     1.090908339870     1.374808694997
    C           -0.272465683204     0.709832757214     0.351182239786
    H            0.576739061748    -1.068740879395     1.278807730518
    H           -0.342443126991    -1.390302998089    -0.215359815671
    C            0.366111680721    -0.704784676153     0.265833067903
    H            2.111639039402    -1.701911895524    -0.592599171898
    H            2.408831294016    -0.025640686419    -0.075449653669
    H            1.490117010837    -0.347993065557    -1.565556681082
    C            1.676974740338    -0.696216280965    -0.542249749379

gradient() will perform analytic gradient computation.

*** tstart() called on lski1497
*** at Tue Feb 21 17:45:50 2017


         ---------------------------------------------------------
                                   SCF
            by Justin Turney, Rob Parrish, and Andy Simmonett
                              RKS Reference
                        1 Threads,   1000 MiB Core
         ---------------------------------------------------------

  ==> Geometry <==

    Molecular point group: c1
    Full point group: C1

    Geometry (in Angstrom), charge = 0, multiplicity = 1:

       Center              X                  Y                   Z               Mass       
    ------------   -----------------  -----------------  -----------------  -----------------
           H         -2.322862857453     0.030460153233     0.641859573433     1.007825032070
           H         -2.196579454930     1.697513829466     0.032883889099     1.007825032070
           H         -1.887609143064     0.326875143790    -1.059036474992     1.007825032070
           C         -1.764237585007     0.691458113770    -0.031964076158    12.000000000000
           H          0.259927434101     1.385380103889    -0.329988006128     1.007825032070
           H         -0.173762365090     1.090908339870     1.374808694997     1.007825032070
           C         -0.272465683204     0.709832757214     0.351182239786    12.000000000000
           H          0.576739061748    -1.068740879395     1.278807730518     1.007825032070
           H         -0.342443126991    -1.390302998089    -0.215359815671     1.007825032070
           C          0.366111680721    -0.704784676153     0.265833067903    12.000000000000
           H          2.111639039402    -1.701911895524    -0.592599171898     1.007825032070
           H          2.408831294016    -0.025640686419    -0.075449653669     1.007825032070
           H          1.490117010837    -0.347993065557    -1.565556681082     1.007825032070
           C          1.676974740338    -0.696216280965    -0.542249749379    12.000000000000

  Running in c1 symmetry.

  Rotational constants: A =      0.63175  B =      0.12417  C =      0.12180 [cm^-1]
  Rotational constants: A =  18939.30391  B =   3722.54725  C =   3651.58380 [MHz]
  Nuclear repulsion =  130.315794392480086

  Charge       = 0
  Multiplicity = 1
  Electrons    = 34
  Nalpha       = 17
  Nbeta        = 17

  ==> Algorithm <==

  SCF Algorithm Type is DF.
  DIIS enabled.
  MOM disabled.
  Fractional occupation disabled.
  Guess Type is READ.
  Energy threshold   = 1.00e-08
  Density threshold  = 1.00e-08
  Integral threshold = 0.00e+00

  ==> Primary Basis <==

  Basis Set: CC-PVDZ
    Number of shells: 54
    Number of basis function: 106
    Number of Cartesian functions: 110
    Spherical Harmonics?: true
    Max angular momentum: 2

  ==> DFT Potential <==

   => B3LYP Composite Functional <= 

    B3LYP Hybrid-GGA Exchange-Correlation Functional (VWN1-RPA)

    P.J. Stephens et. al., J. Phys. Chem., 98, 11623-11627, 1994

    Points   =           5000
    Deriv    =              1
    GGA      =           TRUE
    Meta     =          FALSE

    X_LRC        =          FALSE
    X_Hybrid     =           TRUE
    X_Alpha      =   2.000000E-01
    X_Omega      =   0.000000E+00
    C_LRC        =          FALSE
    C_Hybrid     =          FALSE
    C_Alpha      =   0.000000E+00
    C_Omega      =   0.000000E+00

   => Exchange Functionals <=

    0.8000    B3_X
    0.2000      HF 

   => Correlation Functionals <=

    0.1900 VWN3RPA_C
    0.8100   LYP_C

   => Molecular Quadrature <=

    Radial Scheme    =       TREUTLER
    Pruning Scheme   =           FLAT
    Nuclear Scheme   =       TREUTLER

    BS radius alpha  =              1
    Pruning alpha    =              1
    Radial Points    =             75
    Spherical Points =            302
    Total Points     =         312810
    Total Blocks     =            272
    Max Points       =           4884
    Max Functions    =            106

  ==> Pre-Iterations <==

   -------------------------------------------------------
    Irrep   Nso     Nmo     Nalpha   Nbeta   Ndocc  Nsocc
   -------------------------------------------------------
     A        106     106       0       0       0       0
   -------------------------------------------------------
    Total     106     106      17      17      17       0
   -------------------------------------------------------

  ==> Integral Setup <==

  ==> DFJK: Density-Fitted J/K Matrices <==

    J tasked:                  Yes
    K tasked:                  Yes
    wK tasked:                  No
    OpenMP threads:              1
    Integrals threads:           1
    Memory (MB):               715
    Algorithm:                Core
    Integral Cache:           NONE
    Schwarz Cutoff:          1E-12
    Fitting Condition:       1E-12

   => Auxiliary Basis Set <=

  Basis Set: 
    Number of shells: 186
    Number of basis function: 510
    Number of Cartesian functions: 574
    Spherical Harmonics?: true
    Max angular momentum: 3

  Minimum eigenvalue in the overlap matrix is 4.5718215614E-03.
  Using Symmetric Orthogonalization.
  SCF Guess was Projection but file not found.
  Switching over to SAD guess.

  SCF Guess: Superposition of Atomic Densities via on-the-fly atomic UHF.

  ==> Iterations <==

                           Total Energy        Delta E     RMS |[F,P]|

   @DF-RKS iter   0:  -158.95154856886938   -1.58952e+02   3.27060e-02 
   @DF-RKS iter   1:  -158.33353983140952    6.18009e-01   4.23733e-03 
   @DF-RKS iter   2:  -158.29547341324081    3.80664e-02   4.99622e-03 DIIS
   @DF-RKS iter   3:  -158.45192189771038   -1.56448e-01   3.46583e-04 DIIS
   @DF-RKS iter   4:  -158.45258648594569   -6.64588e-04   1.11449e-04 DIIS
   @DF-RKS iter   5:  -158.45264710541483   -6.06195e-05   4.53312e-05 DIIS
   @DF-RKS iter   6:  -158.45265850645976   -1.14010e-05   4.83375e-06 DIIS
   @DF-RKS iter   7:  -158.45265864732835   -1.40869e-07   9.18563e-07 DIIS
   @DF-RKS iter   8:  -158.45265865298691   -5.65856e-09   1.41761e-07 DIIS
   @DF-RKS iter   9:  -158.45265865311990   -1.32985e-10   2.81072e-08 DIIS
   @DF-RKS iter  10:  -158.45265865312558   -5.68434e-12   3.81985e-09 DIIS

  ==> Post-Iterations <==

    Orbital Energies (a.u.)
    -----------------------

    Doubly Occupied:                                                      

       1A    -10.177904     2A    -10.177757     3A    -10.174111  
       4A    -10.174089     5A     -0.788342     6A     -0.719327  
       7A     -0.627013     8A     -0.571659     9A     -0.462126  
      10A     -0.430725    11A     -0.419444    12A     -0.396973  
      13A     -0.361652    14A     -0.359330    15A     -0.326375  
      16A     -0.320013    17A     -0.315689  

    Virtual:                                                              

      18A      0.060809    19A      0.085844    20A      0.098339  
      21A      0.105226    22A      0.138168    23A      0.144073  
      24A      0.146204    25A      0.146301    26A      0.150798  
      27A      0.162543    28A      0.221178    29A      0.248222  
      30A      0.258441    31A      0.401201    32A      0.415914  
      33A      0.424833    34A      0.442674    35A      0.485384  
      36A      0.491634    37A      0.496514    38A      0.580850  
      39A      0.581985    40A      0.625388    41A      0.636323  
      42A      0.651170    43A      0.652700    44A      0.665486  
      45A      0.668345    46A      0.673843    47A      0.680053  
      48A      0.691906    49A      0.698114    50A      0.720344  
      51A      0.723716    52A      0.738475    53A      0.873738  
      54A      0.880825    55A      0.970395    56A      1.112057  
      57A      1.131975    58A      1.185508    59A      1.206938  
      60A      1.245118    61A      1.324554    62A      1.360592  
      63A      1.426264    64A      1.427217    65A      1.463345  
      66A      1.476412    67A      1.539593    68A      1.576920  
      69A      1.579337    70A      1.628068    71A      1.645300  
      72A      1.650002    73A      1.668212    74A      1.671983  
      75A      1.680196    76A      1.692357    77A      1.704410  
      78A      1.718284    79A      1.742621    80A      1.762360  
      81A      1.771628    82A      1.777496    83A      1.848094  
      84A      1.893605    85A      1.954771    86A      2.006451  
      87A      2.026272    88A      2.052773    89A      2.079372  
      90A      2.126758    91A      2.176991    92A      2.212284  
      93A      2.236619    94A      2.274886    95A      2.289999  
      96A      2.298237    97A      2.423153    98A      2.433669  
      99A      2.473278   100A      2.490930   101A      2.532288  
     102A      2.539534   103A      2.565481   104A      2.587817  
     105A      2.633703   106A      2.696544  

    Final Occupation by Irrep:
              A 
    DOCC [    17 ]

  Energy converged.

  @DF-RKS Final Energy:  -158.45265865312558

   => Energetics <=

    Nuclear Repulsion Energy =            130.3157943924800861
    One-Electron Energy =                -469.1246708709077780
    Two-Electron Energy =                 200.9525224395515579
    DFT Exchange-Correlation Energy =     -20.5963046142494335
    Empirical Dispersion Energy =           0.0000000000000000
    PCM Polarization Energy =               0.0000000000000000
    EFP Energy =                            0.0000000000000000
    Total Energy =                       -158.4526586531255816


  Saving occupied orbitals to File 180.

*** tstop() called on lski1497 at Tue Feb 21 17:47:46 2017
Module time:
	user time   =     107.39 seconds =       1.79 minutes
	system time =       1.12 seconds =       0.02 minutes
	total time  =        116 seconds =       1.93 minutes
Total time:
	user time   =     404.02 seconds =       6.73 minutes
	system time =       4.42 seconds =       0.07 minutes
	total time  =        457 seconds =       7.62 minutes


Properties will be evaluated at   0.000000,   0.000000,   0.000000 Bohr

Properties computed using the SCF density matrix

  Nuclear Dipole Moment: (a.u.)
     X:    -0.0713      Y:    -0.0032      Z:    -0.4778

  Electronic Dipole Moment: (a.u.)
     X:     0.0747      Y:     0.0034      Z:     0.5006

  Dipole Moment: (a.u.)
     X:     0.0035      Y:     0.0002      Z:     0.0229     Total:     0.0231

  Dipole Moment: (Debye)
     X:     0.0089      Y:     0.0004      Z:     0.0581     Total:     0.0588


*** tstart() called on lski1497
*** at Tue Feb 21 17:47:46 2017


         ------------------------------------------------------------
                                   SCF GRAD                          
                          Rob Parrish, Justin Turney,                
                       Andy Simmonett, and Alex Sokolov              
         ------------------------------------------------------------

  ==> Geometry <==

    Molecular point group: c1
    Full point group: C1

    Geometry (in Angstrom), charge = 0, multiplicity = 1:

       Center              X                  Y                   Z               Mass       
    ------------   -----------------  -----------------  -----------------  -----------------
           H         -2.322862857453     0.030460153233     0.641859573433     1.007825032070
           H         -2.196579454930     1.697513829466     0.032883889099     1.007825032070
           H         -1.887609143064     0.326875143790    -1.059036474992     1.007825032070
           C         -1.764237585007     0.691458113770    -0.031964076158    12.000000000000
           H          0.259927434101     1.385380103889    -0.329988006128     1.007825032070
           H         -0.173762365090     1.090908339870     1.374808694997     1.007825032070
           C         -0.272465683204     0.709832757214     0.351182239786    12.000000000000
           H          0.576739061748    -1.068740879395     1.278807730518     1.007825032070
           H         -0.342443126991    -1.390302998089    -0.215359815671     1.007825032070
           C          0.366111680721    -0.704784676153     0.265833067903    12.000000000000
           H          2.111639039402    -1.701911895524    -0.592599171898     1.007825032070
           H          2.408831294016    -0.025640686419    -0.075449653669     1.007825032070
           H          1.490117010837    -0.347993065557    -1.565556681082     1.007825032070
           C          1.676974740338    -0.696216280965    -0.542249749379    12.000000000000

  Nuclear repulsion =  130.315794392480086

  ==> Basis Set <==

  Basis Set: CC-PVDZ
    Number of shells: 54
    Number of basis function: 106
    Number of Cartesian functions: 110
    Spherical Harmonics?: true
    Max angular momentum: 2

  ==> DFJKGrad: Density-Fitted SCF Gradients <==

    Gradient:                    1
    J tasked:                  Yes
    K tasked:                  Yes
    wK tasked:                  No
    OpenMP threads:              1
    Integrals threads:           1
    Memory (MB):               715
    Schwarz Cutoff:          0E+00
    Fitting Condition:       1E-12

   => Auxiliary Basis Set <=

  Basis Set: 
    Number of shells: 186
    Number of basis function: 510
    Number of Cartesian functions: 574
    Spherical Harmonics?: true
    Max angular momentum: 3

  ==> DFT Potential <==

   => B3LYP Composite Functional <= 

    B3LYP Hybrid-GGA Exchange-Correlation Functional (VWN1-RPA)

    P.J. Stephens et. al., J. Phys. Chem., 98, 11623-11627, 1994

    Points   =           5000
    Deriv    =              1
    GGA      =           TRUE
    Meta     =          FALSE

    X_LRC        =          FALSE
    X_Hybrid     =           TRUE
    X_Alpha      =   2.000000E-01
    X_Omega      =   0.000000E+00
    C_LRC        =          FALSE
    C_Hybrid     =          FALSE
    C_Alpha      =   0.000000E+00
    C_Omega      =   0.000000E+00

   => Exchange Functionals <=

    0.8000    B3_X
    0.2000      HF 

   => Correlation Functionals <=

    0.1900 VWN3RPA_C
    0.8100   LYP_C

   => Molecular Quadrature <=

    Radial Scheme    =       TREUTLER
    Pruning Scheme   =           FLAT
    Nuclear Scheme   =       TREUTLER

    BS radius alpha  =              1
    Pruning alpha    =              1
    Radial Points    =             75
    Spherical Points =            302
    Total Points     =         312810
    Total Blocks     =            272
    Max Points       =           4884
    Max Functions    =            106


  -Total Gradient:
[...]
    Spherical Harmonics?: true
    Max angular momentum: 2

  ==> DFJKGrad: Density-Fitted SCF Gradients <==

    Gradient:                    1
    J tasked:                  Yes
    K tasked:                  Yes
    wK tasked:                  No
    OpenMP threads:              1
    Integrals threads:           1
    Memory (MB):               715
    Schwarz Cutoff:          0E+00
    Fitting Condition:       1E-12

   => Auxiliary Basis Set <=

  Basis Set: 
    Number of shells: 186
    Number of basis function: 510
    Number of Cartesian functions: 574
    Spherical Harmonics?: true
    Max angular momentum: 3

  ==> DFT Potential <==

   => B3LYP Composite Functional <= 

    B3LYP Hybrid-GGA Exchange-Correlation Functional (VWN1-RPA)

    P.J. Stephens et. al., J. Phys. Chem., 98, 11623-11627, 1994

    Points   =           5000
    Deriv    =              1
    GGA      =           TRUE
    Meta     =          FALSE

    X_LRC        =          FALSE
    X_Hybrid     =           TRUE
    X_Alpha      =   2.000000E-01
    X_Omega      =   0.000000E+00
    C_LRC        =          FALSE
    C_Hybrid     =          FALSE
    C_Alpha      =   0.000000E+00
    C_Omega      =   0.000000E+00

   => Exchange Functionals <=

    0.8000    B3_X
    0.2000      HF 

   => Correlation Functionals <=

    0.1900 VWN3RPA_C
    0.8100   LYP_C

   => Molecular Quadrature <=

    Radial Scheme    =       TREUTLER
    Pruning Scheme   =           FLAT
    Nuclear Scheme   =       TREUTLER

    BS radius alpha  =              1
    Pruning alpha    =              1
    Radial Points    =             75
    Spherical Points =            302
    Total Points     =         312826
    Total Blocks     =            273
    Max Points       =           4918
    Max Functions    =            106


  -Total Gradient:
     Atom            X                  Y                   Z
    ------   -----------------  -----------------  -----------------
       1        0.000017551135     0.000014729691    -0.000012390843
       2        0.000013807103    -0.000029375493    -0.000000129769
       3        0.000008684882     0.000005050023     0.000029663390
       4        0.000386318528     0.000319769671    -0.001726342545
       5       -0.000008725885     0.000003458703    -0.000008704866
       6        0.000012204572     0.000005891966    -0.000020021185
       7       -0.000954656253    -0.000616142492     0.001818207222
       8       -0.000017604530    -0.000006130001    -0.000015427363
       9        0.000006262778    -0.000003272469    -0.000010608188
      10        0.001449516957     0.000642492699     0.001442945941
      11       -0.000013660225     0.000030442746     0.000003478549
      12       -0.000019921719    -0.000014786893    -0.000006577537
      13        0.000000792081    -0.000004198071     0.000030326130
      14       -0.000881060693    -0.000347956020    -0.001527662681


*** tstop() called on lski1497 at Tue Feb 21 18:01:58 2017
Module time:
	user time   =      36.07 seconds =       0.60 minutes
	system time =       0.52 seconds =       0.01 minutes
	total time  =         44 seconds =       0.73 minutes
Total time:
	user time   =    1178.57 seconds =      19.64 minutes
	system time =      13.57 seconds =       0.23 minutes
	total time  =       1309 seconds =      21.82 minutes

			-----------------------------------------
			 OPTKING 2.0: for geometry optimizations 
			  - R.A. King,  Bethel University        
			-----------------------------------------

	Previous internal coordinate definitions found.
	---Fragment 1 Geometry and Gradient---
	 H          -4.4466595823        0.0595848387        1.2089638933
	 H          -4.1822745096        3.2221380328        0.0963867087
	 H          -3.6332013711        0.6456096006       -1.9987712525
	 C          -3.3515488135        1.3167267498       -0.0445537662
	 H           0.4541115363        2.6386957243       -0.6229016784
	 H          -0.2999464246        2.1136212937        2.5710252905
	 C          -0.5435143680        1.3223612262        0.6562099742
	 H           1.0538061887       -2.0725566742        2.4003195585
	 H          -0.6118889891       -2.6472889847       -0.4175890318
	 C           0.7168512529       -1.3129190090        0.4868549034
	 H           4.0307158579       -3.2303949872       -1.0957629525
	 H           4.6053183618       -0.0509635939       -0.1627635863
	 H           2.8789402610       -0.6866720917       -2.9752674894
	 C           3.1909003341       -1.3254780323       -1.0148313537
	             0.0000175511        0.0000147297       -0.0000123908
	             0.0000138071       -0.0000293755       -0.0000001298
	             0.0000086849        0.0000050500        0.0000296634
	             0.0003863185        0.0003197697       -0.0017263425
	            -0.0000087259        0.0000034587       -0.0000087049
	             0.0000122046        0.0000058920       -0.0000200212
	            -0.0009546563       -0.0006161425        0.0018182072
	            -0.0000176045       -0.0000061300       -0.0000154274
	             0.0000062628       -0.0000032725       -0.0000106082
	             0.0014495170        0.0006424927        0.0014429459
	            -0.0000136602        0.0000304427        0.0000034785
	            -0.0000199217       -0.0000147869       -0.0000065775
	             0.0000007921       -0.0000041981        0.0000303261
	            -0.0008810607       -0.0003479560       -0.0015276627

	---Fragment 1 Intrafragment Coordinates---
	 - Coordinate -           - BOHR/RAD -       - ANG/DEG -
	 R(1,4)           =         2.085900	       1.103811
	 R(2,4)           =         2.083401	       1.102489
	 R(3,4)           =         2.085352	       1.103521
	 R(4,7)           =         2.894159	       1.531523
	 R(5,7)           =         2.089048	       1.105476
	 R(6,7)           =         2.086129	       1.103932
	 R(7,10)          =         2.926073	       1.548411
	 R(8,10)          =         2.086129	       1.103932
	 R(9,10)          =         2.089046	       1.105475
	 R(10,14)         =         2.894156	       1.531521
	 R(11,14)         =         2.083398	       1.102487
	 R(12,14)         =         2.085901	       1.103812
	 R(13,14)         =         2.085354	       1.103522
	 B(1,4,2)         =         1.876752	     107.529957
	 B(1,4,3)         =         1.873698	     107.354971
	 B(1,4,7)         =         1.944481	     111.410576
	 B(2,4,3)         =         1.879550	     107.690267
	 B(2,4,7)         =         1.948416	     111.636032
	 B(3,4,7)         =         1.937536	     111.012646
	 B(4,7,5)         =         1.892635	     108.439991
	 B(4,7,6)         =         1.913746	     109.649562
	 B(4,7,10)        =         1.984661	     113.712709
	 B(5,7,6)         =         1.841341	     105.501075
	 B(5,7,10)        =         1.903241	     109.047692
	 B(6,7,10)        =         1.922434	     110.147332
	 B(7,10,8)        =         1.922433	     110.147319
	 B(7,10,9)        =         1.903242	     109.047706
	 B(7,10,14)       =         1.984661	     113.712721
	 B(8,10,9)        =         1.841341	     105.501082
	 B(8,10,14)       =         1.913747	     109.649605
	 B(9,10,14)       =         1.892634	     108.439927
	 B(10,14,11)      =         1.948417	     111.636076
	 B(10,14,12)      =         1.944486	     111.410817
	 B(10,14,13)      =         1.937539	     111.012816
	 B(11,14,12)      =         1.876749	     107.529819
	 B(11,14,13)      =         1.879548	     107.690183
	 B(12,14,13)      =         1.873693	     107.354708
	 D(1,4,7,5)       =        -3.119132	    -178.713077
	 D(1,4,7,6)       =        -1.116877	     -63.992344
	 D(1,4,7,10)      =         1.043834	      59.807297
	 D(2,4,7,5)       =        -1.020591	     -58.475532
	 D(2,4,7,6)       =         0.981664	      56.245201
	 D(2,4,7,10)      =        -3.140810	    -179.955158
	 D(3,4,7,5)       =         1.076755	      61.693501
	 D(3,4,7,6)       =         3.079009	     176.414234
	 D(3,4,7,10)      =        -1.043465	     -59.786124
	 D(4,7,10,8)      =        -1.853266	    -106.184327
	 D(4,7,10,9)      =         0.159627	       9.145971
	 D(4,7,10,14)     =         2.273928	     130.286503
	 D(5,7,10,8)      =         2.315617	     132.675076
	 D(5,7,10,9)      =        -1.954675	    -111.994626
	 D(5,7,10,14)     =         0.159626	       9.145907
	 D(6,7,10,8)      =         0.302724	      17.344788
	 D(6,7,10,9)      =         2.315617	     132.675086
	 D(6,7,10,14)     =        -1.853267	    -106.184382
	 D(7,10,14,11)    =        -3.140797	    -179.954409
	 D(7,10,14,12)    =         1.043847	      59.808027
	 D(7,10,14,13)    =        -1.043451	     -59.785337
	 D(8,10,14,11)    =         0.981677	      56.245925
	 D(8,10,14,12)    =        -1.116865	     -63.991639
	 D(8,10,14,13)    =         3.079023	     176.414998
	 D(9,10,14,11)    =        -1.020578	     -58.474804
	 D(9,10,14,12)    =        -3.119119	    -178.712368
	 D(9,10,14,13)    =         1.076768	      61.694269

	Current energy   :      -158.4538028013

	Energy change for the previous step:
		Projected    :        -0.0000000568
		Actual       :        -0.0000007577

	Performing BFGS update.
	Previous computed or guess Hessian on step 1.
	Steps to be used in Hessian update: 7 6
	Adding user-defined constraint: Fragment 1; Coordinate 49:
		Value =     2.273928; Fixed value    =     2.268930
		Force =    -0.003374; Force constant =     0.675000
	Removing off-diagonal coupling between coordinate 49 and others.
	Taking RFO optimization step.
	Going to follow RFO solution 1.
	Rejecting RFO root 1 because normalization gives large value.
	Using RFO vector 2.
	Norm of target step-size    0.01096
	Projected energy change by RFO approximation:        -0.0000007111

	Back-transformation to cartesian coordinates...
	Successfully converged to displaced geometry.

	--- Internal Coordinate Step in ANG or DEG, aJ/ANG or AJ/DEG ---
	 ---------------------------------------------------------------------------
	   Coordinate                Previous        Force       Change         New 
	   ----------                --------       ------       ------       ------
	    1 R(1,4)          =      1.103811     0.000218     0.000197     1.104008
	    2 R(2,4)          =      1.102489     0.000259     0.000218     1.102706
	    3 R(3,4)          =      1.103521     0.000257     0.000236     1.103757
	    4 R(4,7)          =      1.531523     0.000021     0.000074     1.531597
	    5 R(5,7)          =      1.105476    -0.000030    -0.000002     1.105474
	    6 R(6,7)          =      1.103932     0.000119     0.000123     1.104055
	    7 R(7,10)         =      1.548411     0.000272     0.000323     1.548734
	    8 R(8,10)         =      1.103932     0.000119     0.000123     1.104055
	    9 R(9,10)         =      1.105475    -0.000025     0.000002     1.105478
	   10 R(10,14)        =      1.531521     0.000027     0.000083     1.531604
	   11 R(11,14)        =      1.102487     0.000268     0.000224     1.102711
	   12 R(12,14)        =      1.103812     0.000215     0.000196     1.104008
	   13 R(13,14)        =      1.103522     0.000251     0.000233     1.103755
	   14 B(1,4,2)        =    107.529957    -0.000000    -0.003890   107.526067
	   15 B(1,4,3)        =    107.354971    -0.000000    -0.005379   107.349592
	   16 B(1,4,7)        =    111.410576     0.000000     0.012302   111.422878
	   17 B(2,4,3)        =    107.690267    -0.000000    -0.013763   107.676504
	   18 B(2,4,7)        =    111.636032     0.000000    -0.004495   111.631537
	   19 B(3,4,7)        =    111.012646     0.000000     0.013847   111.026492
	   20 B(4,7,5)        =    108.439991    -0.000002    -0.012380   108.427611
	   21 B(4,7,6)        =    109.649562     0.000002     0.007093   109.656655
	   22 B(4,7,10)       =    113.712709     0.000000    -0.007947   113.704762
	   23 B(5,7,6)        =    105.501075     0.000000     0.034985   105.536059
	   24 B(5,7,10)       =    109.047692    -0.000000     0.044766   109.092458
	   25 B(6,7,10)       =    110.147332    -0.000000    -0.062001   110.085331
	   26 B(7,10,8)       =    110.147319    -0.000000    -0.062594   110.084725
	   27 B(7,10,9)       =    109.047706    -0.000000     0.045087   109.092793
	   28 B(7,10,14)      =    113.712721     0.000000    -0.007653   113.705068
	   29 B(8,10,9)       =    105.501082     0.000000     0.034986   105.536068
	   30 B(8,10,14)      =    109.649605     0.000002     0.006334   109.655939
	   31 B(9,10,14)      =    108.439927    -0.000002    -0.011637   108.428290
	   32 B(10,14,11)     =    111.636076     0.000000    -0.004299   111.631777
	   33 B(10,14,12)     =    111.410817     0.000000     0.011540   111.422357
	   34 B(10,14,13)     =    111.012816     0.000000     0.013134   111.025950
	   35 B(11,14,12)     =    107.529819    -0.000000    -0.003354   107.526464
	   36 B(11,14,13)     =    107.690183    -0.000000    -0.013510   107.676673
	   37 B(12,14,13)     =    107.354708    -0.000000    -0.004808   107.349900
	   38 D(1,4,7,5)      =   -178.713077    -0.000000    -0.125047  -178.838124
	   39 D(1,4,7,6)      =    -63.992344    -0.000000    -0.086504   -64.078848
	   40 D(1,4,7,10)     =     59.807297     0.000000    -0.168023    59.639274
	   41 D(2,4,7,5)      =    -58.475532    -0.000000    -0.124629   -58.600161
	   42 D(2,4,7,6)      =     56.245201    -0.000000    -0.086086    56.159115
	   43 D(2,4,7,10)     =   -179.955158     0.000000    -0.167605  -180.122763
	   44 D(3,4,7,5)      =     61.693501    -0.000000    -0.135698    61.557803
	   45 D(3,4,7,6)      =    176.414234    -0.000000    -0.097154   176.317080
	   46 D(3,4,7,10)     =    -59.786124     0.000000    -0.178674   -59.964799
	   47 D(4,7,10,8)     =   -106.184327    -0.000001    -0.060907  -106.245235
	   48 D(4,7,10,9)     =      9.145971    -0.000001    -0.028023     9.117948
	   49 D(4,7,10,14)    =    130.286503    -0.000002    -0.015497   130.271006
	   50 D(5,7,10,8)     =    132.675076    -0.000000    -0.072052   132.603025
	   51 D(5,7,10,9)     =   -111.994626    -0.000000    -0.039168  -112.033793
	   52 D(5,7,10,14)    =      9.145907    -0.000001    -0.026642     9.119265
	   53 D(6,7,10,8)     =     17.344788    -0.000000    -0.105081    17.239707
	   54 D(6,7,10,9)     =    132.675086    -0.000000    -0.072197   132.602889
	   55 D(6,7,10,14)    =   -106.184382    -0.000001    -0.059671  -106.244052
	   56 D(7,10,14,11)   =   -179.954409     0.000000    -0.175226  -180.129635
	   57 D(7,10,14,12)   =     59.808027     0.000000    -0.175938    59.632089
	   58 D(7,10,14,13)   =    -59.785337     0.000000    -0.186326   -59.971663
	   59 D(8,10,14,11)   =     56.245925    -0.000000    -0.092561    56.153364
	   60 D(8,10,14,12)   =    -63.991639    -0.000000    -0.093274   -64.084912
	   61 D(8,10,14,13)   =    176.414998    -0.000000    -0.103662   176.311336
	   62 D(9,10,14,11)   =    -58.474804    -0.000000    -0.131110   -58.605914
	   63 D(9,10,14,12)   =   -178.712368    -0.000000    -0.131823  -178.844190
	   64 D(9,10,14,13)   =     61.694269    -0.000000    -0.142211    61.552058
	 ---------------------------------------------------------------------------
	 Forces used to impose fixed constraints are not included.
	  Forces zeroed: 49 

  ==> Convergence Check <==

  Measures of convergence in internal coordinates in au.
  Criteria marked as inactive (o), active & met (*), and active & unmet ( ).
  ---------------------------------------------------------------------------------------------
   Step     Total Energy     Delta E     MAX Force     RMS Force      MAX Disp      RMS Disp   
  ---------------------------------------------------------------------------------------------
    Convergence Criteria    1.00e-06 *    3.00e-04 *             o    1.20e-03 *             o
  ---------------------------------------------------------------------------------------------
      8    -158.45380280   -7.58e-07 *    4.94e-05 *    1.89e-05 o    3.25e-03      1.37e-03 o  ~
  ---------------------------------------------------------------------------------------------


  **** Optimization is complete! (in 8 steps) ****

  ==> Optimization Summary <==

  Measures of convergence in internal coordinates in au.
  --------------------------------------------------------------------------------------------------------------- ~
   Step         Total Energy             Delta E       MAX Force       RMS Force        MAX Disp        RMS Disp  ~
  --------------------------------------------------------------------------------------------------------------- ~
      1    -158.443912830036   -158.443912830036      0.02319373      0.00970431      0.02851240      0.01250494  ~
      2    -158.449860486564     -0.005947656528      0.01218960      0.00530347      0.02381849      0.01251934  ~
      3    -158.452658653126     -0.002798166561      0.00403354      0.00202086      0.03564359      0.01251098  ~
      4    -158.453543115573     -0.000884462447      0.00152264      0.00064399      0.04746194      0.01252267  ~
      5    -158.453781900955     -0.000238785382      0.00087353      0.00018338      0.01492773      0.00449847  ~
      6    -158.453799578709     -0.000017677755      0.00012183      0.00003543      0.00328853      0.00102584  ~
      7    -158.453802043558     -0.000002464848      0.00004069      0.00001456      0.00166905      0.00050385  ~
      8    -158.453802801287     -0.000000757729      0.00008802      0.00002185      0.00325201      0.00136990  ~
  --------------------------------------------------------------------------------------------------------------- ~

	Writing optimization data to binary file.
	Final energy is   -158.4538028012870
	Final (previous) structure:
	Cartesian Geometry (in Angstrom)
	    H    -2.3530709053   0.0315309386   0.6397561383
	    H    -2.2131643505   1.7050820099   0.0510056495
	    H    -1.9226073598   0.3416418863  -1.0577041920
	    C    -1.7735632456   0.6967817859  -0.0235768376
	    H     0.2403054751   1.3963376377  -0.3296253714
	    H    -0.1587248117   1.1184802162   1.3605279864
	    C    -0.2876154161   0.6997634224   0.3472513624
	    H     0.5576502173  -1.0967497555   1.2701944037
	    H    -0.3237977072  -1.4008849953  -0.2209785982
	    C     0.3793413450  -0.6947668163   0.2576325188
	    H     2.1329629663  -1.7094514020  -0.5798527805
	    H     2.4370295154  -0.0269687724  -0.0861307803
	    H     1.5234695710  -0.3633712207  -1.5744437449
	    C     1.6885517317  -0.7014127652  -0.5370256230
	Saving final (previous) structure.
			--------------------------
			 OPTKING Finished Execution 
			--------------------------

    Final optimized geometry and variables:
    Molecular point group: c1
    Full point group: C1

    Geometry (in Angstrom), charge = 0, multiplicity = 1:

    H           -2.353070905297     0.031530938621     0.639756138338
    H           -2.213164350527     1.705082009868     0.051005649458
    H           -1.922607359806     0.341641886305    -1.057704191993
    C           -1.773563245579     0.696781785934    -0.023576837604
    H            0.240305475143     1.396337637729    -0.329625371380
    H           -0.158724811676     1.118480216230     1.360527986427
    C           -0.287615416070     0.699763422439     0.347251362420
    H            0.557650217332    -1.096749755508     1.270194403710
    H           -0.323797707216    -1.400884995253    -0.220978598173
    C            0.379341344976    -0.694766816301     0.257632518763
    H            2.132962966322    -1.709451401968    -0.579852780487
    H            2.437029515355    -0.026968772375    -0.086130780250
    H            1.523469571001    -0.363371220677    -1.574443744862
    C            1.688551731694    -0.701412765159    -0.537025622958

	Cleaning optimization helper files.

*** Psi4 exiting successfully. Buy a developer a beer!
