    -----------------------------------------------------------------------
          Psi4: An Open-Source Ab Initio Electronic Structure Package
                              Psi4 1.0.0 Driver

                          Git: Rev {master} 6a9a71b 

    J. M. Turney, A. C. Simmonett, R. M. Parrish, E. G. Hohenstein,
    F. A. Evangelista, J. T. Fermann, B. J. Mintz, L. A. Burns, J. J. Wilke,
    M. L. Abrams, N. J. Russ, M. L. Leininger, C. L. Janssen, E. T. Seidl,
    W. D. Allen, H. F. Schaefer, R. A. King, E. F. Valeev, C. D. Sherrill,
    and T. D. Crawford, WIREs Comput. Mol. Sci. 2, 556-565 (2012)
    (doi: 10.1002/wcms.93)

                         Additional Contributions by
    A. E. DePrince, U. Bozkaya, A. Yu. Sokolov, D. G. A. Smith, R. Di Remigio,
    R. M. Richard, J. F. Gonthier, H. R. McAlexander, M. Saitow, and
    B. P. Pritchard
    -----------------------------------------------------------------------


    Psi4 started on: Mon Feb 20 17:24:38 2017

    Process ID:  28134
    PSI4DATADIR: /Users/sternc1/anaconda/share/psi4
    Memory level set to 256.000 MB

  ==> Input File <==

--------------------------------------------------------------------------

memory 1000 mb

molecule butane {
  symmetry C1
  0 1 
  H      1.604   0.760   -8.260
  H      1.745   2.388   -8.880
  H      2.043   1.024   -9.930
  C      2.142   1.395   -8.932
  H      4.169   2.051   -9.210
  H      3.731   1.788   -7.539
  C      3.631   1.416   -8.537
  H      3.492   -0.656   -9.084
  H      5.109   -0.004   -9.180
  C      4.203   -0.012   -8.612
  H      4.892   -1.516   -7.242
  H      3.589   -0.533   -6.621
  H      5.206   0.120   -6.717
  C      4.495   -0.524   -7.190
  units Angstrom
}

dih_string = "4 7 10 14 250"
set optking fixed_dihedral = $dih_string

optimize('MP2/6-31G(d)')
--------------------------------------------------------------------------

  Memory set to 1000.000 MiB by Python script.
gradient() will perform analytic gradient computation.
    SCF Algorithm Type (re)set to DF.

*** tstart() called on lski1497
*** at Mon Feb 20 17:24:40 2017


         ---------------------------------------------------------
                                   SCF
            by Justin Turney, Rob Parrish, and Andy Simmonett
                              RHF Reference
                        1 Threads,   1000 MiB Core
         ---------------------------------------------------------

  ==> Geometry <==

    Molecular point group: c1
    Full point group: C1

    Geometry (in Angstrom), charge = 0, multiplicity = 1:

       Center              X                  Y                   Z               Mass       
    ------------   -----------------  -----------------  -----------------  -----------------
           H         -2.003381652928     0.195857190205     0.048821942145     1.007825032070
           H         -1.862381652928     1.823857190205    -0.571178057855     1.007825032070
           H         -1.564381652928     0.459857190205    -1.621178057855     1.007825032070
           C         -1.465381652928     0.830857190205    -0.623178057855    12.000000000000
           H          0.561618347072     1.486857190205    -0.901178057855     1.007825032070
           H          0.123618347072     1.223857190205     0.769821942145     1.007825032070
           C          0.023618347072     0.851857190205    -0.228178057855    12.000000000000
           H         -0.115381652928    -1.220142809795    -0.775178057855     1.007825032070
           H          1.501618347072    -0.568142809795    -0.871178057855     1.007825032070
           C          0.595618347072    -0.576142809795    -0.303178057855    12.000000000000
           H          1.284618347072    -2.080142809795     1.066821942145     1.007825032070
           H         -0.018381652928    -1.097142809795     1.687821942145     1.007825032070
           H          1.598618347072    -0.444142809795     1.591821942145     1.007825032070
           C          0.887618347072    -1.088142809795     1.118821942145    12.000000000000

  Running in c1 symmetry.

  Rotational constants: A =      0.55090  B =      0.13658  C =      0.13335 [cm^-1]
  Rotational constants: A =  16515.49145  B =   4094.47632  C =   3997.74572 [MHz]
  Nuclear repulsion =  132.841119091007272

  Charge       = 0
  Multiplicity = 1
  Electrons    = 34
  Nalpha       = 17
  Nbeta        = 17

  ==> Algorithm <==

  SCF Algorithm Type is DF.
  DIIS enabled.
  MOM disabled.
  Fractional occupation disabled.
  Guess Type is SAD.
  Energy threshold   = 1.00e-10
  Density threshold  = 1.00e-10
  Integral threshold = 0.00e+00

  ==> Primary Basis <==

  Basis Set: 6-31G(D)
    Number of shells: 44
    Number of basis function: 80
    Number of Cartesian functions: 80
    Spherical Harmonics?: false
    Max angular momentum: 2

  ==> Pre-Iterations <==

   -------------------------------------------------------
    Irrep   Nso     Nmo     Nalpha   Nbeta   Ndocc  Nsocc
   -------------------------------------------------------
     A         80      80       0       0       0       0
   -------------------------------------------------------
    Total      80      80      17      17      17       0
   -------------------------------------------------------

  ==> Integral Setup <==

  ==> DFJK: Density-Fitted J/K Matrices <==

    J tasked:                  Yes
    K tasked:                  Yes
    wK tasked:                  No
    OpenMP threads:              1
    Integrals threads:           1
    Memory (MB):               715
    Algorithm:                Core
    Integral Cache:           NONE
    Schwarz Cutoff:          1E-12
    Fitting Condition:       1E-12

   => Auxiliary Basis Set <=

  Basis Set: 
    Number of shells: 186
    Number of basis function: 574
    Number of Cartesian functions: 574
    Spherical Harmonics?: false
    Max angular momentum: 3

  Minimum eigenvalue in the overlap matrix is 4.9576538707E-03.
  Using Symmetric Orthogonalization.
  SCF Guess: Superposition of Atomic Densities via on-the-fly atomic UHF.

  ==> Iterations <==

                           Total Energy        Delta E     RMS |[F,P]|

   @DF-RHF iter   0:  -158.94526964358522   -1.58945e+02   4.72418e-02 
   @DF-RHF iter   1:  -157.19753959855825    1.74773e+00   4.01340e-03 
   @DF-RHF iter   2:  -157.27944398976064   -8.19044e-02   1.12854e-03 DIIS
   @DF-RHF iter   3:  -157.28766005427826   -8.21606e-03   3.17325e-04 DIIS
   @DF-RHF iter   4:  -157.28815961772210   -4.99563e-04   8.55188e-05 DIIS
   @DF-RHF iter   5:  -157.28820379661227   -4.41789e-05   1.39042e-05 DIIS
   @DF-RHF iter   6:  -157.28820534855004   -1.55194e-06   2.29242e-06 DIIS
   @DF-RHF iter   7:  -157.28820538201802   -3.34680e-08   7.16402e-07 DIIS
   @DF-RHF iter   8:  -157.28820538491982   -2.90180e-09   1.67601e-07 DIIS
   @DF-RHF iter   9:  -157.28820538512809   -2.08274e-10   4.29486e-08 DIIS
   @DF-RHF iter  10:  -157.28820538514231   -1.42109e-11   7.89206e-09 DIIS
   @DF-RHF iter  11:  -157.28820538514293   -6.25278e-13   2.25508e-09 DIIS
   @DF-RHF iter  12:  -157.28820538514253    3.97904e-13   5.21501e-10 DIIS
   @DF-RHF iter  13:  -157.28820538514299   -4.54747e-13   9.70984e-11 DIIS

  ==> Post-Iterations <==

    Orbital Energies (a.u.)
    -----------------------

    Doubly Occupied:                                                      

       1A    -11.206217     2A    -11.205589     3A    -11.201157  
       4A    -11.200963     5A     -1.071816     6A     -0.979436  
       7A     -0.866254     8A     -0.792154     9A     -0.635958  
      10A     -0.610457    11A     -0.583050    12A     -0.550843  
      13A     -0.517718    14A     -0.509415    15A     -0.472180  
      16A     -0.460997    17A     -0.443302  

    Virtual:                                                              

      18A      0.234324    19A      0.274897    20A      0.287551  
      21A      0.296418    22A      0.317163    23A      0.326267  
      24A      0.339255    25A      0.350318    26A      0.351386  
      27A      0.366141    28A      0.410983    29A      0.449779  
      30A      0.453681    31A      0.714255    32A      0.728392  
      33A      0.731698    34A      0.783210    35A      0.790583  
      36A      0.813881    37A      0.841748    38A      0.935993  
      39A      0.941744    40A      0.999310    41A      1.056077  
      42A      1.108418    43A      1.174336    44A      1.177067  
      45A      1.195314    46A      1.209721    47A      1.209907  
      48A      1.228195    49A      1.246230    50A      1.258622  
      51A      1.264404    52A      1.285303    53A      1.285946  
      54A      1.448332    55A      1.688179    56A      1.736265  
      57A      1.802524    58A      1.902625    59A      2.048698  
      60A      2.064594    61A      2.190930    62A      2.250978  
      63A      2.267628    64A      2.308740    65A      2.384682  
      66A      2.464766    67A      2.504672    68A      2.637539  
      69A      2.653255    70A      2.672263    71A      2.733168  
      72A      2.767214    73A      2.792268    74A      2.897480  
      75A      3.003238    76A      3.085994    77A      4.574858  
      78A      4.665814    79A      4.834041    80A      4.966922  

    Final Occupation by Irrep:
              A 
    DOCC [    17 ]

  Energy converged.

  @DF-RHF Final Energy:  -157.28820538514299

   => Energetics <=

    Nuclear Repulsion Energy =            132.8411190910072719
    One-Electron Energy =                -473.6436366933091335
    Two-Electron Energy =                 183.5143122171589027
    DFT Exchange-Correlation Energy =       0.0000000000000000
    Empirical Dispersion Energy =           0.0000000000000000
    PCM Polarization Energy =               0.0000000000000000
    EFP Energy =                            0.0000000000000000
    Total Energy =                       -157.2882053851429589


  Saving occupied orbitals to File 180.

*** tstop() called on lski1497 at Mon Feb 20 17:24:48 2017
Module time:
	user time   =       4.62 seconds =       0.08 minutes
	system time =       0.16 seconds =       0.00 minutes
	total time  =          8 seconds =       0.13 minutes
Total time:
	user time   =       4.62 seconds =       0.08 minutes
	system time =       0.16 seconds =       0.00 minutes
	total time  =          8 seconds =       0.13 minutes


Properties will be evaluated at   0.000000,   0.000000,   0.000000 Bohr

Properties computed using the SCF density matrix

  Nuclear Dipole Moment: (a.u.)
     X:    -0.4629      Y:    -0.2057      Z:     0.3986

  Electronic Dipole Moment: (a.u.)
     X:     0.4897      Y:     0.2169      Z:    -0.4218

  Dipole Moment: (a.u.)
     X:     0.0267      Y:     0.0112      Z:    -0.0232     Total:     0.0371

  Dipole Moment: (Debye)
     X:     0.0680      Y:     0.0284      Z:    -0.0589     Total:     0.0943


  //>>>>>>>>>>>>>>>>>>>>>>>>>>>>>>>>>>>//
  //               DFMP2               //
  //<<<<<<<<<<<<<<<<<<<<<<<<<<<<<<<<<<<//


*** tstart() called on lski1497
*** at Mon Feb 20 17:24:48 2017


*** tstop() called on lski1497 at Mon Feb 20 17:24:49 2017
Module time:
	user time   =       0.54 seconds =       0.01 minutes
	system time =       0.00 seconds =       0.00 minutes
	total time  =          1 seconds =       0.02 minutes
Total time:
	user time   =       5.17 seconds =       0.09 minutes
	system time =       0.16 seconds =       0.00 minutes
	total time  =          9 seconds =       0.15 minutes
	 --------------------------------------------------------
	                          DF-MP2                         
	      2nd-Order Density-Fitted Moller-Plesset Theory     
	              RMP2 Wavefunction,   1 Threads             
	                                                         
	        Rob Parrish, Justin Turney, Andy Simmonett,      
	           Ed Hohenstein, and C. David Sherrill          
	 --------------------------------------------------------

   => Auxiliary Basis Set <=

  Basis Set: 
    Number of shells: 132
    Number of basis function: 364
    Number of Cartesian functions: 414
    Spherical Harmonics?: true
    Max angular momentum: 3

	 --------------------------------------------------------
	                 NBF =    80, NAUX =   364
	 --------------------------------------------------------
	   CLASS    FOCC     OCC    AOCC    AVIR     VIR    FVIR
	   PAIRS       0      17      17      63      63       0
	 --------------------------------------------------------

DGAS Warning! /src/lib/libfock/apps.cc:80 is not currently checking restricted

         ------------------------------------------------------------
                                     CPHF                           
                                  Rob Parrish                       
         ------------------------------------------------------------

  ==> Geometry <==

    Molecular point group: c1
    Full point group: C1

    Geometry (in Angstrom), charge = 0, multiplicity = 1:

       Center              X                  Y                   Z               Mass       
    ------------   -----------------  -----------------  -----------------  -----------------
           H         -2.003381652928     0.195857190205     0.048821942145     1.007825032070
           H         -1.862381652928     1.823857190205    -0.571178057855     1.007825032070
           H         -1.564381652928     0.459857190205    -1.621178057855     1.007825032070
           C         -1.465381652928     0.830857190205    -0.623178057855    12.000000000000
           H          0.561618347072     1.486857190205    -0.901178057855     1.007825032070
           H          0.123618347072     1.223857190205     0.769821942145     1.007825032070
           C          0.023618347072     0.851857190205    -0.228178057855    12.000000000000
           H         -0.115381652928    -1.220142809795    -0.775178057855     1.007825032070
           H          1.501618347072    -0.568142809795    -0.871178057855     1.007825032070
           C          0.595618347072    -0.576142809795    -0.303178057855    12.000000000000
           H          1.284618347072    -2.080142809795     1.066821942145     1.007825032070
           H         -0.018381652928    -1.097142809795     1.687821942145     1.007825032070
           H          1.598618347072    -0.444142809795     1.591821942145     1.007825032070
           C          0.887618347072    -1.088142809795     1.118821942145    12.000000000000

  Nuclear repulsion =  132.841119091007272
  Reference energy  = -157.288205385142987

  ==> Basis Set <==

  Basis Set: 6-31G(D)
    Number of shells: 44
    Number of basis function: 80
    Number of Cartesian functions: 80
    Spherical Harmonics?: false
    Max angular momentum: 2

  ==> CGRSolver (by Rob Parrish) <==

   Number of roots    =         1
   Preconditioning    =    JACOBI
   Convergence cutoff =     1E-06
   Maximum iterations =       100

  ==> CPHFRHamiltonian (by Rob Parrish) <== 

  ==> DFJK: Density-Fitted J/K Matrices <==

    J tasked:                  Yes
    K tasked:                  Yes
    wK tasked:                  No
    OpenMP threads:              1
    Integrals threads:           1
    Memory (MB):               715
    Algorithm:                Core
    Integral Cache:           NONE
    Schwarz Cutoff:          1E-12
    Fitting Condition:       1E-12

   => Auxiliary Basis Set <=

  Basis Set: 
    Number of shells: 186
    Number of basis function: 574
    Number of Cartesian functions: 574
    Spherical Harmonics?: false
    Max angular momentum: 3

  ==> CPHF Iterations <==

  => Iterations <=

             Iter  Converged  Remaining    Residual
  CGR           1          0          1   7.364E-02
  CGR           2          0          1   8.831E-03
  CGR           3          0          1   2.599E-03
  CGR           4          0          1   4.286E-04
  CGR           5          0          1   8.245E-05
  CGR           6          0          1   1.925E-05
  CGR           7          0          1   3.459E-06
  CGR           8          1          0   6.141E-07

    CGRSolver converged.

  ==> DFCorrGrad: Density-Fitted Correlated Gradients <==

    OpenMP threads:              1
    Integrals threads:           1
    Memory (MB):               715
    Schwarz Cutoff:          0E+00
    Fitting Condition:       1E-12

   => Auxiliary Basis Set <=

  Basis Set: 
    Number of shells: 186
    Number of basis function: 510
    Number of Cartesian functions: 574
    Spherical Harmonics?: true
    Max angular momentum: 3

	-----------------------------------------------------------
	 ==================> DF-MP2 Energies <==================== 
	-----------------------------------------------------------
	 Reference Energy          =    -157.2882053851429873 [Eh]
	 Singles Energy            =      -0.0000000000000000 [Eh]
	 Same-Spin Energy          =      -0.1244420157965611 [Eh]
	 Opposite-Spin Energy      =      -0.4204110098779941 [Eh]
	 Correlation Energy        =      -0.5448530256745552 [Eh]
	 Total Energy              =    -157.8330584108175287 [Eh]
	-----------------------------------------------------------
	 ================> DF-SCS-MP2 Energies <================== 
	-----------------------------------------------------------
	 SCS Same-Spin Scale       =       0.3333333333333333 [-]
	 SCS Opposite-Spin Scale   =       1.2000000000000000 [-]
	 SCS Same-Spin Energy      =      -0.0414806719321870 [Eh]
	 SCS Opposite-Spin Energy  =      -0.5044932118535929 [Eh]
	 SCS Correlation Energy    =      -0.5459738837857799 [Eh]
	 SCS Total Energy          =    -157.8341792689287786 [Eh]
	-----------------------------------------------------------


  -Total Gradient:
     Atom            X                  Y                   Z
    ------   -----------------  -----------------  -----------------
       1        0.010649621885     0.009673221530    -0.009199596863
       2        0.010742285933    -0.013639667712     0.000235046987
       3        0.003958466309     0.005385693891     0.015335199131
       4       -0.027059711659    -0.008667919007    -0.009108100618
       5       -0.007641232556    -0.013594922712     0.007895747915
       6       -0.003223718322    -0.009661925832    -0.014375948124
       7        0.020445896343     0.025228842651     0.015764476801
       8        0.008532237075     0.012148222130     0.010374413589
       9       -0.014093151496     0.004074910272     0.010725190309
      10       -0.001232191215    -0.017230462798    -0.032011201288
      11       -0.006489766495     0.016330911021    -0.004119594909
      12        0.012894859827     0.000798475918    -0.010994247522
      13       -0.010926853865    -0.008393180465    -0.009162338226
      14        0.003443258235    -0.002452198888     0.028640952817


			-----------------------------------------
			 OPTKING 2.0: for geometry optimizations 
			  - R.A. King,  Bethel University        
			-----------------------------------------

	Internal coordinates to be generated automatically.
	Detected frag 1 with atoms:  1 2 3 4 5 6 7 8 9 10 11 12 13 14
	---Fragment 1 Bond Connectivity---
	 1 : 4
	 2 : 4
	 3 : 4
	 4 : 1 2 3 7
	 5 : 7
	 6 : 7
	 7 : 4 5 6 10
	 8 : 10
	 9 : 10
	 10 : 7 8 9 14
	 11 : 14
	 12 : 14
	 13 : 14
	 14 : 10 11 12 13

	Assuming in current code that numbering for constraints corresponds to unified fragment.
	Fixed dihedral atom list: 
	     4     7    10    14
	---Fragment 1 Geometry and Gradient---
	 H          -3.7858426637        0.3701164506        0.0922600999
	 H          -3.5193912789        3.4465905950       -1.0793701025
	 H          -2.9562528913        0.8690041497       -3.0635825420
	 C          -2.7691700042        1.5700925450       -1.1776358614
	 H           1.0613048672        2.8097528882       -1.7029797263
	 H           0.2336048210        2.3127549153        1.4547526417
	 C           0.0446322077        1.6097767938       -0.4311940389
	 H          -0.2180397248       -2.3057357535       -1.4648742336
	 H           2.8376474321       -1.0736343149       -1.6462879423
	 C           1.1255555557       -1.0887521239       -0.5729234988
	 H           2.4275768612       -3.9309002278        2.0160013032
	 H          -0.0347362899       -2.0732994392        3.1895212317
	 H           3.0209508670       -0.8393082744        3.0081075230
	 C           1.6773555865       -2.0562919040        2.1142670621
	             0.0106496219        0.0096732215       -0.0091995969
	             0.0107422859       -0.0136396677        0.0002350470
	             0.0039584663        0.0053856939        0.0153351991
	            -0.0270597117       -0.0086679190       -0.0091081006
	            -0.0076412326       -0.0135949227        0.0078957479
	            -0.0032237183       -0.0096619258       -0.0143759481
	             0.0204458963        0.0252288427        0.0157644768
	             0.0085322371        0.0121482221        0.0103744136
	            -0.0140931515        0.0040749103        0.0107251903
	            -0.0012321912       -0.0172304628       -0.0320112013
	            -0.0064897665        0.0163309110       -0.0041195949
	             0.0128948598        0.0007984759       -0.0109942475
	            -0.0109268539       -0.0083931805       -0.0091623382
	             0.0034432582       -0.0024521989        0.0286409528

	Previous optimization step data not found.  Starting new optimization.

	---Fragment 1 Intrafragment Coordinates---
	 - Coordinate -           - BOHR/RAD -       - ANG/DEG -
	 R(1,4)           =         2.021436	       1.069698
	 R(2,4)           =         2.023298	       1.070683
	 R(3,4)           =         2.020723	       1.069320
	 R(4,7)           =         2.911397	       1.540645
	 R(5,7)           =         2.022623	       1.070326
	 R(6,7)           =         2.021555	       1.069761
	 R(7,10)          =         2.910419	       1.540128
	 R(8,10)          =         2.020365	       1.069131
	 R(9,10)          =         2.020792	       1.069357
	 R(10,14)         =         2.908885	       1.539315
	 R(11,14)         =         2.021545	       1.069756
	 R(12,14)         =         2.021811	       1.069896
	 R(13,14)         =         2.021200	       1.069573
	 B(1,4,2)         =         1.910870	     109.484805
	 B(1,4,3)         =         1.911121	     109.499161
	 B(1,4,7)         =         1.910399	     109.457783
	 B(2,4,3)         =         1.910042	     109.437340
	 B(2,4,7)         =         1.910564	     109.467262
	 B(3,4,7)         =         1.910803	     109.480971
	 B(4,7,5)         =         1.909937	     109.431343
	 B(4,7,6)         =         1.911630	     109.528316
	 B(4,7,10)        =         1.911154	     109.501062
	 B(5,7,6)         =         1.910605	     109.469614
	 B(5,7,10)        =         1.910047	     109.437654
	 B(6,7,10)        =         1.910425	     109.459295
	 B(7,10,8)        =         1.910294	     109.451808
	 B(7,10,9)        =         1.910908	     109.486941
	 B(7,10,14)       =         1.911198	     109.503589
	 B(8,10,9)        =         1.910752	     109.478016
	 B(8,10,14)       =         1.910950	     109.489368
	 B(9,10,14)       =         1.909697	     109.417605
	 B(10,14,11)      =         1.911269	     109.507647
	 B(10,14,12)      =         1.910765	     109.478775
	 B(10,14,13)      =         1.911720	     109.533491
	 B(11,14,12)      =         1.909552	     109.409259
	 B(11,14,13)      =         1.910432	     109.459705
	 B(12,14,13)      =         1.910060	     109.438352
	 D(1,4,7,5)       =         3.140997	     179.965873
	 D(1,4,7,6)       =        -1.047644	     -60.025575
	 D(1,4,7,10)      =         1.047427	      60.013132
	 D(2,4,7,5)       =        -1.047689	     -60.028143
	 D(2,4,7,6)       =         1.046856	      59.980409
	 D(2,4,7,10)      =        -3.141259	    -179.980883
	 D(3,4,7,5)       =         1.046044	      59.933911
	 D(3,4,7,6)       =         3.140588	     179.942463
	 D(3,4,7,10)      =        -1.047526	     -60.018830
	 D(4,7,10,8)      =         0.174706	      10.009940
	 D(4,7,10,9)      =         2.269207	     130.015999
	 D(4,7,10,14)     =        -1.920215	    -110.020218
	 D(5,7,10,8)      =        -1.918796	    -109.938935
	 D(5,7,10,9)      =         0.175704	      10.067123
	 D(5,7,10,14)     =         2.269467	     130.030906
	 D(6,7,10,8)      =         2.270514	     130.090866
	 D(6,7,10,9)      =        -1.918171	    -109.903076
	 D(6,7,10,14)     =         0.175592	      10.060708
	 D(7,10,14,11)    =         3.141260	     179.980967
	 D(7,10,14,12)    =         1.047720	      60.029926
	 D(7,10,14,13)    =        -1.046719	     -59.972597
	 D(8,10,14,11)    =         1.046740	      59.973791
	 D(8,10,14,12)    =        -1.046800	     -59.977249
	 D(8,10,14,13)    =        -3.141240	    -179.979773
	 D(9,10,14,11)    =        -1.047421	     -60.012810
	 D(9,10,14,12)    =        -3.140962	    -179.963850
	 D(9,10,14,13)    =         1.047784	      60.033626

	Current energy   :      -157.8330584108

	Generating empirical Hessian (Schlegel '84) for each fragment.
	Adding user-defined constraint: Fragment 1; Coordinate 49:
		Value =    -1.920215; Fixed value    =    -1.919862
		Force =     0.000176; Force constant =     0.500000
	Removing off-diagonal coupling between coordinate 49 and others.
	Taking RFO optimization step.
	Going to follow RFO solution 1.
	Using RFO vector 1.

	Determining step-restricting scale parameter for RS-RFO.
	Maximum step size allowed    0.10000

	 Iter      |step|        alpha        rfo_root  
	------------------------------------------------
	    0     0.23766       1.00000           1
	    1     0.17831       5.59633           1
	    2     0.13573      17.03930           1
	    3     0.11138      33.31310           1
	    4     0.10171      44.13710           1
	    5     0.10005      46.38517           1
	    6     0.10000      46.45292           1
	------------------------------------------------
	Norm of target step-size    0.10000
	Projected energy change by RFO approximation:        -0.0057951649

	Back-transformation to cartesian coordinates...
	Successfully converged to displaced geometry.

	--- Internal Coordinate Step in ANG or DEG, aJ/ANG or AJ/DEG ---
	 ---------------------------------------------------------------------------
	   Coordinate                Previous        Force       Change         New 
	   ----------                --------       ------       ------       ------
	    1 R(1,4)          =      1.069698     0.139051     0.013966     1.083663
	    2 R(2,4)          =      1.070683     0.136942     0.013781     1.084464
	    3 R(3,4)          =      1.069320     0.136330     0.013682     1.083002
	    4 R(4,7)          =      1.540645    -0.020207    -0.002354     1.538291
	    5 R(5,7)          =      1.070326     0.138996     0.013977     1.084304
	    6 R(6,7)          =      1.069761     0.140658     0.014129     1.083889
	    7 R(7,10)         =      1.540128     0.061767     0.007188     1.547316
	    8 R(8,10)         =      1.069131     0.144770     0.014524     1.083655
	    9 R(9,10)         =      1.069357     0.145056     0.014559     1.083916
	   10 R(10,14)        =      1.539315    -0.014314    -0.001664     1.537652
	   11 R(11,14)        =      1.069756     0.142959     0.014360     1.084115
	   12 R(12,14)        =      1.069896     0.138190     0.013885     1.083781
	   13 R(13,14)        =      1.069573     0.134861     0.013541     1.083114
	   14 B(1,4,2)        =    109.484805    -0.000298    -0.526057   108.958748
	   15 B(1,4,3)        =    109.499161    -0.000193    -0.360286   109.138875
	   16 B(1,4,7)        =    109.457783     0.000153     0.262545   109.720328
	   17 B(2,4,3)        =    109.437340    -0.000281    -0.487060   108.950280
	   18 B(2,4,7)        =    109.467262     0.000481     0.860584   110.327846
	   19 B(3,4,7)        =    109.480971     0.000140     0.239110   109.720081
	   20 B(4,7,5)        =    109.431343    -0.000245    -0.407119   109.024224
	   21 B(4,7,6)        =    109.528316    -0.000221    -0.343275   109.185041
	   22 B(4,7,10)       =    109.501062     0.000710     1.160594   110.661656
	   23 B(5,7,6)        =    109.469614    -0.000055    -0.278268   109.191346
	   24 B(5,7,10)       =    109.437654    -0.000041     0.040871   109.478525
	   25 B(6,7,10)       =    109.459295    -0.000149    -0.181402   109.277892
	   26 B(7,10,8)       =    109.451808    -0.000150    -0.184080   109.267727
	   27 B(7,10,9)       =    109.486941    -0.000048     0.025042   109.511983
	   28 B(7,10,14)      =    109.503589     0.000713     1.164918   110.668508
	   29 B(8,10,9)       =    109.478016    -0.000055    -0.279322   109.198695
	   30 B(8,10,14)      =    109.489368    -0.000218    -0.336596   109.152772
	   31 B(9,10,14)      =    109.417605    -0.000241    -0.398710   109.018895
	   32 B(10,14,11)     =    109.507647     0.000476     0.852385   110.360032
	   33 B(10,14,12)     =    109.478775     0.000149     0.256794   109.735570
	   34 B(10,14,13)     =    109.533491     0.000135     0.230322   109.763812
	   35 B(11,14,12)     =    109.409259    -0.000291    -0.511463   108.897796
	   36 B(11,14,13)     =    109.459705    -0.000282    -0.489757   108.969948
	   37 B(12,14,13)     =    109.438352    -0.000188    -0.351074   109.087278
	   38 D(1,4,7,5)      =    179.965873     0.000036     0.340125   180.305997
	   39 D(1,4,7,6)      =    -60.025575    -0.000045    -0.450402   -60.475977
	   40 D(1,4,7,10)     =     60.013132    -0.000018    -0.170720    59.842413
	   41 D(2,4,7,5)      =    -60.028143     0.000041     0.390027   -59.638115
	   42 D(2,4,7,6)      =     59.980409    -0.000040    -0.400499    59.579910
	   43 D(2,4,7,10)     =   -179.980883    -0.000013    -0.120817  -180.101700
	   44 D(3,4,7,5)      =     59.933911     0.000049     0.473224    60.407134
	   45 D(3,4,7,6)      =    179.942463    -0.000032    -0.317303   179.625159
	   46 D(3,4,7,10)     =    -60.018830    -0.000004    -0.037620   -60.056450
	   47 D(4,7,10,8)     =     10.009940     0.000030     0.293865    10.303805
	   48 D(4,7,10,9)     =    130.015999    -0.000013    -0.144524   129.871475
	   49 D(4,7,10,14)    =   -110.020218     0.000012     0.103262  -109.916956
	   50 D(5,7,10,8)     =   -109.938935     0.000005     0.050369  -109.888566
	   51 D(5,7,10,9)     =     10.067123    -0.000038    -0.388019     9.679104
	   52 D(5,7,10,14)    =    130.030906    -0.000013    -0.140233   129.890673
	   53 D(6,7,10,8)     =    130.090866     0.000047     0.475877   130.566744
	   54 D(6,7,10,9)     =   -109.903076     0.000004     0.037489  -109.865587
	   55 D(6,7,10,14)    =     10.060708     0.000029     0.285275    10.345982
	   56 D(7,10,14,11)   =    179.980967    -0.000011    -0.109512   179.871454
	   57 D(7,10,14,12)   =     60.029926    -0.000017    -0.168822    59.861105
	   58 D(7,10,14,13)   =    -59.972597    -0.000004    -0.038250   -60.010848
	   59 D(8,10,14,11)   =     59.973791    -0.000039    -0.391767    59.582024
	   60 D(8,10,14,12)   =    -59.977249    -0.000045    -0.451076   -60.428326
	   61 D(8,10,14,13)   =   -179.979773    -0.000032    -0.320505  -180.300278
	   62 D(9,10,14,11)   =    -60.012810     0.000041     0.390072   -59.622738
	   63 D(9,10,14,12)   =   -179.963850     0.000035     0.330762  -179.633088
	   64 D(9,10,14,13)   =     60.033626     0.000048     0.461334    60.494960
	 ---------------------------------------------------------------------------
	 Forces used to impose fixed constraints are not included.
	  Forces zeroed: 49 

  ==> Convergence Check <==

  Measures of convergence in internal coordinates in au.
  Criteria marked as inactive (o), active & met (*), and active & unmet ( ).
  --------------------------------------------------------------------------------------------- ~
   Step     Total Energy     Delta E     MAX Force     RMS Force      MAX Disp      RMS Disp    ~
  --------------------------------------------------------------------------------------------- ~
    Convergence Criteria    1.00e-06 *    3.00e-04 *             o    1.20e-03 *             o  ~
  --------------------------------------------------------------------------------------------- ~
      1    -157.83305841   -1.58e+02      1.76e-02      7.31e-03 o    2.75e-02      1.25e-02 o  ~
  ---------------------------------------------------------------------------------------------

	Writing optimization data to binary file.
	Structure for next step:
	Cartesian Geometry (in Angstrom)
	    H    -2.0303183103   0.1947171420   0.0390947068
	    H    -1.8908282167   1.8295569686  -0.6103966385
	    H    -1.5774703091   0.4390726495  -1.6496906780
	    C    -1.4764528156   0.8279448805  -0.6439730539
	    H     0.5505502497   1.4906305413  -0.9295835669
	    H     0.1000667767   1.2467308627   0.7618015938
	    C     0.0084353072   0.8502139912  -0.2427850533
	    H    -0.0992182241  -1.2460430312  -0.7616412718
	    H     1.5282996285  -0.5649600150  -0.8565526568
	    C     0.6070020086  -0.5759940531  -0.2856218564
	    H     1.3210557978  -2.0828911851   1.0996653137
	    H    -0.0113495523  -1.1046313230   1.7150302955
	    H     1.6137511172  -0.4225586215   1.6187802366
	    C     0.9041334012  -1.0827881443   1.1353798191
			--------------------------
			 OPTKING Finished Execution 
			--------------------------

    Structure for next step:
    Molecular point group: c1
    Full point group: C1

    Geometry (in Angstrom), charge = 0, multiplicity = 1:

    H           -2.030629558902     0.194537735256     0.039338463555
    H           -1.891139465336     1.829377561866    -0.610152881733
    H           -1.577781557759     0.438893242757    -1.649446921259
    C           -1.476764064205     0.827765473727    -0.643729297122
    H            0.550239001059     1.490451134569    -0.929339810175
    H            0.099755528055     1.246551455916     0.762045350602
    C            0.008124058554     0.850034584468    -0.242541296543
    H           -0.099529472757    -1.246222437949    -0.761397515033
    H            1.527988379893    -0.565139421758    -0.856308900016
    C            0.606690759985    -0.576173459846    -0.285378099694
    H            1.320744549175    -2.083070591829     1.099909070420
    H           -0.011660800984    -1.104810729800     1.715274052286
    H            1.613439868598    -0.422738028302     1.619023993377
    C            0.903822152566    -1.082967551076     1.135623575889

gradient() will perform analytic gradient computation.
    SCF Algorithm Type (re)set to DF.

*** tstart() called on lski1497
*** at Mon Feb 20 17:25:12 2017


         ---------------------------------------------------------
                                   SCF
            by Justin Turney, Rob Parrish, and Andy Simmonett
                              RHF Reference
                        1 Threads,   1000 MiB Core
         ---------------------------------------------------------

  ==> Geometry <==

    Molecular point group: c1
    Full point group: C1

    Geometry (in Angstrom), charge = 0, multiplicity = 1:

       Center              X                  Y                   Z               Mass       
    ------------   -----------------  -----------------  -----------------  -----------------
           H         -2.030629558902     0.194537735256     0.039338463555     1.007825032070
           H         -1.891139465336     1.829377561866    -0.610152881733     1.007825032070
           H         -1.577781557759     0.438893242757    -1.649446921259     1.007825032070
           C         -1.476764064205     0.827765473727    -0.643729297122    12.000000000000
           H          0.550239001059     1.490451134569    -0.929339810175     1.007825032070
           H          0.099755528055     1.246551455916     0.762045350602     1.007825032070
           C          0.008124058554     0.850034584468    -0.242541296543    12.000000000000
           H         -0.099529472757    -1.246222437949    -0.761397515033     1.007825032070
           H          1.527988379893    -0.565139421758    -0.856308900016     1.007825032070
           C          0.606690759985    -0.576173459846    -0.285378099694    12.000000000000
           H          1.320744549175    -2.083070591829     1.099909070420     1.007825032070
           H         -0.011660800984    -1.104810729800     1.715274052286     1.007825032070
           H          1.613439868598    -0.422738028302     1.619023993377     1.007825032070
           C          0.903822152566    -1.082967551076     1.135623575889    12.000000000000

  Running in c1 symmetry.

  Rotational constants: A =      0.55201  B =      0.13400  C =      0.13081 [cm^-1]
  Rotational constants: A =  16548.85966  B =   4017.33237  C =   3921.52033 [MHz]
  Nuclear repulsion =  131.862009148417599

  Charge       = 0
  Multiplicity = 1
  Electrons    = 34
  Nalpha       = 17
  Nbeta        = 17

  ==> Algorithm <==

  SCF Algorithm Type is DF.
  DIIS enabled.
  MOM disabled.
  Fractional occupation disabled.
  Guess Type is READ.
  Energy threshold   = 1.00e-10
  Density threshold  = 1.00e-10
  Integral threshold = 0.00e+00

  ==> Primary Basis <==

  Basis Set: 6-31G(D)
    Number of shells: 44
    Number of basis function: 80
    Number of Cartesian functions: 80
    Spherical Harmonics?: false
    Max angular momentum: 2

  ==> Pre-Iterations <==

   -------------------------------------------------------
    Irrep   Nso     Nmo     Nalpha   Nbeta   Ndocc  Nsocc
   -------------------------------------------------------
     A         80      80       0       0       0       0
   -------------------------------------------------------
    Total      80      80      17      17      17       0
   -------------------------------------------------------

  ==> Integral Setup <==

  ==> DFJK: Density-Fitted J/K Matrices <==

    J tasked:                  Yes
    K tasked:                  Yes
    wK tasked:                  No
    OpenMP threads:              1
    Integrals threads:           1
    Memory (MB):               715
    Algorithm:                Core
    Integral Cache:           NONE
    Schwarz Cutoff:          1E-12
    Fitting Condition:       1E-12

   => Auxiliary Basis Set <=

  Basis Set: 
    Number of shells: 186
    Number of basis function: 574
    Number of Cartesian functions: 574
    Spherical Harmonics?: false
    Max angular momentum: 3

  Minimum eigenvalue in the overlap matrix is 5.1006590593E-03.
  Using Symmetric Orthogonalization.
  SCF Guess was Projection but file not found.
  Switching over to SAD guess.

  SCF Guess: Superposition of Atomic Densities via on-the-fly atomic UHF.

  ==> Iterations <==

                           Total Energy        Delta E     RMS |[F,P]|

   @DF-RHF iter   0:  -158.83253288609563   -1.58833e+02   4.62471e-02 
   @DF-RHF iter   1:  -157.20028278600017    1.63225e+00   3.96740e-03 
   @DF-RHF iter   2:  -157.28225874027044   -8.19760e-02   1.12898e-03 DIIS
   @DF-RHF iter   3:  -157.29069247679132   -8.43374e-03   2.99654e-04 DIIS
   @DF-RHF iter   4:  -157.29115258055100   -4.60104e-04   8.53896e-05 DIIS
   @DF-RHF iter   5:  -157.29119589832806   -4.33178e-05   1.39166e-05 DIIS
   @DF-RHF iter   6:  -157.29119743768103   -1.53935e-06   2.40737e-06 DIIS
   @DF-RHF iter   7:  -157.29119747278565   -3.51046e-08   7.53555e-07 DIIS
   @DF-RHF iter   8:  -157.29119747596820   -3.18255e-09   1.60813e-07 DIIS
   @DF-RHF iter   9:  -157.29119747617148   -2.03272e-10   4.01458e-08 DIIS
   @DF-RHF iter  10:  -157.29119747618483   -1.33582e-11   7.57831e-09 DIIS
   @DF-RHF iter  11:  -157.29119747618500   -1.70530e-13   2.22129e-09 DIIS
   @DF-RHF iter  12:  -157.29119747618512   -1.13687e-13   5.03118e-10 DIIS
   @DF-RHF iter  13:  -157.29119747618483    2.84217e-13   9.15479e-11 DIIS

  ==> Post-Iterations <==

    Orbital Energies (a.u.)
    -----------------------

    Doubly Occupied:                                                      

       1A    -11.211802     2A    -11.211242     3A    -11.206795  
       4A    -11.206710     5A     -1.068019     6A     -0.977327  
       7A     -0.862190     8A     -0.786886     9A     -0.631502  
      10A     -0.607299    11A     -0.579554    12A     -0.548317  
      13A     -0.514261    14A     -0.506640    15A     -0.468507  
      16A     -0.458618    17A     -0.446870  

    Virtual:                                                              

      18A      0.232029    19A      0.272437    20A      0.284074  
      21A      0.292751    22A      0.314707    23A      0.323217  
      24A      0.335279    25A      0.346218    26A      0.347703  
      27A      0.361260    28A      0.407698    29A      0.450005  
      30A      0.453889    31A      0.715819    32A      0.728395  
      33A      0.732175    34A      0.783274    35A      0.791232  
      36A      0.815744    37A      0.847346    38A      0.932188  
      39A      0.941718    40A      0.994939    41A      1.060342  
      42A      1.108288    43A      1.161446    44A      1.164559  
      45A      1.179840    46A      1.196305    47A      1.196459  
      48A      1.216901    49A      1.239521    50A      1.245401  
      51A      1.253574    52A      1.268963    53A      1.269949  
      54A      1.442992    55A      1.692494    56A      1.737860  
      57A      1.795458    58A      1.894701    59A      2.029164  
      60A      2.056670    61A      2.188810    62A      2.241311  
      63A      2.268086    64A      2.308098    65A      2.368115  
      66A      2.451222    67A      2.484945    68A      2.617445  
      69A      2.635516    70A      2.653871    71A      2.719700  
      72A      2.750464    73A      2.781008    74A      2.890809  
      75A      3.000557    76A      3.074730    77A      4.561341  
      78A      4.656571    79A      4.827447    80A      4.959405  

    Final Occupation by Irrep:
              A 
    DOCC [    17 ]

  Energy converged.

  @DF-RHF Final Energy:  -157.29119747618483

   => Energetics <=

    Nuclear Repulsion Energy =            131.8620091484175987
    One-Electron Energy =                -471.7213361318405305
    Two-Electron Energy =                 182.5681295072379555
    DFT Exchange-Correlation Energy =       0.0000000000000000
    Empirical Dispersion Energy =           0.0000000000000000
    PCM Polarization Energy =               0.0000000000000000
    EFP Energy =                            0.0000000000000000
    Total Energy =                       -157.2911974761849763


  Saving occupied orbitals to File 180.

*** tstop() called on lski1497 at Mon Feb 20 17:25:20 2017
Module time:
	user time   =       4.77 seconds =       0.08 minutes
	system time =       0.14 seconds =       0.00 minutes
	total time  =          8 seconds =       0.13 minutes
Total time:
	user time   =      26.88 seconds =       0.45 minutes
	system time =       0.83 seconds =       0.01 minutes
	total time  =         40 seconds =       0.67 minutes


Properties will be evaluated at   0.000000,   0.000000,   0.000000 Bohr

Properties computed using the SCF density matrix

  Nuclear Dipole Moment: (a.u.)
     X:    -0.4674      Y:    -0.2083      Z:     0.4021

  Electronic Dipole Moment: (a.u.)
     X:     0.4919      Y:     0.2189      Z:    -0.4233

  Dipole Moment: (a.u.)
     X:     0.0245      Y:     0.0107      Z:    -0.0212     Total:     0.0342

  Dipole Moment: (Debye)
     X:     0.0624      Y:     0.0271      Z:    -0.0539     Total:     0.0868


  //>>>>>>>>>>>>>>>>>>>>>>>>>>>>>>>>>>>//
  //               DFMP2               //
  //<<<<<<<<<<<<<<<<<<<<<<<<<<<<<<<<<<<//


*** tstart() called on lski1497
*** at Mon Feb 20 17:25:20 2017


*** tstop() called on lski1497 at Mon Feb 20 17:25:20 2017
Module time:
	user time   =       0.49 seconds =       0.01 minutes
	system time =       0.00 seconds =       0.00 minutes
	total time  =          0 seconds =       0.00 minutes
Total time:
	user time   =      27.39 seconds =       0.46 minutes
	system time =       0.83 seconds =       0.01 minutes
	total time  =         40 seconds =       0.67 minutes
	 --------------------------------------------------------
	                          DF-MP2                         
	      2nd-Order Density-Fitted Moller-Plesset Theory     
	              RMP2 Wavefunction,   1 Threads             
	                                                         
	        Rob Parrish, Justin Turney, Andy Simmonett,      
	           Ed Hohenstein, and C. David Sherrill          
	 --------------------------------------------------------

   => Auxiliary Basis Set <=

  Basis Set: 
    Number of shells: 132
    Number of basis function: 364
    Number of Cartesian functions: 414
    Spherical Harmonics?: true
    Max angular momentum: 3

	 --------------------------------------------------------
	                 NBF =    80, NAUX =   364
	 --------------------------------------------------------
	   CLASS    FOCC     OCC    AOCC    AVIR     VIR    FVIR
	   PAIRS       0      17      17      63      63       0
	 --------------------------------------------------------

DGAS Warning! /src/lib/libfock/apps.cc:80 is not currently checking restricted

         ------------------------------------------------------------
                                     CPHF                           
                                  Rob Parrish                       
         ------------------------------------------------------------

  ==> Geometry <==

    Molecular point group: c1
    Full point group: C1

    Geometry (in Angstrom), charge = 0, multiplicity = 1:

       Center              X                  Y                   Z               Mass       
    ------------   -----------------  -----------------  -----------------  -----------------
           H         -2.030629558902     0.194537735256     0.039338463555     1.007825032070
           H         -1.891139465336     1.829377561866    -0.610152881733     1.007825032070
           H         -1.577781557759     0.438893242757    -1.649446921259     1.007825032070
           C         -1.476764064205     0.827765473727    -0.643729297122    12.000000000000
           H          0.550239001059     1.490451134569    -0.929339810175     1.007825032070
           H          0.099755528055     1.246551455916     0.762045350602     1.007825032070
           C          0.008124058554     0.850034584468    -0.242541296543    12.000000000000
           H         -0.099529472757    -1.246222437949    -0.761397515033     1.007825032070
           H          1.527988379893    -0.565139421758    -0.856308900016     1.007825032070
           C          0.606690759985    -0.576173459846    -0.285378099694    12.000000000000
           H          1.320744549175    -2.083070591829     1.099909070420     1.007825032070
           H         -0.011660800984    -1.104810729800     1.715274052286     1.007825032070
           H          1.613439868598    -0.422738028302     1.619023993377     1.007825032070
           C          0.903822152566    -1.082967551076     1.135623575889    12.000000000000

  Nuclear repulsion =  131.862009148417627
  Reference energy  = -157.291197476184834

  ==> Basis Set <==

  Basis Set: 6-31G(D)
    Number of shells: 44
    Number of basis function: 80
    Number of Cartesian functions: 80
    Spherical Harmonics?: false
    Max angular momentum: 2

  ==> CGRSolver (by Rob Parrish) <==

   Number of roots    =         1
   Preconditioning    =    JACOBI
   Convergence cutoff =     1E-06
   Maximum iterations =       100

  ==> CPHFRHamiltonian (by Rob Parrish) <== 

  ==> DFJK: Density-Fitted J/K Matrices <==

    J tasked:                  Yes
    K tasked:                  Yes
    wK tasked:                  No
    OpenMP threads:              1
    Integrals threads:           1
    Memory (MB):               715
    Algorithm:                Core
    Integral Cache:           NONE
    Schwarz Cutoff:          1E-12
    Fitting Condition:       1E-12

   => Auxiliary Basis Set <=

  Basis Set: 
    Number of shells: 186
    Number of basis function: 574
    Number of Cartesian functions: 574
    Spherical Harmonics?: false
    Max angular momentum: 3

  ==> CPHF Iterations <==

  => Iterations <=

             Iter  Converged  Remaining    Residual
  CGR           1          0          1   7.398E-02
  CGR           2          0          1   8.930E-03
  CGR           3          0          1   2.623E-03
  CGR           4          0          1   4.298E-04
  CGR           5          0          1   8.339E-05
  CGR           6          0          1   1.932E-05
  CGR           7          0          1   3.400E-06
  CGR           8          1          0   6.137E-07

    CGRSolver converged.

  ==> DFCorrGrad: Density-Fitted Correlated Gradients <==

    OpenMP threads:              1
    Integrals threads:           1
    Memory (MB):               715
    Schwarz Cutoff:          0E+00
    Fitting Condition:       1E-12

   => Auxiliary Basis Set <=

  Basis Set: 
    Number of shells: 186
    Number of basis function: 510
    Number of Cartesian functions: 574
    Spherical Harmonics?: true
    Max angular momentum: 3

	-----------------------------------------------------------
	 ==================> DF-MP2 Energies <==================== 
	-----------------------------------------------------------
	 Reference Energy          =    -157.2911974761848342 [Eh]
	 Singles Energy            =      -0.0000000000000000 [Eh]
	 Same-Spin Energy          =      -0.1242992009097153 [Eh]
	 Opposite-Spin Energy      =      -0.4216912642629845 [Eh]
	 Correlation Energy        =      -0.5459904651726998 [Eh]
	 Total Energy              =    -157.8371879413575414 [Eh]
	-----------------------------------------------------------
	 ================> DF-SCS-MP2 Energies <================== 
	-----------------------------------------------------------
	 SCS Same-Spin Scale       =       0.3333333333333333 [-]
	 SCS Opposite-Spin Scale   =       1.2000000000000000 [-]
	 SCS Same-Spin Energy      =      -0.0414330669699051 [Eh]
	 SCS Opposite-Spin Energy  =      -0.5060295171155813 [Eh]
	 SCS Correlation Energy    =      -0.5474625840854864 [Eh]
	 SCS Total Energy          =    -157.8386600602703140 [Eh]
	-----------------------------------------------------------


  -Total Gradient:
     Atom            X                  Y                   Z
    ------   -----------------  -----------------  -----------------
       1        0.005280580702     0.003856385616    -0.002932577598
       2        0.005221603589    -0.004752910063     0.000362221884
       3        0.002706723697     0.002283934316     0.006056298306
       4       -0.015745102235    -0.005136730457    -0.005885431494
       5       -0.003277466010    -0.006949534653     0.001449848137
       6       -0.002702812952    -0.006046222448    -0.005025941835
       7        0.011904843115     0.016890654348     0.010063833358
       8        0.001690578815     0.005644855985     0.006105556320
       9       -0.004796514663     0.003386694913     0.005483045349
      10       -0.000555150105    -0.012022740177    -0.019665521281
      11       -0.002506761988     0.006241233347    -0.002781731612
      12        0.004538062111     0.000483433303    -0.005443249802
      13       -0.004240021691    -0.002908031484    -0.004652851840
      14        0.002481437615    -0.000971022543     0.016866502107


			-----------------------------------------
			 OPTKING 2.0: for geometry optimizations 
			  - R.A. King,  Bethel University        
			-----------------------------------------

	Previous internal coordinate definitions found.
	---Fragment 1 Geometry and Gradient---
	 H          -3.8373337437        0.3676230421        0.0743389226
	 H          -3.5737356686        3.4570225856       -1.1530218457
	 H          -2.9815750417        0.8293880304       -3.1170029519
	 C          -2.7906796442        1.5642500476       -1.2164720753
	 H           1.0398010196        2.8165444588       -1.7561977256
	 H           0.1885106283        2.3556408622        1.4400570135
	 C           0.0153522458        1.6063325681       -0.4583366264
	 H          -0.1880834457       -2.3550191084       -1.4388327817
	 H           2.8874795722       -1.0679587340       -1.6181893062
	 C           1.1464793837       -1.0888100441       -0.5392864527
	 H           2.4958454894       -3.9364329340        2.0785269142
	 H          -0.0220357204       -2.0877897080        3.2413982017
	 H           3.0489594835       -0.7988590994        3.0595119501
	 C           1.7079763412       -2.0465120823        2.1460175485
	             0.0052805807        0.0038563856       -0.0029325776
	             0.0052216036       -0.0047529101        0.0003622219
	             0.0027067237        0.0022839343        0.0060562983
	            -0.0157451022       -0.0051367305       -0.0058854315
	            -0.0032774660       -0.0069495347        0.0014498481
	            -0.0027028130       -0.0060462224       -0.0050259418
	             0.0119048431        0.0168906543        0.0100638334
	             0.0016905788        0.0056448560        0.0061055563
	            -0.0047965147        0.0033866949        0.0054830453
	            -0.0005551501       -0.0120227402       -0.0196655213
	            -0.0025067620        0.0062412333       -0.0027817316
	             0.0045380621        0.0004834333       -0.0054432498
	            -0.0042400217       -0.0029080315       -0.0046528518
	             0.0024814376       -0.0009710225        0.0168665021

	---Fragment 1 Intrafragment Coordinates---
	 - Coordinate -           - BOHR/RAD -       - ANG/DEG -
	 R(1,4)           =         2.047827	       1.083663
	 R(2,4)           =         2.049339	       1.084464
	 R(3,4)           =         2.046578	       1.083002
	 R(4,7)           =         2.906949	       1.538291
	 R(5,7)           =         2.049037	       1.084304
	 R(6,7)           =         2.048254	       1.083889
	 R(7,10)          =         2.924003	       1.547316
	 R(8,10)          =         2.047810	       1.083655
	 R(9,10)          =         2.048304	       1.083916
	 R(10,14)         =         2.905741	       1.537652
	 R(11,14)         =         2.048681	       1.084115
	 R(12,14)         =         2.048049	       1.083781
	 R(13,14)         =         2.046789	       1.083114
	 B(1,4,2)         =         1.901689	     108.958748
	 B(1,4,3)         =         1.904833	     109.138875
	 B(1,4,7)         =         1.914981	     109.720328
	 B(2,4,3)         =         1.901541	     108.950280
	 B(2,4,7)         =         1.925584	     110.327846
	 B(3,4,7)         =         1.914977	     109.720081
	 B(4,7,5)         =         1.902832	     109.024224
	 B(4,7,6)         =         1.905638	     109.185041
	 B(4,7,10)        =         1.931410	     110.661656
	 B(5,7,6)         =         1.905749	     109.191346
	 B(5,7,10)        =         1.910761	     109.478525
	 B(6,7,10)        =         1.907259	     109.277892
	 B(7,10,8)        =         1.907082	     109.267727
	 B(7,10,9)        =         1.911345	     109.511983
	 B(7,10,14)       =         1.931530	     110.668508
	 B(8,10,9)        =         1.905877	     109.198695
	 B(8,10,14)       =         1.905075	     109.152772
	 B(9,10,14)       =         1.902739	     109.018895
	 B(10,14,11)      =         1.926146	     110.360032
	 B(10,14,12)      =         1.915247	     109.735570
	 B(10,14,13)      =         1.915740	     109.763812
	 B(11,14,12)      =         1.900625	     108.897796
	 B(11,14,13)      =         1.901884	     108.969948
	 B(12,14,13)      =         1.903932	     109.087278
	 D(1,4,7,5)       =        -3.136252	    -179.694003
	 D(1,4,7,6)       =        -1.055505	     -60.475977
	 D(1,4,7,10)      =         1.044447	      59.842413
	 D(2,4,7,5)       =        -1.040881	     -59.638115
	 D(2,4,7,6)       =         1.039866	      59.579910
	 D(2,4,7,10)      =         3.139818	     179.898300
	 D(3,4,7,5)       =         1.054303	      60.407134
	 D(3,4,7,6)       =         3.135050	     179.625159
	 D(3,4,7,10)      =        -1.048183	     -60.056450
	 D(4,7,10,8)      =         0.179835	      10.303805
	 D(4,7,10,9)      =         2.266685	     129.871475
	 D(4,7,10,14)     =        -1.918413	    -109.916956
	 D(5,7,10,8)      =        -1.917917	    -109.888566
	 D(5,7,10,9)      =         0.168932	       9.679104
	 D(5,7,10,14)     =         2.267020	     129.890673
	 D(6,7,10,8)      =         2.278820	     130.566744
	 D(6,7,10,9)      =        -1.917516	    -109.865587
	 D(6,7,10,14)     =         0.180571	      10.345982
	 D(7,10,14,11)    =         3.139349	     179.871454
	 D(7,10,14,12)    =         1.044773	      59.861105
	 D(7,10,14,13)    =        -1.047387	     -60.010848
	 D(8,10,14,11)    =         1.039902	      59.582024
	 D(8,10,14,12)    =        -1.054673	     -60.428326
	 D(8,10,14,13)    =         3.136352	     179.699722
	 D(9,10,14,11)    =        -1.040613	     -59.622738
	 D(9,10,14,12)    =        -3.135189	    -179.633088
	 D(9,10,14,13)    =         1.055836	      60.494960

	Current energy   :      -157.8371879414

	Energy change for the previous step:
		Projected    :        -0.0057951649
		Actual       :        -0.0041295305

	Performing BFGS update.
	Previous computed or guess Hessian on step 1.
	Steps to be used in Hessian update: 1
	Adding user-defined constraint: Fragment 1; Coordinate 49:
		Value =    -1.918413; Fixed value    =    -1.919860
		Force =    -0.000760; Force constant =     0.525000
	Removing off-diagonal coupling between coordinate 49 and others.
	Taking RFO optimization step.
	Going to follow RFO solution 1.
	Using RFO vector 1.

	Determining step-restricting scale parameter for RS-RFO.
	Maximum step size allowed    0.10000

	 Iter      |step|        alpha        rfo_root  
	------------------------------------------------
	    0     0.19392       1.00000           1
	    1     0.15605       4.19489           1
	    2     0.12327      13.15023           1
	    3     0.10593      23.13960           1
	    4     0.10055      27.65544           1
	    5     0.10001      28.16886           1
	------------------------------------------------
	Norm of target step-size    0.10001
	Projected energy change by RFO approximation:        -0.0026328054

	Back-transformation to cartesian coordinates...
	Could not converge backtransformation.
	Using first guess instead.

	--- Internal Coordinate Step in ANG or DEG, aJ/ANG or AJ/DEG ---
	 ---------------------------------------------------------------------------
	   Coordinate                Previous        Force       Change         New 
	   ----------                --------       ------       ------       ------
	    1 R(1,4)          =      1.083663     0.056030     0.008627     1.092290
	    2 R(2,4)          =      1.084464     0.052512     0.007722     1.092185
	    3 R(3,4)          =      1.083002     0.055172     0.008440     1.091442
	    4 R(4,7)          =      1.538291    -0.025772    -0.006624     1.531667
	    5 R(5,7)          =      1.084304     0.054882     0.008203     1.092507
	    6 R(6,7)          =      1.083889     0.058483     0.009102     1.092991
	    7 R(7,10)         =      1.547316     0.008761    -0.000531     1.546785
	    8 R(8,10)         =      1.083655     0.059929     0.009294     1.092949
	    9 R(9,10)         =      1.083916     0.057099     0.008504     1.092420
	   10 R(10,14)        =      1.537652    -0.023076    -0.006109     1.531543
	   11 R(11,14)        =      1.084115     0.054622     0.008002     1.092117
	   12 R(12,14)        =      1.083781     0.055647     0.008563     1.092344
	   13 R(13,14)        =      1.083114     0.054599     0.008351     1.091466
	   14 B(1,4,2)        =    108.958748    -0.000205    -0.731826   108.226922
	   15 B(1,4,3)        =    109.138875    -0.000176    -0.767493   108.371383
	   16 B(1,4,7)        =    109.720328     0.000152     0.625991   110.346318
	   17 B(2,4,3)        =    108.950280    -0.000191    -0.663404   108.286876
	   18 B(2,4,7)        =    110.327846     0.000273     0.908224   111.236070
	   19 B(3,4,7)        =    109.720081     0.000138     0.566215   110.286296
	   20 B(4,7,5)        =    109.024224    -0.000115    -0.245599   108.778626
	   21 B(4,7,6)        =    109.185041    -0.000090    -0.110053   109.074987
	   22 B(4,7,10)       =    110.661656     0.000366     1.174230   111.835886
	   23 B(5,7,6)        =    109.191346    -0.000112    -1.102463   108.088882
	   24 B(5,7,10)       =    109.478525     0.000008     0.261299   109.739825
	   25 B(6,7,10)       =    109.277892    -0.000063    -0.033722   109.244170
	   26 B(7,10,8)       =    109.267727    -0.000062    -0.029661   109.238066
	   27 B(7,10,9)       =    109.511983     0.000004     0.243574   109.755557
	   28 B(7,10,14)      =    110.668508     0.000365     1.168230   111.836738
	   29 B(8,10,9)       =    109.198695    -0.000113    -1.106425   108.092270
	   30 B(8,10,14)      =    109.152772    -0.000088    -0.095497   109.057274
	   31 B(9,10,14)      =    109.018895    -0.000112    -0.236479   108.782417
	   32 B(10,14,11)     =    110.360032     0.000269     0.888014   111.248045
	   33 B(10,14,12)     =    109.735570     0.000148     0.612792   110.348362
	   34 B(10,14,13)     =    109.763812     0.000133     0.544410   110.308222
	   35 B(11,14,12)     =    108.897796    -0.000198    -0.700156   108.197640
	   36 B(11,14,13)     =    108.969948    -0.000191    -0.667212   108.302736
	   37 B(12,14,13)     =    109.087278    -0.000171    -0.740059   108.347219
	   38 D(1,4,7,5)      =   -179.694003     0.000026     0.618785  -179.075218
	   39 D(1,4,7,6)      =    -60.475977    -0.000033    -0.916484   -61.392461
	   40 D(1,4,7,10)     =     59.842413    -0.000012    -0.287065    59.555348
	   41 D(2,4,7,5)      =    -59.638115     0.000029     0.695429   -58.942687
	   42 D(2,4,7,6)      =     59.579910    -0.000030    -0.839841    58.740069
	   43 D(2,4,7,10)     =    179.898300    -0.000008    -0.210422   179.687878
	   44 D(3,4,7,5)      =     60.407134     0.000034     0.818155    61.225289
	   45 D(3,4,7,6)      =    179.625159    -0.000024    -0.717114   178.908045
	   46 D(3,4,7,10)     =    -60.056450    -0.000003    -0.087695   -60.144146
	   47 D(4,7,10,8)     =     10.303805     0.000025     0.745915    11.049720
	   48 D(4,7,10,9)     =    129.871475    -0.000014    -0.474078   129.397397
	   49 D(4,7,10,14)    =   -109.916956     0.000007     0.142908  -109.774048
	   50 D(5,7,10,8)     =   -109.888566     0.000004     0.125786  -109.762780
	   51 D(5,7,10,9)     =      9.679104    -0.000036    -1.094207     8.584897
	   52 D(5,7,10,14)    =    129.890673    -0.000014    -0.477221   129.413452
	   53 D(6,7,10,8)     =    130.566744     0.000043     1.332563   131.899306
	   54 D(6,7,10,9)     =   -109.865587     0.000003     0.112570  -109.753017
	   55 D(6,7,10,14)    =     10.345982     0.000025     0.729556    11.075538
	   56 D(7,10,14,11)   =    179.871454    -0.000007    -0.186203   179.685251
	   57 D(7,10,14,12)   =     59.861105    -0.000011    -0.280780    59.580324
	   58 D(7,10,14,13)   =    -60.010848    -0.000003    -0.093586   -60.104434
	   59 D(8,10,14,11)   =     59.582024    -0.000029    -0.825526    58.756498
	   60 D(8,10,14,12)   =    -60.428326    -0.000033    -0.920103   -61.348429
	   61 D(8,10,14,13)   =    179.699722    -0.000025    -0.732909   178.966812
	   62 D(9,10,14,11)   =    -59.622738     0.000029     0.700273   -58.922465
	   63 D(9,10,14,12)   =   -179.633088     0.000025     0.605696  -179.027391
	   64 D(9,10,14,13)   =     60.494960     0.000033     0.792890    61.287850
	 ---------------------------------------------------------------------------
	 Forces used to impose fixed constraints are not included.
	  Forces zeroed: 49 

  ==> Convergence Check <==

  Measures of convergence in internal coordinates in au.
  Criteria marked as inactive (o), active & met (*), and active & unmet ( ).
  ---------------------------------------------------------------------------------------------
   Step     Total Energy     Delta E     MAX Force     RMS Force      MAX Disp      RMS Disp   
  ---------------------------------------------------------------------------------------------
    Convergence Criteria    1.00e-06 *    3.00e-04 *             o    1.20e-03 *             o
  ---------------------------------------------------------------------------------------------
      2    -157.83718794   -4.13e-03      7.27e-03      3.23e-03 o    2.33e-02      1.25e-02 o  ~
  ---------------------------------------------------------------------------------------------

	Writing optimization data to binary file.
	Structure for next step:
	Cartesian Geometry (in Angstrom)
	    H    -2.0538172853   0.2089949217   0.0339805666
	    H    -1.9009755687   1.8461345612  -0.6207447384
	    H    -1.5953872218   0.4465108296  -1.6599073929
	    C    -1.4788865831   0.8391816479  -0.6482341130
	    H     0.5467677277   1.4956987929  -0.9356957877
	    H     0.0953364856   1.2604979237   0.7585912538
	    C    -0.0003631331   0.8462770369  -0.2483310939
	    H    -0.0903285225  -1.2581523532  -0.7625476815
	    H     1.5360415005  -0.5682058731  -0.8540631686
	    C     0.6096966512  -0.5748682406  -0.2750802267
	    H     1.3378787724  -2.0968809979   1.1047420780
	    H    -0.0012008852  -1.1247788556   1.7315875063
	    H     1.6256183495  -0.4326446136   1.6340920963
	    C     0.9129190906  -1.0912758122   1.1345304863
			--------------------------
			 OPTKING Finished Execution 
			--------------------------

    Structure for next step:
    Molecular point group: c1
    Full point group: C1

    Geometry (in Angstrom), charge = 0, multiplicity = 1:

    H           -2.054099880245     0.208870842532     0.034186833107
    H           -1.901258163706     1.846010482019    -0.620538471815
    H           -1.595669816747     0.446386750429    -1.659701126343
    C           -1.479169178065     0.839057568745    -0.648027846432
    H            0.546485132674     1.495574713737    -0.935489521187
    H            0.095053890656     1.260373844545     0.758797520360
    C           -0.000645728089     0.846152957740    -0.248124827384
    H           -0.090611117495    -1.258276432425    -0.762341414967
    H            1.535758905543    -0.568329952291    -0.853856902012
    C            0.609414056231    -0.574992319758    -0.274873960125
    H            1.337596177364    -2.097005077110     1.104948344530
    H           -0.001483480186    -1.124902934772     1.731793772842
    H            1.625335754527    -0.432768692799     1.634298362846
    C            0.912636495616    -1.091399891449     1.134736752828

gradient() will perform analytic gradient computation.
    SCF Algorithm Type (re)set to DF.

*** tstart() called on lski1497
*** at Mon Feb 20 17:25:44 2017


         ---------------------------------------------------------
                                   SCF
            by Justin Turney, Rob Parrish, and Andy Simmonett
                              RHF Reference
                        1 Threads,   1000 MiB Core
         ---------------------------------------------------------

  ==> Geometry <==

    Molecular point group: c1
    Full point group: C1

    Geometry (in Angstrom), charge = 0, multiplicity = 1:

       Center              X                  Y                   Z               Mass       
    ------------   -----------------  -----------------  -----------------  -----------------
           H         -2.054099880245     0.208870842532     0.034186833107     1.007825032070
           H         -1.901258163706     1.846010482019    -0.620538471815     1.007825032070
           H         -1.595669816747     0.446386750429    -1.659701126343     1.007825032070
           C         -1.479169178065     0.839057568745    -0.648027846432    12.000000000000
           H          0.546485132674     1.495574713737    -0.935489521187     1.007825032070
           H          0.095053890656     1.260373844545     0.758797520360     1.007825032070
           C         -0.000645728089     0.846152957740    -0.248124827384    12.000000000000
           H         -0.090611117495    -1.258276432425    -0.762341414967     1.007825032070
           H          1.535758905543    -0.568329952291    -0.853856902012     1.007825032070
           C          0.609414056231    -0.574992319758    -0.274873960125    12.000000000000
           H          1.337596177364    -2.097005077110     1.104948344530     1.007825032070
           H         -0.001483480186    -1.124902934772     1.731793772842     1.007825032070
           H          1.625335754527    -0.432768692799     1.634298362846     1.007825032070
           C          0.912636495616    -1.091399891449     1.134736752828    12.000000000000

  Running in c1 symmetry.

  Rotational constants: A =      0.55671  B =      0.13241  C =      0.12925 [cm^-1]
  Rotational constants: A =  16689.73030  B =   3969.67123  C =   3874.66952 [MHz]
  Nuclear repulsion =  131.395653830587719

  Charge       = 0
  Multiplicity = 1
  Electrons    = 34
  Nalpha       = 17
  Nbeta        = 17

  ==> Algorithm <==

  SCF Algorithm Type is DF.
  DIIS enabled.
  MOM disabled.
  Fractional occupation disabled.
  Guess Type is READ.
  Energy threshold   = 1.00e-10
  Density threshold  = 1.00e-10
  Integral threshold = 0.00e+00

  ==> Primary Basis <==

  Basis Set: 6-31G(D)
    Number of shells: 44
    Number of basis function: 80
    Number of Cartesian functions: 80
    Spherical Harmonics?: false
    Max angular momentum: 2

  ==> Pre-Iterations <==

   -------------------------------------------------------
    Irrep   Nso     Nmo     Nalpha   Nbeta   Ndocc  Nsocc
   -------------------------------------------------------
     A         80      80       0       0       0       0
   -------------------------------------------------------
    Total      80      80      17      17      17       0
   -------------------------------------------------------

  ==> Integral Setup <==

  ==> DFJK: Density-Fitted J/K Matrices <==

    J tasked:                  Yes
    K tasked:                  Yes
    wK tasked:                  No
    OpenMP threads:              1
    Integrals threads:           1
    Memory (MB):               715
    Algorithm:                Core
    Integral Cache:           NONE
    Schwarz Cutoff:          1E-12
    Fitting Condition:       1E-12

   => Auxiliary Basis Set <=

  Basis Set: 
    Number of shells: 186
    Number of basis function: 574
    Number of Cartesian functions: 574
    Spherical Harmonics?: false
    Max angular momentum: 3

  Minimum eigenvalue in the overlap matrix is 5.1711398219E-03.
  Using Symmetric Orthogonalization.
  SCF Guess was Projection but file not found.
  Switching over to SAD guess.

  SCF Guess: Superposition of Atomic Densities via on-the-fly atomic UHF.

  ==> Iterations <==

                           Total Energy        Delta E     RMS |[F,P]|

   @DF-RHF iter   0:  -158.78817711539835   -1.58788e+02   4.58678e-02 
   @DF-RHF iter   1:  -157.20103245245542    1.58714e+00   3.94709e-03 
   @DF-RHF iter   2:  -157.28303681055519   -8.20044e-02   1.13190e-03 DIIS
   @DF-RHF iter   3:  -157.29157095723525   -8.53415e-03   2.97315e-04 DIIS
   @DF-RHF iter   4:  -157.29202699274111   -4.56036e-04   8.51799e-05 DIIS
   @DF-RHF iter   5:  -157.29207015778570   -4.31650e-05   1.39480e-05 DIIS
   @DF-RHF iter   6:  -157.29207169098953   -1.53320e-06   2.55436e-06 DIIS
   @DF-RHF iter   7:  -157.29207172843388   -3.74444e-08   7.89394e-07 DIIS
   @DF-RHF iter   8:  -157.29207173194510   -3.51122e-09   1.56270e-07 DIIS
   @DF-RHF iter   9:  -157.29207173214337   -1.98270e-10   3.81596e-08 DIIS
   @DF-RHF iter  10:  -157.29207173215570   -1.23350e-11   7.07071e-09 DIIS
   @DF-RHF iter  11:  -157.29207173215622   -5.11591e-13   2.03654e-09 DIIS
   @DF-RHF iter  12:  -157.29207173215622    0.00000e+00   4.87036e-10 DIIS
   @DF-RHF iter  13:  -157.29207173215622    0.00000e+00   8.64315e-11 DIIS

  ==> Post-Iterations <==

    Orbital Energies (a.u.)
    -----------------------

    Doubly Occupied:                                                      

       1A    -11.214874     2A    -11.214325     3A    -11.209857  
       4A    -11.209839     5A     -1.067143     6A     -0.977289  
       7A     -0.860762     8A     -0.784372     9A     -0.628498  
      10A     -0.605407    11A     -0.577893    12A     -0.546865  
      13A     -0.512263    14A     -0.505805    15A     -0.466783  
      16A     -0.456101    17A     -0.450718  

    Virtual:                                                              

      18A      0.230981    19A      0.271229    20A      0.281832  
      21A      0.290214    22A      0.313345    23A      0.321474  
      24A      0.332525    25A      0.342535    26A      0.345468  
      27A      0.358897    28A      0.407503    29A      0.453181  
      30A      0.456897    31A      0.715377    32A      0.727070  
      33A      0.731119    34A      0.782878    35A      0.792007  
      36A      0.817244    37A      0.853023    38A      0.933080  
      39A      0.945583    40A      0.994856    41A      1.063879  
      42A      1.108378    43A      1.151901    44A      1.155643  
      45A      1.171003    46A      1.187962    47A      1.189701  
      48A      1.210678    49A      1.235496    50A      1.237102  
      51A      1.247867    52A      1.259288    53A      1.261049  
      54A      1.440542    55A      1.695671    56A      1.739847  
      57A      1.793403    58A      1.890641    59A      2.014167  
      60A      2.049283    61A      2.192526    62A      2.234739  
      63A      2.267132    64A      2.306111    65A      2.359181  
      66A      2.441346    67A      2.470028    68A      2.605712  
      69A      2.629038    70A      2.646051    71A      2.715730  
      72A      2.744552    73A      2.780602    74A      2.896437  
      75A      3.004853    76A      3.068740    77A      4.555577  
      78A      4.651934    79A      4.824090    80A      4.955561  

    Final Occupation by Irrep:
              A 
    DOCC [    17 ]

  Energy converged.

  @DF-RHF Final Energy:  -157.29207173215622

   => Energetics <=

    Nuclear Repulsion Energy =            131.3956538305877189
    One-Electron Energy =                -470.7978626184340101
    Two-Electron Energy =                 182.1101370556902452
    DFT Exchange-Correlation Energy =       0.0000000000000000
    Empirical Dispersion Energy =           0.0000000000000000
    PCM Polarization Energy =               0.0000000000000000
    EFP Energy =                            0.0000000000000000
    Total Energy =                       -157.2920717321560460


  Saving occupied orbitals to File 180.

*** tstop() called on lski1497 at Mon Feb 20 17:25:53 2017
Module time:
	user time   =       5.12 seconds =       0.09 minutes
	system time =       0.20 seconds =       0.00 minutes
	total time  =          9 seconds =       0.15 minutes
Total time:
	user time   =      49.61 seconds =       0.83 minutes
	system time =       1.53 seconds =       0.03 minutes
	total time  =         73 seconds =       1.22 minutes


Properties will be evaluated at   0.000000,   0.000000,   0.000000 Bohr

Properties computed using the SCF density matrix

  Nuclear Dipole Moment: (a.u.)
     X:    -0.4714      Y:    -0.2101      Z:     0.4051

  Electronic Dipole Moment: (a.u.)
     X:     0.4943      Y:     0.2202      Z:    -0.4248

  Dipole Moment: (a.u.)
     X:     0.0228      Y:     0.0101      Z:    -0.0197     Total:     0.0318

  Dipole Moment: (Debye)
     X:     0.0580      Y:     0.0257      Z:    -0.0500     Total:     0.0808


  //>>>>>>>>>>>>>>>>>>>>>>>>>>>>>>>>>>>//
  //               DFMP2               //
  //<<<<<<<<<<<<<<<<<<<<<<<<<<<<<<<<<<<//


*** tstart() called on lski1497
*** at Mon Feb 20 17:25:53 2017


*** tstop() called on lski1497 at Mon Feb 20 17:25:54 2017
Module time:
	user time   =       0.58 seconds =       0.01 minutes
	system time =       0.01 seconds =       0.00 minutes
	total time  =          1 seconds =       0.02 minutes
Total time:
	user time   =      50.21 seconds =       0.84 minutes
	system time =       1.54 seconds =       0.03 minutes
	total time  =         74 seconds =       1.23 minutes
	 --------------------------------------------------------
	                          DF-MP2                         
	      2nd-Order Density-Fitted Moller-Plesset Theory     
	              RMP2 Wavefunction,   1 Threads             
	                                                         
	        Rob Parrish, Justin Turney, Andy Simmonett,      
	           Ed Hohenstein, and C. David Sherrill          
	 --------------------------------------------------------

   => Auxiliary Basis Set <=

  Basis Set: 
    Number of shells: 132
    Number of basis function: 364
    Number of Cartesian functions: 414
    Spherical Harmonics?: true
    Max angular momentum: 3

	 --------------------------------------------------------
	                 NBF =    80, NAUX =   364
	 --------------------------------------------------------
	   CLASS    FOCC     OCC    AOCC    AVIR     VIR    FVIR
	   PAIRS       0      17      17      63      63       0
	 --------------------------------------------------------

DGAS Warning! /src/lib/libfock/apps.cc:80 is not currently checking restricted

         ------------------------------------------------------------
                                     CPHF                           
                                  Rob Parrish                       
         ------------------------------------------------------------

  ==> Geometry <==

    Molecular point group: c1
    Full point group: C1

    Geometry (in Angstrom), charge = 0, multiplicity = 1:

       Center              X                  Y                   Z               Mass       
    ------------   -----------------  -----------------  -----------------  -----------------
           H         -2.054099880245     0.208870842532     0.034186833107     1.007825032070
           H         -1.901258163706     1.846010482019    -0.620538471815     1.007825032070
           H         -1.595669816747     0.446386750429    -1.659701126343     1.007825032070
           C         -1.479169178065     0.839057568745    -0.648027846432    12.000000000000
           H          0.546485132674     1.495574713737    -0.935489521187     1.007825032070
           H          0.095053890656     1.260373844545     0.758797520360     1.007825032070
           C         -0.000645728089     0.846152957740    -0.248124827384    12.000000000000
           H         -0.090611117495    -1.258276432425    -0.762341414967     1.007825032070
           H          1.535758905543    -0.568329952291    -0.853856902012     1.007825032070
           C          0.609414056231    -0.574992319758    -0.274873960125    12.000000000000
           H          1.337596177364    -2.097005077110     1.104948344530     1.007825032070
           H         -0.001483480186    -1.124902934772     1.731793772842     1.007825032070
           H          1.625335754527    -0.432768692799     1.634298362846     1.007825032070
           C          0.912636495616    -1.091399891449     1.134736752828    12.000000000000

  Nuclear repulsion =  131.395653830587719
  Reference energy  = -157.292071732156217

  ==> Basis Set <==

  Basis Set: 6-31G(D)
    Number of shells: 44
    Number of basis function: 80
    Number of Cartesian functions: 80
[...]
    Number of Cartesian functions: 574
    Spherical Harmonics?: false
    Max angular momentum: 3

  ==> CPHF Iterations <==

  => Iterations <=

             Iter  Converged  Remaining    Residual
  CGR           1          0          1   7.542E-02
  CGR           2          0          1   9.269E-03
  CGR           3          0          1   2.718E-03
  CGR           4          0          1   4.240E-04
  CGR           5          0          1   8.247E-05
  CGR           6          0          1   1.814E-05
  CGR           7          0          1   2.878E-06
  CGR           8          1          0   5.452E-07

    CGRSolver converged.

  ==> DFCorrGrad: Density-Fitted Correlated Gradients <==

    OpenMP threads:              1
    Integrals threads:           1
    Memory (MB):               715
    Schwarz Cutoff:          0E+00
    Fitting Condition:       1E-12

   => Auxiliary Basis Set <=

  Basis Set: 
    Number of shells: 186
    Number of basis function: 510
    Number of Cartesian functions: 574
    Spherical Harmonics?: true
    Max angular momentum: 3

	-----------------------------------------------------------
	 ==================> DF-MP2 Energies <==================== 
	-----------------------------------------------------------
	 Reference Energy          =    -157.2923821725130153 [Eh]
	 Singles Energy            =      -0.0000000000000000 [Eh]
	 Same-Spin Energy          =      -0.1242965118966650 [Eh]
	 Opposite-Spin Energy      =      -0.4224222716999952 [Eh]
	 Correlation Energy        =      -0.5467187835966603 [Eh]
	 Total Energy              =    -157.8391009561096894 [Eh]
	-----------------------------------------------------------
	 ================> DF-SCS-MP2 Energies <================== 
	-----------------------------------------------------------
	 SCS Same-Spin Scale       =       0.3333333333333333 [-]
	 SCS Opposite-Spin Scale   =       1.2000000000000000 [-]
	 SCS Same-Spin Energy      =      -0.0414321706322217 [Eh]
	 SCS Opposite-Spin Energy  =      -0.5069067260399942 [Eh]
	 SCS Correlation Energy    =      -0.5483388966722159 [Eh]
	 SCS Total Energy          =    -157.8407210691852356 [Eh]
	-----------------------------------------------------------


  -Total Gradient:
     Atom            X                  Y                   Z
    ------   -----------------  -----------------  -----------------
       1        0.000008943231     0.000002699203     0.000004095261
       2       -0.000002140092     0.000003848929    -0.000002926240
       3       -0.000004765499    -0.000003158911    -0.000001630499
       4        0.000452948527     0.000196905487    -0.001573533073
       5       -0.000014913068    -0.000002506062     0.000005532001
       6       -0.000002796152     0.000007161441     0.000000305333
       7       -0.000036868187     0.000020376928     0.002150213033
       8        0.000002805834    -0.000007185046    -0.000000512251
       9       -0.000006630780    -0.000007007231     0.000013040745
      10       -0.001900823034    -0.000882560640    -0.000484490200
      11        0.000004378440    -0.000002895985     0.000001044022
      12       -0.000001989258     0.000000332869    -0.000010405920
      13       -0.000000280953     0.000000841046     0.000005884465
      14        0.001502130991     0.000673147971    -0.000106616679


			-----------------------------------------
			 OPTKING 2.0: for geometry optimizations 
			  - R.A. King,  Bethel University        
			-----------------------------------------

	Previous internal coordinate definitions found.
	---Fragment 1 Geometry and Gradient---
	 H          -3.9048965004        0.3596253447        0.0099549630
	 H          -3.6179427857        3.4747726400       -1.1657908829
	 H          -3.0281044217        0.8665761273       -3.1721126554
	 C          -2.8008058536        1.5777822768       -1.2449551677
	 H           1.0197970430        2.8262634257       -1.7734989074
	 H           0.1799963035        2.4245151528        1.3987159989
	 C          -0.0196220965        1.5844531280       -0.4841322825
	 H          -0.1221549143       -2.3987795916       -1.4484592338
	 H           2.9053373260       -1.0795684572       -1.6020603912
	 C           1.1569142882       -1.0783567343       -0.4939245599
	 H           2.5144427321       -3.9658328436        2.1148084842
	 H           0.0305930353       -2.0837193645        3.3218721656
	 H           3.1163323318       -0.8272880603        3.0962313942
	 C           1.7396548306       -2.0499959602        2.1575318595
	             0.0000089432        0.0000026992        0.0000040953
	            -0.0000021401        0.0000038489       -0.0000029262
	            -0.0000047655       -0.0000031589       -0.0000016305
	             0.0004529485        0.0001969055       -0.0015735331
	            -0.0000149131       -0.0000025061        0.0000055320
	            -0.0000027962        0.0000071614        0.0000003053
	            -0.0000368682        0.0000203769        0.0021502130
	             0.0000028058       -0.0000071850       -0.0000005123
	            -0.0000066308       -0.0000070072        0.0000130407
	            -0.0019008230       -0.0008825606       -0.0004844902
	             0.0000043784       -0.0000028960        0.0000010440
	            -0.0000019893        0.0000003329       -0.0000104059
	            -0.0000002810        0.0000008410        0.0000058845
	             0.0015021310        0.0006731480       -0.0001066167

	---Fragment 1 Intrafragment Coordinates---
	 - Coordinate -           - BOHR/RAD -       - ANG/DEG -
	 R(1,4)           =         2.068265	       1.094479
	 R(2,4)           =         2.067015	       1.093817
	 R(3,4)           =         2.066740	       1.093672
	 R(4,7)           =         2.883380	       1.525819
	 R(5,7)           =         2.070012	       1.095403
	 R(6,7)           =         2.071393	       1.096134
	 R(7,10)          =         2.911166	       1.540523
	 R(8,10)          =         2.071393	       1.096134
	 R(9,10)          =         2.070012	       1.095403
	 R(10,14)         =         2.883382	       1.525820
	 R(11,14)         =         2.067015	       1.093817
	 R(12,14)         =         2.068264	       1.094478
	 R(13,14)         =         2.066740	       1.093671
	 B(1,4,2)         =         1.882056	     107.833864
	 B(1,4,3)         =         1.880083	     107.720836
	 B(1,4,7)         =         1.934960	     110.865037
	 B(2,4,3)         =         1.883938	     107.941679
	 B(2,4,7)         =         1.948817	     111.658996
	 B(3,4,7)         =         1.931488	     110.666115
	 B(4,7,5)         =         1.897969	     108.745601
	 B(4,7,6)         =         1.911063	     109.495871
	 B(4,7,10)        =         1.967975	     112.756656
	 B(5,7,6)         =         1.848864	     105.932125
	 B(5,7,10)        =         1.921646	     110.102221
	 B(6,7,10)        =         1.912472	     109.576547
	 B(7,10,8)        =         1.912473	     109.576604
	 B(7,10,9)        =         1.921646	     110.102191
	 B(7,10,14)       =         1.967974	     112.756578
	 B(8,10,9)        =         1.848865	     105.932169
	 B(8,10,14)       =         1.911064	     109.495899
	 B(9,10,14)       =         1.897969	     108.745588
	 B(10,14,11)      =         1.948817	     111.658979
	 B(10,14,12)      =         1.934957	     110.864870
	 B(10,14,13)      =         1.931489	     110.666176
	 B(11,14,12)      =         1.882057	     107.833897
	 B(11,14,13)      =         1.883938	     107.941698
	 B(12,14,13)      =         1.880085	     107.720914
	 D(1,4,7,5)       =        -3.137343	    -179.756514
	 D(1,4,7,6)       =        -1.124650	     -64.437697
	 D(1,4,7,10)      =         1.009422	      57.835626
	 D(2,4,7,5)       =        -1.038303	     -59.490393
	 D(2,4,7,6)       =         0.974390	      55.828424
	 D(2,4,7,10)      =         3.108462	     178.101747
	 D(3,4,7,5)       =         1.060758	      60.776949
	 D(3,4,7,6)       =         3.073451	     176.095766
	 D(3,4,7,10)      =        -1.075662	     -61.630911
	 D(4,7,10,8)      =         0.218009	      12.490968
	 D(4,7,10,9)      =         2.244843	     128.620056
	 D(4,7,10,14)     =        -1.915272	    -109.737010
	 D(5,7,10,8)      =        -1.905063	    -109.152059
	 D(5,7,10,9)      =         0.121772	       6.977029
	 D(5,7,10,14)     =         2.244842	     128.619963
	 D(6,7,10,8)      =         2.351289	     134.718923
	 D(6,7,10,9)      =        -1.905062	    -109.151990
	 D(6,7,10,14)     =         0.218008	      12.490944
	 D(7,10,14,11)    =         3.108475	     178.102523
	 D(7,10,14,12)    =         1.009437	      57.836486
	 D(7,10,14,13)    =        -1.075648	     -61.630080
	 D(8,10,14,11)    =         0.974403	      55.829159
	 D(8,10,14,12)    =        -1.124636	     -64.436878
	 D(8,10,14,13)    =         3.073465	     176.096556
	 D(9,10,14,11)    =        -1.038291	     -59.489717
	 D(9,10,14,12)    =        -3.137330	    -179.755755
	 D(9,10,14,13)    =         1.060771	      60.777679

	Current energy   :      -157.8391009561

	Energy change for the previous step:
		Projected    :        -0.0000015486
		Actual       :        -0.0000000001

	Performing BFGS update.
	Previous computed or guess Hessian on step 1.
	Steps to be used in Hessian update: 7 6
	Adding user-defined constraint: Fragment 1; Coordinate 49:
		Value =    -1.915272; Fixed value    =    -1.919860
		Force =    -0.003097; Force constant =     0.675000
	Removing off-diagonal coupling between coordinate 49 and others.
	Taking RFO optimization step.
	Going to follow RFO solution 1.
	Rejecting RFO root 1 because normalization gives large value.
	Using RFO vector 2.
	Norm of target step-size    0.00392
	Projected energy change by RFO approximation:        -0.0000005386

	Back-transformation to cartesian coordinates...
	Successfully converged to displaced geometry.

	--- Internal Coordinate Step in ANG or DEG, aJ/ANG or AJ/DEG ---
	 ---------------------------------------------------------------------------
	   Coordinate                Previous        Force       Change         New 
	   ----------                --------       ------       ------       ------
	    1 R(1,4)          =      1.094479     0.000032     0.000010     1.094489
	    2 R(2,4)          =      1.093817    -0.000035    -0.000006     1.093812
	    3 R(3,4)          =      1.093672    -0.000026    -0.000004     1.093668
	    4 R(4,7)          =      1.525819     0.000198     0.000058     1.525877
	    5 R(5,7)          =      1.095403     0.000102     0.000025     1.095428
	    6 R(6,7)          =      1.096134    -0.000024    -0.000005     1.096129
	    7 R(7,10)         =      1.540523    -0.000382    -0.000107     1.540416
	    8 R(8,10)         =      1.096134    -0.000026    -0.000005     1.096129
	    9 R(9,10)         =      1.095403     0.000104     0.000025     1.095428
	   10 R(10,14)        =      1.525820     0.000194     0.000056     1.525876
	   11 R(11,14)        =      1.093817    -0.000036    -0.000006     1.093812
	   12 R(12,14)        =      1.094478     0.000035     0.000011     1.094489
	   13 R(13,14)        =      1.093671    -0.000024    -0.000003     1.093668
	   14 B(1,4,2)        =    107.833864    -0.000000    -0.000696   107.833168
	   15 B(1,4,3)        =    107.720836    -0.000000    -0.000491   107.720345
	   16 B(1,4,7)        =    110.865037     0.000001     0.008272   110.873308
	   17 B(2,4,3)        =    107.941679     0.000000    -0.000100   107.941579
	   18 B(2,4,7)        =    111.658996    -0.000000    -0.001865   111.657131
	   19 B(3,4,7)        =    110.666115    -0.000001    -0.005172   110.660942
	   20 B(4,7,5)        =    108.745601    -0.000002    -0.000377   108.745224
	   21 B(4,7,6)        =    109.495871     0.000003     0.008838   109.504709
	   22 B(4,7,10)       =    112.756656     0.000000     0.001899   112.758555
	   23 B(5,7,6)        =    105.932125     0.000000     0.000942   105.933067
	   24 B(5,7,10)       =    110.102221    -0.000000    -0.007488   110.094733
	   25 B(6,7,10)       =    109.576547    -0.000001    -0.003772   109.572775
	   26 B(7,10,8)       =    109.576604    -0.000001    -0.003933   109.572671
	   27 B(7,10,9)       =    110.102191    -0.000000    -0.007345   110.094846
	   28 B(7,10,14)      =    112.756578     0.000000     0.001993   112.758571
	   29 B(8,10,9)       =    105.932169     0.000000     0.000907   105.933076
	   30 B(8,10,14)      =    109.495899     0.000003     0.008617   109.504516
	   31 B(9,10,14)      =    108.745588    -0.000002    -0.000205   108.745382
	   32 B(10,14,11)     =    111.658979    -0.000000    -0.001876   111.657104
	   33 B(10,14,12)     =    110.864870     0.000001     0.008475   110.873345
	   34 B(10,14,13)     =    110.666176    -0.000001    -0.005314   110.660862
	   35 B(11,14,12)     =    107.833897    -0.000000    -0.000706   107.833191
	   36 B(11,14,13)     =    107.941698     0.000000    -0.000094   107.941604
	   37 B(12,14,13)     =    107.720914    -0.000000    -0.000541   107.720373
	   38 D(1,4,7,5)      =   -179.756514    -0.000000    -0.056820  -179.813335
	   39 D(1,4,7,6)      =    -64.437697    -0.000000    -0.051108   -64.488805
	   40 D(1,4,7,10)     =     57.835626     0.000000    -0.048283    57.787343
	   41 D(2,4,7,5)      =    -59.490393    -0.000000    -0.053315   -59.543708
	   42 D(2,4,7,6)      =     55.828424    -0.000000    -0.047602    55.780822
	   43 D(2,4,7,10)     =    178.101747     0.000000    -0.044778   178.056969
	   44 D(3,4,7,5)      =     60.776949    -0.000000    -0.058204    60.718744
	   45 D(3,4,7,6)      =    176.095766    -0.000000    -0.052492   176.043275
	   46 D(3,4,7,10)     =    -61.630911     0.000000    -0.049667   -61.680578
	   47 D(4,7,10,8)     =     12.490968    -0.000001     0.007199    12.498167
	   48 D(4,7,10,9)     =    128.620056    -0.000001     0.001781   128.621837
	   49 D(4,7,10,14)    =   -109.737010    -0.000001    -0.002385  -109.739396
	   50 D(5,7,10,8)     =   -109.152059    -0.000000     0.011754  -109.140305
	   51 D(5,7,10,9)     =      6.977029    -0.000000     0.006336     6.983365
	   52 D(5,7,10,14)    =    128.619963    -0.000001     0.002169   128.622133
	   53 D(6,7,10,8)     =    134.718923     0.000000     0.017119   134.736041
	   54 D(6,7,10,9)     =   -109.151990    -0.000000     0.011701  -109.140289
	   55 D(6,7,10,14)    =     12.490944    -0.000001     0.007534    12.498478
	   56 D(7,10,14,11)   =    178.102523     0.000000    -0.046274   178.056249
	   57 D(7,10,14,12)   =     57.836486     0.000000    -0.049899    57.786587
	   58 D(7,10,14,13)   =    -61.630080     0.000000    -0.051260   -61.681340
	   59 D(8,10,14,11)   =     55.829159    -0.000000    -0.048797    55.780362
	   60 D(8,10,14,12)   =    -64.436878    -0.000000    -0.052421   -64.489299
	   61 D(8,10,14,13)   =    176.096556    -0.000000    -0.053783   176.042774
	   62 D(9,10,14,11)   =    -59.489717    -0.000000    -0.054444   -59.544162
	   63 D(9,10,14,12)   =   -179.755755    -0.000000    -0.058068  -179.813823
	   64 D(9,10,14,13)   =     60.777679    -0.000000    -0.059430    60.718250
	 ---------------------------------------------------------------------------
	 Forces used to impose fixed constraints are not included.
	  Forces zeroed: 49 

  ==> Convergence Check <==

  Measures of convergence in internal coordinates in au.
  Criteria marked as inactive (o), active & met (*), and active & unmet ( ).
  ---------------------------------------------------------------------------------------------
   Step     Total Energy     Delta E     MAX Force     RMS Force      MAX Disp      RMS Disp   
  ---------------------------------------------------------------------------------------------
    Convergence Criteria    1.00e-06 *    3.00e-04 *             o    1.20e-03 *             o
  ---------------------------------------------------------------------------------------------
      8    -157.83910096   -1.44e-10 *    4.63e-05 *    1.62e-05 o    1.04e-03 *    4.90e-04 o  ~
  ---------------------------------------------------------------------------------------------


  **** Optimization is complete! (in 8 steps) ****

  ==> Optimization Summary <==

  Measures of convergence in internal coordinates in au.
  --------------------------------------------------------------------------------------------------------------- ~
   Step         Total Energy             Delta E       MAX Force       RMS Force        MAX Disp        RMS Disp  ~
  --------------------------------------------------------------------------------------------------------------- ~
      1    -157.833058410818   -157.833058410818      0.01760657      0.00730775      0.02751212      0.01250748  ~
      2    -157.837187941358     -0.004129530540      0.00727410      0.00322810      0.02325761      0.01250841  ~
      3    -157.838686028998     -0.001498087640      0.00168476      0.00096521      0.03390943      0.01251290  ~
      4    -157.839063962272     -0.000377933275      0.00132561      0.00026497      0.02803665      0.01249940  ~
      5    -157.839103075447     -0.000039113175      0.00014340      0.00004651      0.00323830      0.00146497  ~
      6    -157.839102062725      0.000001012723      0.00007392      0.00001855      0.00225674      0.00105231  ~
      7    -157.839100955965      0.000001106759      0.00006332      0.00002129      0.00191410      0.00086753  ~
      8    -157.839100956110     -0.000000000144      0.00007809      0.00001888      0.00103724      0.00049031  ~
  --------------------------------------------------------------------------------------------------------------- ~

	Writing optimization data to binary file.
	Final energy is   -157.8391009561097
	Final (previous) structure:
	Cartesian Geometry (in Angstrom)
	    H    -2.0663822299   0.1903055361   0.0052679396
	    H    -1.9145328642   1.8387704861  -0.6169099652
	    H    -1.6024038452   0.4585723361  -1.6786097203
	    C    -1.4821226234   0.8349264210  -0.6588019005
	    H     0.5396533526   1.4955941903  -0.9384952012
	    H     0.0952499414   1.2829981608   0.7401686279
	    C    -0.0103835663   0.8384564834  -0.2561917698
	    H    -0.0646415966  -1.2693794883  -0.7664916141
	    H     1.5374382962  -0.5712830227  -0.8477738458
	    C     0.6122126736  -0.5706418065  -0.2613736198
	    H     1.3305857861  -2.0986283539   1.1191084504
	    H     0.0161891370  -1.1026567968   1.7578590399
	    H     1.6490920444  -0.4377819865   1.6384550864
	    C     0.9205856872  -1.0848111398   1.1417166868
	Saving final (previous) structure.
			--------------------------
			 OPTKING Finished Execution 
			--------------------------

    Final optimized geometry and variables:
    Molecular point group: c1
    Full point group: C1

    Geometry (in Angstrom), charge = 0, multiplicity = 1:

    H           -2.066382229914     0.190305536051     0.005267939553
    H           -1.914532864173     1.838770486147    -0.616909965233
    H           -1.602403845189     0.458572336098    -1.678609720341
    C           -1.482122623435     0.834926420982    -0.658801900463
    H            0.539653352560     1.495594190329    -0.938495201233
    H            0.095249941448     1.282998160752     0.740168627911
    C           -0.010383566261     0.838456483413    -0.256191769841
    H           -0.064641596553    -1.269379488307    -0.766491614113
    H            1.537438296201    -0.571283022673    -0.847773845791
    C            0.612212673604    -0.570641806504    -0.261373619847
    H            1.330585786123    -2.098628353927     1.119108450373
    H            0.016189137021    -1.102656796813     1.757859039904
    H            1.649092044369    -0.437781986468     1.638455086353
    C            0.920585687152    -1.084811139841     1.141716686842

	Cleaning optimization helper files.

*** Psi4 exiting successfully. Buy a developer a beer!
