    -----------------------------------------------------------------------
          Psi4: An Open-Source Ab Initio Electronic Structure Package
                              Psi4 1.0.0 Driver

                          Git: Rev {master} 6a9a71b 

    J. M. Turney, A. C. Simmonett, R. M. Parrish, E. G. Hohenstein,
    F. A. Evangelista, J. T. Fermann, B. J. Mintz, L. A. Burns, J. J. Wilke,
    M. L. Abrams, N. J. Russ, M. L. Leininger, C. L. Janssen, E. T. Seidl,
    W. D. Allen, H. F. Schaefer, R. A. King, E. F. Valeev, C. D. Sherrill,
    and T. D. Crawford, WIREs Comput. Mol. Sci. 2, 556-565 (2012)
    (doi: 10.1002/wcms.93)

                         Additional Contributions by
    A. E. DePrince, U. Bozkaya, A. Yu. Sokolov, D. G. A. Smith, R. Di Remigio,
    R. M. Richard, J. F. Gonthier, H. R. McAlexander, M. Saitow, and
    B. P. Pritchard
    -----------------------------------------------------------------------


    Psi4 started on: Thu Feb 16 16:22:31 2017

    Process ID:   1311
    PSI4DATADIR: /Users/sternc1/anaconda/share/psi4
    Memory level set to 256.000 MB

  ==> Input File <==

--------------------------------------------------------------------------

memory 1000 mb

molecule butane {
  symmetry C1
  0 1 
  H      1.604   0.760   -8.260
  H      1.745   2.388   -8.880
  H      2.043   1.024   -9.930
  C      2.142   1.395   -8.932
  H      4.169   2.051   -9.210
  H      3.731   1.788   -7.539
  C      3.631   1.416   -8.537
  H      4.720   -0.237   -7.703
  H      3.404   -0.710   -8.749
  C      4.203   -0.012   -8.612
  H      5.578   -1.104   -9.849
  H      5.980   0.585   -9.661
  H      4.664   0.112   -10.707
  C      5.180   -0.113   -9.797
  units Angstrom
}

dih_string = "4 7 10 14 110"
set optking fixed_dihedral = $dih_string

optimize('MP2/6-31G(d)')
--------------------------------------------------------------------------

  Memory set to 1000.000 MiB by Python script.
gradient() will perform analytic gradient computation.
    SCF Algorithm Type (re)set to DF.

*** tstart() called on lski1497
*** at Thu Feb 16 16:22:33 2017


         ---------------------------------------------------------
                                   SCF
            by Justin Turney, Rob Parrish, and Andy Simmonett
                              RHF Reference
                        1 Threads,   1000 MiB Core
         ---------------------------------------------------------

  ==> Geometry <==

    Molecular point group: c1
    Full point group: C1

    Geometry (in Angstrom), charge = 0, multiplicity = 1:

       Center              X                  Y                   Z               Mass       
    ------------   -----------------  -----------------  -----------------  -----------------
           H         -2.180627073704     0.089506467163     0.723260835528     1.007825032070
           H         -2.039627073704     1.717506467163     0.103260835528     1.007825032070
           H         -1.741627073704     0.353506467163    -0.946739164472     1.007825032070
           C         -1.642627073704     0.724506467163     0.051260835528    12.000000000000
           H          0.384372926296     1.380506467163    -0.226739164472     1.007825032070
           H         -0.053627073704     1.117506467163     1.444260835528     1.007825032070
           C         -0.153627073704     0.745506467163     0.446260835528    12.000000000000
           H          0.935372926296    -0.907493532837     1.280260835528     1.007825032070
           H         -0.380627073704    -1.380493532837     0.234260835528     1.007825032070
           C          0.418372926296    -0.682493532837     0.371260835528    12.000000000000
           H          1.793372926296    -1.774493532837    -0.865739164472     1.007825032070
           H          2.195372926296    -0.085493532837    -0.677739164472     1.007825032070
           H          0.879372926296    -0.558493532837    -1.723739164472     1.007825032070
           C          1.395372926296    -0.783493532837    -0.813739164472    12.000000000000

  Running in c1 symmetry.

  Rotational constants: A =      0.55072  B =      0.13659  C =      0.13336 [cm^-1]
  Rotational constants: A =  16510.03712  B =   4094.82218  C =   3997.93474 [MHz]
  Nuclear repulsion =  132.836472697519184

  Charge       = 0
  Multiplicity = 1
  Electrons    = 34
  Nalpha       = 17
  Nbeta        = 17

  ==> Algorithm <==

  SCF Algorithm Type is DF.
  DIIS enabled.
  MOM disabled.
  Fractional occupation disabled.
  Guess Type is SAD.
  Energy threshold   = 1.00e-10
  Density threshold  = 1.00e-10
  Integral threshold = 0.00e+00

  ==> Primary Basis <==

  Basis Set: 6-31G(D)
    Number of shells: 44
    Number of basis function: 80
    Number of Cartesian functions: 80
    Spherical Harmonics?: false
    Max angular momentum: 2

  ==> Pre-Iterations <==

   -------------------------------------------------------
    Irrep   Nso     Nmo     Nalpha   Nbeta   Ndocc  Nsocc
   -------------------------------------------------------
     A         80      80       0       0       0       0
   -------------------------------------------------------
    Total      80      80      17      17      17       0
   -------------------------------------------------------

  ==> Integral Setup <==

  ==> DFJK: Density-Fitted J/K Matrices <==

    J tasked:                  Yes
    K tasked:                  Yes
    wK tasked:                  No
    OpenMP threads:              1
    Integrals threads:           1
    Memory (MB):               715
    Algorithm:                Core
    Integral Cache:           NONE
    Schwarz Cutoff:          1E-12
    Fitting Condition:       1E-12

   => Auxiliary Basis Set <=

  Basis Set: 
    Number of shells: 186
    Number of basis function: 574
    Number of Cartesian functions: 574
    Spherical Harmonics?: false
    Max angular momentum: 3

  Minimum eigenvalue in the overlap matrix is 4.9599322608E-03.
  Using Symmetric Orthogonalization.
  SCF Guess: Superposition of Atomic Densities via on-the-fly atomic UHF.

  ==> Iterations <==

                           Total Energy        Delta E     RMS |[F,P]|

   @DF-RHF iter   0:  -158.98530100615335   -1.58985e+02   4.75213e-02 
   @DF-RHF iter   1:  -157.20043640151812    1.78486e+00   3.94640e-03 
   @DF-RHF iter   2:  -157.28007719542228   -7.96408e-02   1.08727e-03 DIIS
   @DF-RHF iter   3:  -157.28788085497774   -7.80366e-03   2.43165e-04 DIIS
   @DF-RHF iter   4:  -157.28821942300794   -3.38568e-04   7.58802e-05 DIIS
   @DF-RHF iter   5:  -157.28825246468324   -3.30417e-05   1.26409e-05 DIIS
   @DF-RHF iter   6:  -157.28825363064823   -1.16596e-06   2.15545e-06 DIIS
   @DF-RHF iter   7:  -157.28825365308586   -2.24376e-08   6.83718e-07 DIIS
   @DF-RHF iter   8:  -157.28825365527626   -2.19040e-09   9.99036e-08 DIIS
   @DF-RHF iter   9:  -157.28825365535943   -8.31619e-11   2.13518e-08 DIIS
   @DF-RHF iter  10:  -157.28825365536318   -3.75167e-12   4.15524e-09 DIIS
   @DF-RHF iter  11:  -157.28825365536346   -2.84217e-13   7.52968e-10 DIIS
   @DF-RHF iter  12:  -157.28825365536363   -1.70530e-13   2.43460e-10 DIIS
   @DF-RHF iter  13:  -157.28825365536346    1.70530e-13   6.22122e-11 DIIS

  ==> Post-Iterations <==

    Orbital Energies (a.u.)
    -----------------------

    Doubly Occupied:                                                      

       1A    -11.206271     2A    -11.205680     3A    -11.201150  
       4A    -11.201007     5A     -1.071786     6A     -0.979421  
       7A     -0.866254     8A     -0.792091     9A     -0.635934  
      10A     -0.610345    11A     -0.583010    12A     -0.550877  
      13A     -0.517859    14A     -0.509154    15A     -0.471994  
      16A     -0.461220    17A     -0.443295  

    Virtual:                                                              

      18A      0.234356    19A      0.274854    20A      0.287489  
      21A      0.296254    22A      0.317224    23A      0.326333  
      24A      0.339269    25A      0.350152    26A      0.351386  
      27A      0.366132    28A      0.411053    29A      0.449784  
      30A      0.453718    31A      0.714328    32A      0.728432  
      33A      0.731497    34A      0.783443    35A      0.790759  
      36A      0.813891    37A      0.841548    38A      0.936111  
      39A      0.941701    40A      0.999277    41A      1.056262  
      42A      1.108287    43A      1.174002    44A      1.177004  
      45A      1.195251    46A      1.209611    47A      1.210033  
      48A      1.228117    49A      1.245784    50A      1.258284  
      51A      1.264427    52A      1.285306    53A      1.285736  
      54A      1.448153    55A      1.688249    56A      1.736548  
      57A      1.802754    58A      1.902604    59A      2.048662  
      60A      2.064519    61A      2.190865    62A      2.251020  
      63A      2.266857    64A      2.309141    65A      2.384383  
      66A      2.464713    67A      2.504467    68A      2.637430  
      69A      2.653126    70A      2.672510    71A      2.732969  
      72A      2.766964    73A      2.792189    74A      2.897621  
      75A      3.003252    76A      3.085937    77A      4.574743  
      78A      4.665798    79A      4.834128    80A      4.966829  

    Final Occupation by Irrep:
              A 
    DOCC [    17 ]

  Energy converged.

  @DF-RHF Final Energy:  -157.28825365536346

   => Energetics <=

    Nuclear Repulsion Energy =            132.8364726975191843
    One-Electron Energy =                -473.6347591310329790
    Two-Electron Energy =                 183.5100327781503609
    DFT Exchange-Correlation Energy =       0.0000000000000000
    Empirical Dispersion Energy =           0.0000000000000000
    PCM Polarization Energy =               0.0000000000000000
    EFP Energy =                            0.0000000000000000
    Total Energy =                       -157.2882536553634338


  Saving occupied orbitals to File 180.

*** tstop() called on lski1497 at Thu Feb 16 16:22:40 2017
Module time:
	user time   =       5.49 seconds =       0.09 minutes
	system time =       0.20 seconds =       0.00 minutes
	total time  =          7 seconds =       0.12 minutes
Total time:
	user time   =       5.49 seconds =       0.09 minutes
	system time =       0.20 seconds =       0.00 minutes
	total time  =          7 seconds =       0.12 minutes


Properties will be evaluated at   0.000000,   0.000000,   0.000000 Bohr

Properties computed using the SCF density matrix

  Nuclear Dipole Moment: (a.u.)
     X:    -0.1952      Y:    -0.0449      Z:    -0.6144

  Electronic Dipole Moment: (a.u.)
     X:     0.2067      Y:     0.0469      Z:     0.6494

  Dipole Moment: (a.u.)
     X:     0.0115      Y:     0.0019      Z:     0.0350     Total:     0.0369

  Dipole Moment: (Debye)
     X:     0.0292      Y:     0.0049      Z:     0.0889     Total:     0.0937


  //>>>>>>>>>>>>>>>>>>>>>>>>>>>>>>>>>>>//
  //               DFMP2               //
  //<<<<<<<<<<<<<<<<<<<<<<<<<<<<<<<<<<<//


*** tstart() called on lski1497
*** at Thu Feb 16 16:22:40 2017


*** tstop() called on lski1497 at Thu Feb 16 16:22:40 2017
Module time:
	user time   =       0.48 seconds =       0.01 minutes
	system time =       0.00 seconds =       0.00 minutes
	total time  =          0 seconds =       0.00 minutes
Total time:
	user time   =       5.99 seconds =       0.10 minutes
	system time =       0.20 seconds =       0.00 minutes
	total time  =          7 seconds =       0.12 minutes
	 --------------------------------------------------------
	                          DF-MP2                         
	      2nd-Order Density-Fitted Moller-Plesset Theory     
	              RMP2 Wavefunction,   1 Threads             
	                                                         
	        Rob Parrish, Justin Turney, Andy Simmonett,      
	           Ed Hohenstein, and C. David Sherrill          
	 --------------------------------------------------------

   => Auxiliary Basis Set <=

  Basis Set: 
    Number of shells: 132
    Number of basis function: 364
    Number of Cartesian functions: 414
    Spherical Harmonics?: true
    Max angular momentum: 3

	 --------------------------------------------------------
	                 NBF =    80, NAUX =   364
	 --------------------------------------------------------
	   CLASS    FOCC     OCC    AOCC    AVIR     VIR    FVIR
	   PAIRS       0      17      17      63      63       0
	 --------------------------------------------------------

DGAS Warning! /src/lib/libfock/apps.cc:80 is not currently checking restricted

         ------------------------------------------------------------
                                     CPHF                           
                                  Rob Parrish                       
         ------------------------------------------------------------

  ==> Geometry <==

    Molecular point group: c1
    Full point group: C1

    Geometry (in Angstrom), charge = 0, multiplicity = 1:

       Center              X                  Y                   Z               Mass       
    ------------   -----------------  -----------------  -----------------  -----------------
           H         -2.180627073704     0.089506467163     0.723260835528     1.007825032070
           H         -2.039627073704     1.717506467163     0.103260835528     1.007825032070
           H         -1.741627073704     0.353506467163    -0.946739164472     1.007825032070
           C         -1.642627073704     0.724506467163     0.051260835528    12.000000000000
           H          0.384372926296     1.380506467163    -0.226739164472     1.007825032070
           H         -0.053627073704     1.117506467163     1.444260835528     1.007825032070
           C         -0.153627073704     0.745506467163     0.446260835528    12.000000000000
           H          0.935372926296    -0.907493532837     1.280260835528     1.007825032070
           H         -0.380627073704    -1.380493532837     0.234260835528     1.007825032070
           C          0.418372926296    -0.682493532837     0.371260835528    12.000000000000
           H          1.793372926296    -1.774493532837    -0.865739164472     1.007825032070
           H          2.195372926296    -0.085493532837    -0.677739164472     1.007825032070
           H          0.879372926296    -0.558493532837    -1.723739164472     1.007825032070
           C          1.395372926296    -0.783493532837    -0.813739164472    12.000000000000

  Nuclear repulsion =  132.836472697519184
  Reference energy  = -157.288253655363462

  ==> Basis Set <==

  Basis Set: 6-31G(D)
    Number of shells: 44
    Number of basis function: 80
    Number of Cartesian functions: 80
    Spherical Harmonics?: false
    Max angular momentum: 2

  ==> CGRSolver (by Rob Parrish) <==

   Number of roots    =         1
   Preconditioning    =    JACOBI
   Convergence cutoff =     1E-06
   Maximum iterations =       100

  ==> CPHFRHamiltonian (by Rob Parrish) <== 

  ==> DFJK: Density-Fitted J/K Matrices <==

    J tasked:                  Yes
    K tasked:                  Yes
    wK tasked:                  No
    OpenMP threads:              1
    Integrals threads:           1
    Memory (MB):               715
    Algorithm:                Core
    Integral Cache:           NONE
    Schwarz Cutoff:          1E-12
    Fitting Condition:       1E-12

   => Auxiliary Basis Set <=

  Basis Set: 
    Number of shells: 186
    Number of basis function: 574
    Number of Cartesian functions: 574
    Spherical Harmonics?: false
    Max angular momentum: 3

  ==> CPHF Iterations <==

  => Iterations <=

             Iter  Converged  Remaining    Residual
  CGR           1          0          1   7.366E-02
  CGR           2          0          1   8.833E-03
  CGR           3          0          1   2.599E-03
  CGR           4          0          1   4.285E-04
  CGR           5          0          1   8.237E-05
  CGR           6          0          1   1.920E-05
  CGR           7          0          1   3.442E-06
  CGR           8          1          0   6.140E-07

    CGRSolver converged.

  ==> DFCorrGrad: Density-Fitted Correlated Gradients <==

    OpenMP threads:              1
    Integrals threads:           1
    Memory (MB):               715
    Schwarz Cutoff:          0E+00
    Fitting Condition:       1E-12

   => Auxiliary Basis Set <=

  Basis Set: 
    Number of shells: 186
    Number of basis function: 510
    Number of Cartesian functions: 574
    Spherical Harmonics?: true
    Max angular momentum: 3

	-----------------------------------------------------------
	 ==================> DF-MP2 Energies <==================== 
	-----------------------------------------------------------
	 Reference Energy          =    -157.2882536553634623 [Eh]
	 Singles Energy            =      -0.0000000000000000 [Eh]
	 Same-Spin Energy          =      -0.1244417755716696 [Eh]
	 Opposite-Spin Energy      =      -0.4204214826832516 [Eh]
	 Correlation Energy        =      -0.5448632582549211 [Eh]
	 Total Energy              =    -157.8331169136183973 [Eh]
	-----------------------------------------------------------
	 ================> DF-SCS-MP2 Energies <================== 
	-----------------------------------------------------------
	 SCS Same-Spin Scale       =       0.3333333333333333 [-]
	 SCS Opposite-Spin Scale   =       1.2000000000000000 [-]
	 SCS Same-Spin Energy      =      -0.0414805918572232 [Eh]
	 SCS Opposite-Spin Energy  =      -0.5045057792199019 [Eh]
	 SCS Correlation Energy    =      -0.5459863710771251 [Eh]
	 SCS Total Energy          =    -157.8342400264405967 [Eh]
	-----------------------------------------------------------


  -Total Gradient:
     Atom            X                  Y                   Z
    ------   -----------------  -----------------  -----------------
       1        0.010357684665     0.009034215927    -0.009052348917
       2        0.010559874022    -0.013752770554     0.000936313373
       3        0.004090590538     0.005931103571     0.015776698023
       4       -0.027200080391    -0.008763123560    -0.008542299107
       5       -0.008877785705    -0.012873033694     0.007266198389
       6       -0.001789425027    -0.010250019000    -0.014506328017
       7        0.023323307602     0.026966353484     0.005040797369
       8       -0.007475001682     0.008014582443    -0.014202005636
       9        0.011278150594     0.013551255774    -0.001072779454
      10       -0.014739387206    -0.025128839521     0.020828583606
      11       -0.008970788994     0.015305871378     0.005040306442
      12       -0.012906666094    -0.009444959244    -0.000039041330
      13        0.006004621538    -0.003277786595     0.015367250287
      14        0.016344906142     0.004687149591    -0.022841345028


			-----------------------------------------
			 OPTKING 2.0: for geometry optimizations 
			  - R.A. King,  Bethel University        
			-----------------------------------------

	Previous internal coordinate definitions found.
	---Fragment 1 Geometry and Gradient---
	 H          -4.1207879673        0.1691427101        1.3667649018
	 H          -3.8543365825        3.2456168544        0.1951346994
	 H          -3.2911981949        0.6680304091       -1.7890777401
	 C          -3.1041153078        1.3691188044        0.0968689405
	 H           0.7263595636        2.6087791476       -0.4284749245
	 H          -0.1013404826        2.1117811747        2.7292574436
	 C          -0.2903130959        1.4088030532        0.8433107630
	 H           1.7675986628       -1.7149142444        2.4193423578
	 H          -0.7192809281       -2.6087547053        0.4426888228
	 C           0.7906102521       -1.2897258645        0.7015813030
	 H           3.3889836848       -3.3533068016       -1.6360099234
	 H           4.1486535903       -0.1615593632       -1.2807414104
	 H           1.6617739994       -1.0553998240       -3.2573949454
	 C           2.6368726839       -1.4805882039       -1.5377441645
	             0.0103576847        0.0090342159       -0.0090523489
	             0.0105598740       -0.0137527706        0.0009363134
	             0.0040905905        0.0059311036        0.0157766980
	            -0.0272000804       -0.0087631236       -0.0085422991
	            -0.0088777857       -0.0128730337        0.0072661984
	            -0.0017894250       -0.0102500190       -0.0145063280
	             0.0233233076        0.0269663535        0.0050407974
	            -0.0074750017        0.0080145824       -0.0142020056
	             0.0112781506        0.0135512558       -0.0010727795
	            -0.0147393872       -0.0251288395        0.0208285836
	            -0.0089707890        0.0153058714        0.0050403064
	            -0.0129066661       -0.0094449592       -0.0000390413
	             0.0060046215       -0.0032777866        0.0153672503
	             0.0163449061        0.0046871496       -0.0228413450

	Previous optimization step data not found.  Starting new optimization.

	---Fragment 1 Intrafragment Coordinates---
	 - Coordinate -           - BOHR/RAD -       - ANG/DEG -
	 R(1,4)           =         2.021436	       1.069698
	 R(2,4)           =         2.023298	       1.070683
	 R(3,4)           =         2.020723	       1.069320
	 R(4,7)           =         2.911397	       1.540645
	 R(5,7)           =         2.022623	       1.070326
	 R(6,7)           =         2.021555	       1.069761
	 R(7,10)          =         2.910419	       1.540128
	 R(8,10)          =         2.021384	       1.069671
	 R(9,10)          =         2.021542	       1.069754
	 R(10,14)         =         2.908555	       1.539141
	 R(11,14)         =         2.020495	       1.069200
	 R(12,14)         =         2.022713	       1.070374
	 R(13,14)         =         2.022078	       1.070038
	 B(1,4,2)         =         1.910870	     109.484805
	 B(1,4,3)         =         1.911121	     109.499161
	 B(1,4,7)         =         1.910399	     109.457783
	 B(2,4,3)         =         1.910042	     109.437340
	 B(2,4,7)         =         1.910564	     109.467262
	 B(3,4,7)         =         1.910803	     109.480971
	 B(4,7,5)         =         1.909937	     109.431343
	 B(4,7,6)         =         1.911630	     109.528316
	 B(4,7,10)        =         1.911154	     109.501062
	 B(5,7,6)         =         1.910605	     109.469614
	 B(5,7,10)        =         1.910047	     109.437654
	 B(6,7,10)        =         1.910425	     109.459295
	 B(7,10,8)        =         1.910444	     109.460375
	 B(7,10,9)        =         1.911152	     109.500917
	 B(7,10,14)       =         1.911434	     109.517096
	 B(8,10,9)        =         1.909834	     109.425439
	 B(8,10,14)       =         1.910981	     109.491145
	 B(9,10,14)       =         1.909954	     109.432317
	 B(10,14,11)      =         1.911927	     109.545355
	 B(10,14,12)      =         1.911142	     109.500363
	 B(10,14,13)      =         1.912252	     109.563987
	 B(11,14,12)      =         1.909622	     109.413283
	 B(11,14,13)      =         1.910319	     109.453239
	 B(12,14,13)      =         1.908532	     109.350812
	 D(1,4,7,5)       =         3.140997	     179.965873
	 D(1,4,7,6)       =        -1.047644	     -60.025575
	 D(1,4,7,10)      =         1.047427	      60.013132
	 D(2,4,7,5)       =        -1.047689	     -60.028143
	 D(2,4,7,6)       =         1.046856	      59.980409
	 D(2,4,7,10)      =        -3.141259	    -179.980883
	 D(3,4,7,5)       =         1.046044	      59.933911
	 D(3,4,7,6)       =         3.140588	     179.942463
	 D(3,4,7,10)      =        -1.047526	     -60.018830
	 D(4,7,10,8)      =        -2.268367	    -129.967857
	 D(4,7,10,9)      =        -0.174749	     -10.012389
	 D(4,7,10,14)     =         1.919623	     109.986272
	 D(5,7,10,8)      =         1.921315	     110.083268
	 D(5,7,10,9)      =        -2.268252	    -129.961265
	 D(5,7,10,14)     =        -0.173880	      -9.962604
	 D(6,7,10,8)      =        -0.172559	      -9.886931
	 D(6,7,10,9)      =         1.921058	     110.068536
	 D(6,7,10,14)     =        -2.267755	    -129.932803
	 D(7,10,14,11)    =         3.140782	     179.953559
	 D(7,10,14,12)    =         1.046521	      59.961226
	 D(7,10,14,13)    =        -1.046603	     -59.965961
	 D(8,10,14,11)    =         1.045915	      59.926507
	 D(8,10,14,12)    =        -1.048346	     -60.065826
	 D(8,10,14,13)    =        -3.141471	    -179.993013
	 D(9,10,14,11)    =        -1.047299	     -60.005815
	 D(9,10,14,12)    =        -3.141560	    -179.998148
	 D(9,10,14,13)    =         1.048501	      60.074665

	Current energy   :      -157.8331169136

	Generating empirical Hessian (Schlegel '84) for each fragment.
	Adding user-defined constraint: Fragment 1; Coordinate 49:
		Value =     1.919623; Fixed value    =     1.919860
		Force =     0.000119; Force constant =     0.500000
	Removing off-diagonal coupling between coordinate 49 and others.
	Taking RFO optimization step.
	Going to follow RFO solution 1.
	Using RFO vector 1.

	Determining step-restricting scale parameter for RS-RFO.
	Maximum step size allowed    0.10000

	 Iter      |step|        alpha        rfo_root  
	------------------------------------------------
	    0     0.23724       1.00000           1
	    1     0.17819       5.56241           1
	    2     0.13569      16.95573           1
	    3     0.11137      33.17248           1
	    4     0.10171      43.96532           1
	    5     0.10005      46.20795           1
	    6     0.10000      46.27558           1
	------------------------------------------------
	Norm of target step-size    0.10000
	Projected energy change by RFO approximation:        -0.0054960812

	Back-transformation to cartesian coordinates...
	Successfully converged to displaced geometry.

	--- Internal Coordinate Step in ANG or DEG, aJ/ANG or AJ/DEG ---
	 ---------------------------------------------------------------------------
	   Coordinate                Previous        Force       Change         New 
	   ----------                --------       ------       ------       ------
	    1 R(1,4)          =      1.069698     0.133954     0.013504     1.083201
	    2 R(2,4)          =      1.070683     0.136969     0.013835     1.084518
	    3 R(3,4)          =      1.069320     0.141384     0.014242     1.083562
	    4 R(4,7)          =      1.540645    -0.020164    -0.002359     1.538286
	    5 R(5,7)          =      1.070326     0.137328     0.013861     1.084187
	    6 R(6,7)          =      1.069761     0.142240     0.014341     1.084102
	    7 R(7,10)         =      1.540128     0.061574     0.007197     1.547324
	    8 R(8,10)         =      1.069671     0.143086     0.014423     1.084094
	    9 R(9,10)         =      1.069754     0.141115     0.014227     1.083981
	   10 R(10,14)        =      1.539141    -0.014224    -0.001660     1.537481
	   11 R(11,14)        =      1.069200     0.146409     0.014745     1.083945
	   12 R(12,14)        =      1.070374     0.130259     0.013149     1.083523
	   13 R(13,14)        =      1.070038     0.137205     0.013841     1.083879
	   14 B(1,4,2)        =    109.484805    -0.000289    -0.503405   108.981400
	   15 B(1,4,3)        =    109.499161    -0.000193    -0.362163   109.136998
	   16 B(1,4,7)        =    109.457783     0.000150     0.257927   109.715710
	   17 B(2,4,3)        =    109.437340    -0.000291    -0.515124   108.922216
	   18 B(2,4,7)        =    109.467262     0.000481     0.865943   110.333205
	   19 B(3,4,7)        =    109.480971     0.000142     0.245536   109.726508
	   20 B(4,7,5)        =    109.431343    -0.000209    -0.325676   109.105667
	   21 B(4,7,6)        =    109.528316    -0.000256    -0.429126   109.099190
	   22 B(4,7,10)       =    109.501062     0.000712     1.168911   110.669973
	   23 B(5,7,6)        =    109.469614    -0.000054    -0.280642   109.188971
	   24 B(5,7,10)       =    109.437654    -0.000152    -0.185826   109.251828
	   25 B(6,7,10)       =    109.459295    -0.000040     0.043445   109.502740
	   26 B(7,10,8)       =    109.460375    -0.000042     0.038343   109.498718
	   27 B(7,10,9)       =    109.500917    -0.000160    -0.203147   109.297770
	   28 B(7,10,14)      =    109.517096     0.000715     1.173957   110.691053
	   29 B(8,10,9)       =    109.425439    -0.000052    -0.275433   109.150006
	   30 B(8,10,14)      =    109.491145    -0.000254    -0.422628   109.068517
	   31 B(9,10,14)      =    109.432317    -0.000208    -0.321020   109.111296
	   32 B(10,14,11)     =    109.545355     0.000472     0.849534   110.394890
	   33 B(10,14,12)     =    109.500363     0.000141     0.243010   109.743373
	   34 B(10,14,13)     =    109.563987     0.000130     0.223614   109.787601
	   35 B(11,14,12)     =    109.413283    -0.000279    -0.485108   108.928175
	   36 B(11,14,13)     =    109.453239    -0.000288    -0.511181   108.942058
	   37 B(12,14,13)     =    109.350812    -0.000179    -0.334029   109.016783
	   38 D(1,4,7,5)      =    179.965873     0.000032     0.323667   180.289540
	   39 D(1,4,7,6)      =    -60.025575    -0.000049    -0.472267   -60.497842
	   40 D(1,4,7,10)     =     60.013132     0.000004     0.035833    60.048966
	   41 D(2,4,7,5)      =    -60.028143     0.000039     0.402046   -59.626097
	   42 D(2,4,7,6)      =     59.980409    -0.000041    -0.393888    59.586521
	   43 D(2,4,7,10)     =   -179.980883     0.000012     0.114212  -179.866671
	   44 D(3,4,7,5)      =     59.933911     0.000045     0.457955    60.391865
	   45 D(3,4,7,6)      =    179.942463    -0.000036    -0.337979   179.604484
	   46 D(3,4,7,10)     =    -60.018830     0.000017     0.170121   -59.848709
	   47 D(4,7,10,8)     =   -129.967857     0.000015     0.151464  -129.816393
	   48 D(4,7,10,9)     =    -10.012389    -0.000028    -0.285553   -10.297943
	   49 D(4,7,10,14)    =    109.986272    -0.000009    -0.081474   109.904797
	   50 D(5,7,10,8)     =    110.083268    -0.000005    -0.052875   110.030393
	   51 D(5,7,10,9)     =   -129.961265    -0.000048    -0.489892  -130.451157
	   52 D(5,7,10,14)    =     -9.962604    -0.000028    -0.285813   -10.248417
	   53 D(6,7,10,8)     =     -9.886931     0.000037     0.376711    -9.510220
	   54 D(6,7,10,9)     =    110.068536    -0.000006    -0.060306   110.008230
	   55 D(6,7,10,14)    =   -129.932803     0.000014     0.143773  -129.789030
	   56 D(7,10,14,11)   =    179.953559     0.000013     0.125856   180.079415
	   57 D(7,10,14,12)   =     59.961226     0.000005     0.043308    60.004534
	   58 D(7,10,14,13)   =    -59.965961     0.000017     0.165683   -59.800279
	   59 D(8,10,14,11)   =     59.926507    -0.000040    -0.382379    59.544129
	   60 D(8,10,14,12)   =    -60.065826    -0.000048    -0.464927   -60.530753
	   61 D(8,10,14,13)   =   -179.993013    -0.000036    -0.342552  -180.335565
	   62 D(9,10,14,11)   =    -60.005815     0.000039     0.399310   -59.606504
	   63 D(9,10,14,12)   =   -179.998148     0.000031     0.316762  -179.681386
	   64 D(9,10,14,13)   =     60.074665     0.000043     0.439137    60.513802
	 ---------------------------------------------------------------------------
	 Forces used to impose fixed constraints are not included.
	  Forces zeroed: 49 

  ==> Convergence Check <==

  Measures of convergence in internal coordinates in au.
  Criteria marked as inactive (o), active & met (*), and active & unmet ( ).
  --------------------------------------------------------------------------------------------- ~
   Step     Total Energy     Delta E     MAX Force     RMS Force      MAX Disp      RMS Disp    ~
  --------------------------------------------------------------------------------------------- ~
    Convergence Criteria    1.00e-06 *    3.00e-04 *             o    1.20e-03 *             o  ~
  --------------------------------------------------------------------------------------------- ~
      1    -157.83311691   -1.58e+02      1.78e-02      7.27e-03 o    2.79e-02      1.25e-02 o  ~
  ---------------------------------------------------------------------------------------------

	Writing optimization data to binary file.
	Structure for next step:
	Cartesian Geometry (in Angstrom)
	    H    -2.2044247023   0.0617829166   0.7346135144
	    H    -2.0846096270   1.7131048969   0.1242977373
	    H    -1.7699750250   0.3510807429  -0.9519649809
	    C    -1.6624730354   0.7160221197   0.0626130502
	    H     0.3576165145   1.4018452697  -0.2245191014
	    H    -0.0778061117   1.1137009683   1.4639032372
	    C    -0.1741081170   0.7407598531   0.4505340940
	    H     0.9659587225  -0.9022011522   1.2813251378
	    H    -0.3573959538  -1.4022485354   0.2230479304
	    C     0.4370624716  -0.6779845100   0.3619473874
	    H     1.8420344585  -1.7700523451  -0.8765071685
	    H     2.2200668030  -0.0577529278  -0.6866627465
	    H     0.8993375884  -0.5577378628  -1.7448938528
	    C     1.4179369820  -0.7742288938  -0.8180825412
			--------------------------
			 OPTKING Finished Execution 
			--------------------------

    Structure for next step:
    Molecular point group: c1
    Full point group: C1

    Geometry (in Angstrom), charge = 0, multiplicity = 1:

    H           -2.204600074363     0.061680202482     0.734240918351
    H           -2.084784999145     1.713002182696     0.123925141260
    H           -1.770150397129     0.350978028703    -0.952337576964
    C           -1.662648407512     0.715919405593     0.062240454121
    H            0.357441142359     1.401742555577    -0.224891697495
    H           -0.077981483768     1.113598254175     1.463530641147
    C           -0.174283489059     0.740657138952     0.450161497994
    H            0.965783350379    -0.902303866337     1.280952541783
    H           -0.357571325921    -1.402351249523     0.222675334350
    C            0.436887099456    -0.678087224142     0.361574791333
    H            1.841859086353    -1.770155059300    -0.876879764589
    H            2.219891430868    -0.057855641913    -0.687035342536
    H            0.899162216337    -0.557840576935    -1.745266448902
    C            1.417761609848    -0.774331607909    -0.818455137220

gradient() will perform analytic gradient computation.
    SCF Algorithm Type (re)set to DF.

*** tstart() called on lski1497
*** at Thu Feb 16 16:23:02 2017


         ---------------------------------------------------------
                                   SCF
            by Justin Turney, Rob Parrish, and Andy Simmonett
                              RHF Reference
                        1 Threads,   1000 MiB Core
         ---------------------------------------------------------

  ==> Geometry <==

    Molecular point group: c1
    Full point group: C1

    Geometry (in Angstrom), charge = 0, multiplicity = 1:

       Center              X                  Y                   Z               Mass       
    ------------   -----------------  -----------------  -----------------  -----------------
           H         -2.204600074363     0.061680202482     0.734240918351     1.007825032070
           H         -2.084784999145     1.713002182696     0.123925141260     1.007825032070
           H         -1.770150397129     0.350978028703    -0.952337576964     1.007825032070
           C         -1.662648407512     0.715919405593     0.062240454121    12.000000000000
           H          0.357441142359     1.401742555577    -0.224891697495     1.007825032070
           H         -0.077981483768     1.113598254175     1.463530641147     1.007825032070
           C         -0.174283489059     0.740657138952     0.450161497994    12.000000000000
           H          0.965783350379    -0.902303866337     1.280952541783     1.007825032070
           H         -0.357571325921    -1.402351249523     0.222675334350     1.007825032070
           C          0.436887099456    -0.678087224142     0.361574791333    12.000000000000
           H          1.841859086353    -1.770155059300    -0.876879764589     1.007825032070
           H          2.219891430868    -0.057855641913    -0.687035342536     1.007825032070
           H          0.899162216337    -0.557840576935    -1.745266448902     1.007825032070
           C          1.417761609848    -0.774331607909    -0.818455137220    12.000000000000

  Running in c1 symmetry.

  Rotational constants: A =      0.55200  B =      0.13399  C =      0.13079 [cm^-1]
  Rotational constants: A =  16548.65694  B =   4016.89469  C =   3921.08306 [MHz]
  Nuclear repulsion =  131.856208322105033

  Charge       = 0
  Multiplicity = 1
  Electrons    = 34
  Nalpha       = 17
  Nbeta        = 17

  ==> Algorithm <==

  SCF Algorithm Type is DF.
  DIIS enabled.
  MOM disabled.
  Fractional occupation disabled.
  Guess Type is READ.
  Energy threshold   = 1.00e-10
  Density threshold  = 1.00e-10
  Integral threshold = 0.00e+00

  ==> Primary Basis <==

  Basis Set: 6-31G(D)
    Number of shells: 44
    Number of basis function: 80
    Number of Cartesian functions: 80
    Spherical Harmonics?: false
    Max angular momentum: 2

  ==> Pre-Iterations <==

   -------------------------------------------------------
    Irrep   Nso     Nmo     Nalpha   Nbeta   Ndocc  Nsocc
   -------------------------------------------------------
     A         80      80       0       0       0       0
   -------------------------------------------------------
    Total      80      80      17      17      17       0
   -------------------------------------------------------

  ==> Integral Setup <==

  ==> DFJK: Density-Fitted J/K Matrices <==

    J tasked:                  Yes
    K tasked:                  Yes
    wK tasked:                  No
    OpenMP threads:              1
    Integrals threads:           1
    Memory (MB):               715
    Algorithm:                Core
    Integral Cache:           NONE
    Schwarz Cutoff:          1E-12
    Fitting Condition:       1E-12

   => Auxiliary Basis Set <=

  Basis Set: 
    Number of shells: 186
    Number of basis function: 574
    Number of Cartesian functions: 574
    Spherical Harmonics?: false
    Max angular momentum: 3

  Minimum eigenvalue in the overlap matrix is 5.1017596875E-03.
  Using Symmetric Orthogonalization.
  SCF Guess was Projection but file not found.
  Switching over to SAD guess.

  SCF Guess: Superposition of Atomic Densities via on-the-fly atomic UHF.

  ==> Iterations <==

                           Total Energy        Delta E     RMS |[F,P]|

   @DF-RHF iter   0:  -158.87789027273607   -1.58878e+02   4.65430e-02 
   @DF-RHF iter   1:  -157.20194180314087    1.67595e+00   3.93123e-03 
   @DF-RHF iter   2:  -157.28272335493187   -8.07816e-02   1.10351e-03 DIIS
   @DF-RHF iter   3:  -157.29080548207781   -8.08213e-03   2.58057e-04 DIIS
   @DF-RHF iter   4:  -157.29118305537099   -3.77573e-04   7.72786e-05 DIIS
   @DF-RHF iter   5:  -157.29121951295048   -3.64576e-05   1.24427e-05 DIIS
   @DF-RHF iter   6:  -157.29122069459982   -1.18165e-06   1.55838e-06 DIIS
   @DF-RHF iter   7:  -157.29122071150772   -1.69079e-08   3.95759e-07 DIIS
   @DF-RHF iter   8:  -157.29122071224128   -7.33564e-10   1.11253e-07 DIIS
   @DF-RHF iter   9:  -157.29122071231944   -7.81597e-11   2.50130e-08 DIIS
   @DF-RHF iter  10:  -157.29122071232456   -5.11591e-12   5.06831e-09 DIIS
   @DF-RHF iter  11:  -157.29122071232456    0.00000e+00   8.47189e-10 DIIS
   @DF-RHF iter  12:  -157.29122071232450    5.68434e-14   2.27631e-10 DIIS
   @DF-RHF iter  13:  -157.29122071232456   -5.68434e-14   6.99761e-11 DIIS

  ==> Post-Iterations <==

    Orbital Energies (a.u.)
    -----------------------

    Doubly Occupied:                                                      

       1A    -11.211852     2A    -11.211297     3A    -11.206814  
       4A    -11.206750     5A     -1.068000     6A     -0.977323  
       7A     -0.862182     8A     -0.786859     9A     -0.631488  
      10A     -0.607188    11A     -0.579533    12A     -0.548344  
      13A     -0.514334    14A     -0.506505    15A     -0.468346  
      16A     -0.458748    17A     -0.446912  

    Virtual:                                                              

      18A      0.232040    19A      0.272414    20A      0.284017  
      21A      0.292669    22A      0.314755    23A      0.323257  
      24A      0.335272    25A      0.346071    26A      0.347691  
      27A      0.361209    28A      0.407762    29A      0.450029  
      30A      0.453954    31A      0.715863    32A      0.728376  
      33A      0.732060    34A      0.783483    35A      0.791352  
      36A      0.815738    37A      0.847152    38A      0.932281  
      39A      0.941711    40A      0.994923    41A      1.060449  
      42A      1.108201    43A      1.161255    44A      1.164471  
      45A      1.179716    46A      1.196298    47A      1.196409  
      48A      1.216796    49A      1.239228    50A      1.245274  
      51A      1.253514    52A      1.268884    53A      1.269819  
      54A      1.442897    55A      1.692482    56A      1.738071  
      57A      1.795559    58A      1.894714    59A      2.028968  
      60A      2.056523    61A      2.188851    62A      2.241289  
      63A      2.267600    64A      2.308407    65A      2.367840  
      66A      2.451138    67A      2.484719    68A      2.617408  
      69A      2.635408    70A      2.653876    71A      2.719662  
      72A      2.750355    73A      2.780897    74A      2.890951  
      75A      3.000637    76A      3.074628    77A      4.561228  
      78A      4.656541    79A      4.827465    80A      4.959347  

    Final Occupation by Irrep:
              A 
    DOCC [    17 ]

  Energy converged.

  @DF-RHF Final Energy:  -157.29122071232456

   => Energetics <=

    Nuclear Repulsion Energy =            131.8562083221050329
    One-Electron Energy =                -471.7099136104362174
    Two-Electron Energy =                 182.5624845760064545
    DFT Exchange-Correlation Energy =       0.0000000000000000
    Empirical Dispersion Energy =           0.0000000000000000
    PCM Polarization Energy =               0.0000000000000000
    EFP Energy =                            0.0000000000000000
    Total Energy =                       -157.2912207123247299


  Saving occupied orbitals to File 180.

*** tstop() called on lski1497 at Thu Feb 16 16:23:08 2017
Module time:
	user time   =       5.58 seconds =       0.09 minutes
	system time =       0.16 seconds =       0.00 minutes
	total time  =          6 seconds =       0.10 minutes
Total time:
	user time   =      29.77 seconds =       0.50 minutes
	system time =       0.90 seconds =       0.02 minutes
	total time  =         35 seconds =       0.58 minutes


Properties will be evaluated at   0.000000,   0.000000,   0.000000 Bohr

Properties computed using the SCF density matrix

  Nuclear Dipole Moment: (a.u.)
     X:    -0.1978      Y:    -0.0464      Z:    -0.6197

  Electronic Dipole Moment: (a.u.)
     X:     0.2083      Y:     0.0487      Z:     0.6520

  Dipole Moment: (a.u.)
     X:     0.0105      Y:     0.0022      Z:     0.0322     Total:     0.0340

  Dipole Moment: (Debye)
     X:     0.0267      Y:     0.0057      Z:     0.0820     Total:     0.0864


  //>>>>>>>>>>>>>>>>>>>>>>>>>>>>>>>>>>>//
  //               DFMP2               //
  //<<<<<<<<<<<<<<<<<<<<<<<<<<<<<<<<<<<//


*** tstart() called on lski1497
*** at Thu Feb 16 16:23:08 2017


*** tstop() called on lski1497 at Thu Feb 16 16:23:09 2017
Module time:
	user time   =       0.54 seconds =       0.01 minutes
	system time =       0.01 seconds =       0.00 minutes
	total time  =          1 seconds =       0.02 minutes
Total time:
	user time   =      30.33 seconds =       0.51 minutes
	system time =       0.91 seconds =       0.02 minutes
	total time  =         36 seconds =       0.60 minutes
	 --------------------------------------------------------
	                          DF-MP2                         
	      2nd-Order Density-Fitted Moller-Plesset Theory     
	              RMP2 Wavefunction,   1 Threads             
	                                                         
	        Rob Parrish, Justin Turney, Andy Simmonett,      
	           Ed Hohenstein, and C. David Sherrill          
	 --------------------------------------------------------

   => Auxiliary Basis Set <=

  Basis Set: 
    Number of shells: 132
    Number of basis function: 364
    Number of Cartesian functions: 414
    Spherical Harmonics?: true
    Max angular momentum: 3

	 --------------------------------------------------------
	                 NBF =    80, NAUX =   364
	 --------------------------------------------------------
	   CLASS    FOCC     OCC    AOCC    AVIR     VIR    FVIR
	   PAIRS       0      17      17      63      63       0
	 --------------------------------------------------------

DGAS Warning! /src/lib/libfock/apps.cc:80 is not currently checking restricted

         ------------------------------------------------------------
                                     CPHF                           
                                  Rob Parrish                       
         ------------------------------------------------------------

  ==> Geometry <==

    Molecular point group: c1
    Full point group: C1

    Geometry (in Angstrom), charge = 0, multiplicity = 1:

       Center              X                  Y                   Z               Mass       
    ------------   -----------------  -----------------  -----------------  -----------------
           H         -2.204600074363     0.061680202482     0.734240918351     1.007825032070
           H         -2.084784999145     1.713002182696     0.123925141260     1.007825032070
           H         -1.770150397129     0.350978028703    -0.952337576964     1.007825032070
           C         -1.662648407512     0.715919405593     0.062240454121    12.000000000000
           H          0.357441142359     1.401742555577    -0.224891697495     1.007825032070
           H         -0.077981483768     1.113598254175     1.463530641147     1.007825032070
           C         -0.174283489059     0.740657138952     0.450161497994    12.000000000000
           H          0.965783350379    -0.902303866337     1.280952541783     1.007825032070
           H         -0.357571325921    -1.402351249523     0.222675334350     1.007825032070
           C          0.436887099456    -0.678087224142     0.361574791333    12.000000000000
           H          1.841859086353    -1.770155059300    -0.876879764589     1.007825032070
           H          2.219891430868    -0.057855641913    -0.687035342536     1.007825032070
           H          0.899162216337    -0.557840576935    -1.745266448902     1.007825032070
           C          1.417761609848    -0.774331607909    -0.818455137220    12.000000000000

  Nuclear repulsion =  131.856208322105033
  Reference energy  = -157.291220712324559

  ==> Basis Set <==

  Basis Set: 6-31G(D)
    Number of shells: 44
    Number of basis function: 80
    Number of Cartesian functions: 80
    Spherical Harmonics?: false
    Max angular momentum: 2

  ==> CGRSolver (by Rob Parrish) <==

   Number of roots    =         1
   Preconditioning    =    JACOBI
   Convergence cutoff =     1E-06
   Maximum iterations =       100

  ==> CPHFRHamiltonian (by Rob Parrish) <== 

  ==> DFJK: Density-Fitted J/K Matrices <==

    J tasked:                  Yes
    K tasked:                  Yes
    wK tasked:                  No
    OpenMP threads:              1
    Integrals threads:           1
    Memory (MB):               715
    Algorithm:                Core
    Integral Cache:           NONE
    Schwarz Cutoff:          1E-12
    Fitting Condition:       1E-12

   => Auxiliary Basis Set <=

  Basis Set: 
    Number of shells: 186
    Number of basis function: 574
    Number of Cartesian functions: 574
    Spherical Harmonics?: false
    Max angular momentum: 3

  ==> CPHF Iterations <==

  => Iterations <=

             Iter  Converged  Remaining    Residual
  CGR           1          0          1   7.399E-02
  CGR           2          0          1   8.932E-03
  CGR           3          0          1   2.623E-03
  CGR           4          0          1   4.297E-04
  CGR           5          0          1   8.333E-05
  CGR           6          0          1   1.928E-05
  CGR           7          0          1   3.387E-06
  CGR           8          1          0   6.133E-07

    CGRSolver converged.

  ==> DFCorrGrad: Density-Fitted Correlated Gradients <==

    OpenMP threads:              1
    Integrals threads:           1
    Memory (MB):               715
    Schwarz Cutoff:          0E+00
    Fitting Condition:       1E-12

   => Auxiliary Basis Set <=

  Basis Set: 
    Number of shells: 186
    Number of basis function: 510
    Number of Cartesian functions: 574
    Spherical Harmonics?: true
    Max angular momentum: 3

	-----------------------------------------------------------
	 ==================> DF-MP2 Energies <==================== 
	-----------------------------------------------------------
	 Reference Energy          =    -157.2912207123245594 [Eh]
	 Singles Energy            =      -0.0000000000000000 [Eh]
	 Same-Spin Energy          =      -0.1242986227658373 [Eh]
	 Opposite-Spin Energy      =      -0.4216992289453783 [Eh]
	 Correlation Energy        =      -0.5459978517112156 [Eh]
	 Total Energy              =    -157.8372185640357657 [Eh]
	-----------------------------------------------------------
	 ================> DF-SCS-MP2 Energies <================== 
	-----------------------------------------------------------
	 SCS Same-Spin Scale       =       0.3333333333333333 [-]
	 SCS Opposite-Spin Scale   =       1.2000000000000000 [-]
	 SCS Same-Spin Energy      =      -0.0414328742552791 [Eh]
	 SCS Opposite-Spin Energy  =      -0.5060390747344539 [Eh]
	 SCS Correlation Energy    =      -0.5474719489897329 [Eh]
	 SCS Total Energy          =    -157.8386926613142975 [Eh]
	-----------------------------------------------------------


  -Total Gradient:
     Atom            X                  Y                   Z
    ------   -----------------  -----------------  -----------------
       1        0.005078806492     0.003601341385    -0.002967808079
       2        0.005090767844    -0.004784169758     0.000767236747
       3        0.002866965607     0.002501759382     0.006133356816
       4       -0.016082474559    -0.005350343931    -0.004415214582
       5       -0.004295433207    -0.006913662079     0.000951631413
       6       -0.001569846166    -0.005978624272    -0.004898484614
       7        0.013801298282     0.018012436425     0.002802041912
       8       -0.001846685902     0.005140545923    -0.005711927508
       9        0.003902428040     0.006813605239    -0.002652393021
      10       -0.008743707577    -0.016796432413     0.012421515926
      11       -0.003961901428     0.005476669482     0.002923607096
      12       -0.005543939856    -0.003626094118     0.000978008021
      13        0.001373216822    -0.001343944239     0.006726849521
      14        0.009930505610     0.003246912975    -0.013058419649


			-----------------------------------------
			 OPTKING 2.0: for geometry optimizations 
			  - R.A. King,  Bethel University        
			-----------------------------------------

	Previous internal coordinate definitions found.
	---Fragment 1 Geometry and Gradient---
	 H          -4.1660903731        0.1165586905        1.3875142512
	 H          -3.9396726943        3.2371049903        0.2341845780
	 H          -3.3450994646        0.6632523529       -1.7996572065
	 C          -3.1419501455        1.3528916098        0.1176174127
	 H           0.6754658677        2.6489095389       -0.4249837178
	 H          -0.1473636478        2.1043957225        2.7656720989
	 C          -0.3293480638        1.3996391510        0.8506819468
	 H           1.8250660359       -1.7051071960        2.4206494932
	 H          -0.6757118790       -2.6500598037        0.4207953985
	 C           0.8255969690       -1.2813991478        0.6832773322
	 H           3.4806092486       -3.3451082748       -1.6570626065
	 H           4.1949868491       -0.1093313185       -1.2983086410
	 H           1.6991703379       -1.0541659162       -3.2980756173
	 C           2.6791811643       -1.4632746750       -1.5466560614
	             0.0050788065        0.0036013414       -0.0029678081
	             0.0050907678       -0.0047841698        0.0007672367
	             0.0028669656        0.0025017594        0.0061333568
	            -0.0160824746       -0.0053503439       -0.0044152146
	            -0.0042954332       -0.0069136621        0.0009516314
	            -0.0015698462       -0.0059786243       -0.0048984846
	             0.0138012983        0.0180124364        0.0028020419
	            -0.0018466859        0.0051405459       -0.0057119275
	             0.0039024280        0.0068136052       -0.0026523930
	            -0.0087437076       -0.0167964324        0.0124215159
	            -0.0039619014        0.0054766695        0.0029236071
	            -0.0055439399       -0.0036260941        0.0009780080
	             0.0013732168       -0.0013439442        0.0067268495
	             0.0099305056        0.0032469130       -0.0130584196

	---Fragment 1 Intrafragment Coordinates---
	 - Coordinate -           - BOHR/RAD -       - ANG/DEG -
	 R(1,4)           =         2.046954	       1.083201
	 R(2,4)           =         2.049441	       1.084518
	 R(3,4)           =         2.047636	       1.083562
	 R(4,7)           =         2.906940	       1.538286
	 R(5,7)           =         2.048817	       1.084187
	 R(6,7)           =         2.048655	       1.084102
	 R(7,10)          =         2.924019	       1.547324
	 R(8,10)          =         2.048641	       1.084094
	 R(9,10)          =         2.048428	       1.083981
	 R(10,14)         =         2.905418	       1.537481
	 R(11,14)         =         2.048359	       1.083945
	 R(12,14)         =         2.047561	       1.083523
	 R(13,14)         =         2.048234	       1.083879
	 B(1,4,2)         =         1.902084	     108.981400
	 B(1,4,3)         =         1.904800	     109.136998
	 B(1,4,7)         =         1.914900	     109.715710
	 B(2,4,3)         =         1.901051	     108.922216
	 B(2,4,7)         =         1.925678	     110.333205
	 B(3,4,7)         =         1.915089	     109.726508
	 B(4,7,5)         =         1.904253	     109.105667
	 B(4,7,6)         =         1.904140	     109.099190
	 B(4,7,10)        =         1.931555	     110.669973
	 B(5,7,6)         =         1.905707	     109.188971
	 B(5,7,10)        =         1.906804	     109.251828
	 B(6,7,10)        =         1.911183	     109.502740
	 B(7,10,8)        =         1.911113	     109.498718
	 B(7,10,9)        =         1.907606	     109.297770
	 B(7,10,14)       =         1.931923	     110.691053
	 B(8,10,9)        =         1.905027	     109.150006
	 B(8,10,14)       =         1.903605	     109.068517
	 B(9,10,14)       =         1.904351	     109.111296
	 B(10,14,11)      =         1.926754	     110.394890
	 B(10,14,12)      =         1.915383	     109.743373
	 B(10,14,13)      =         1.916155	     109.787601
	 B(11,14,12)      =         1.901155	     108.928175
	 B(11,14,13)      =         1.901398	     108.942058
	 B(12,14,13)      =         1.902702	     109.016783
	 D(1,4,7,5)       =        -3.136539	    -179.710460
	 D(1,4,7,6)       =        -1.055887	     -60.497842
	 D(1,4,7,10)      =         1.048052	      60.048966
	 D(2,4,7,5)       =        -1.040672	     -59.626097
	 D(2,4,7,6)       =         1.039981	      59.586521
	 D(2,4,7,10)      =        -3.139266	    -179.866671
	 D(3,4,7,5)       =         1.054037	      60.391865
	 D(3,4,7,6)       =         3.134690	     179.604484
	 D(3,4,7,10)      =        -1.044557	     -59.848709
	 D(4,7,10,8)      =        -2.265723	    -129.816393
	 D(4,7,10,9)      =        -0.179733	     -10.297943
	 D(4,7,10,14)     =         1.918201	     109.904797
	 D(5,7,10,8)      =         1.920393	     110.030393
	 D(5,7,10,9)      =        -2.276802	    -130.451157
	 D(5,7,10,14)     =        -0.178869	     -10.248417
	 D(6,7,10,8)      =        -0.165985	      -9.510220
	 D(6,7,10,9)      =         1.920006	     110.008230
	 D(6,7,10,14)     =        -2.265246	    -129.789030
	 D(7,10,14,11)    =        -3.140207	    -179.920585
	 D(7,10,14,12)    =         1.047277	      60.004534
	 D(7,10,14,13)    =        -1.043712	     -59.800279
	 D(8,10,14,11)    =         1.039241	      59.544129
	 D(8,10,14,12)    =        -1.056461	     -60.530753
	 D(8,10,14,13)    =         3.135736	     179.664435
	 D(9,10,14,11)    =        -1.040330	     -59.606504
	 D(9,10,14,12)    =        -3.136032	    -179.681386
	 D(9,10,14,13)    =         1.056165	      60.513802

	Current energy   :      -157.8372185640

	Energy change for the previous step:
		Projected    :        -0.0054960812
		Actual       :        -0.0041016504

	Performing BFGS update.
	Previous computed or guess Hessian on step 1.
	Steps to be used in Hessian update: 1
	Adding user-defined constraint: Fragment 1; Coordinate 49:
		Value =     1.918201; Fixed value    =     1.919860
		Force =     0.000871; Force constant =     0.525000
	Removing off-diagonal coupling between coordinate 49 and others.
	Taking RFO optimization step.
	Going to follow RFO solution 1.
	Using RFO vector 1.

	Determining step-restricting scale parameter for RS-RFO.
	Maximum step size allowed    0.10000

	 Iter      |step|        alpha        rfo_root  
	------------------------------------------------
	    0     0.19372       1.00000           1
	    1     0.15584       4.14835           1
	    2     0.12328      12.98657           1
	    3     0.10594      22.91211           1
	    4     0.10056      27.40734           1
	    5     0.10001      27.91948           1
	------------------------------------------------
	Norm of target step-size    0.10001
	Projected energy change by RFO approximation:        -0.0026719524

	Back-transformation to cartesian coordinates...
	Could not converge backtransformation.
	Using first guess instead.

	--- Internal Coordinate Step in ANG or DEG, aJ/ANG or AJ/DEG ---
	 ---------------------------------------------------------------------------
	   Coordinate                Previous        Force       Change         New 
	   ----------                --------       ------       ------       ------
	    1 R(1,4)          =      1.083201     0.054025     0.008312     1.091513
	    2 R(2,4)          =      1.084518     0.052203     0.007704     1.092221
	    3 R(3,4)          =      1.083562     0.056599     0.008729     1.092292
	    4 R(4,7)          =      1.538286    -0.025817    -0.006661     1.531626
	    5 R(5,7)          =      1.084187     0.056969     0.008928     1.093115
	    6 R(6,7)          =      1.084102     0.055818     0.008361     1.092462
	    7 R(7,10)         =      1.547324     0.008456    -0.000584     1.546740
	    8 R(8,10)         =      1.084094     0.056091     0.008395     1.092489
	    9 R(9,10)         =      1.083981     0.058271     0.009092     1.093073
	   10 R(10,14)        =      1.537481    -0.022879    -0.006069     1.531412
	   11 R(11,14)        =      1.083945     0.055522     0.008142     1.092087
	   12 R(12,14)        =      1.083523     0.052590     0.008101     1.091623
	   13 R(13,14)        =      1.083879     0.055014     0.008497     1.092376
	   14 B(1,4,2)        =    108.981400    -0.000195    -0.683848   108.297551
	   15 B(1,4,3)        =    109.136998    -0.000176    -0.772045   108.364952
	   16 B(1,4,7)        =    109.715710     0.000144     0.585796   110.301506
	   17 B(2,4,3)        =    108.922216    -0.000200    -0.714874   108.207342
	   18 B(2,4,7)        =    110.333205     0.000272     0.909355   111.242560
	   19 B(3,4,7)        =    109.726508     0.000147     0.612804   110.339312
	   20 B(4,7,5)        =    109.105667    -0.000082    -0.078067   109.027599
	   21 B(4,7,6)        =    109.099190    -0.000121    -0.272931   108.826259
	   22 B(4,7,10)       =    110.669973     0.000364     1.176805   111.846778
	   23 B(5,7,6)        =    109.188971    -0.000112    -1.117185   108.071787
	   24 B(5,7,10)       =    109.251828    -0.000063    -0.028877   109.222952
	   25 B(6,7,10)       =    109.502740     0.000009     0.262989   109.765729
	   26 B(7,10,8)       =    109.498718     0.000008     0.265147   109.763865
	   27 B(7,10,9)       =    109.297770    -0.000067    -0.051881   109.245889
	   28 B(7,10,14)      =    110.691053     0.000363     1.163775   111.854828
	   29 B(8,10,9)       =    109.150006    -0.000111    -1.104550   108.045455
	   30 B(8,10,14)      =    109.068517    -0.000119    -0.257903   108.810614
	   31 B(9,10,14)      =    109.111296    -0.000080    -0.072166   109.039131
	   32 B(10,14,11)     =    110.394890     0.000264     0.872760   111.267650
	   33 B(10,14,12)     =    109.743373     0.000136     0.563275   110.306648
	   34 B(10,14,13)     =    109.787601     0.000138     0.578906   110.366506
	   35 B(11,14,12)     =    108.928175    -0.000187    -0.651857   108.276318
	   36 B(11,14,13)     =    108.942058    -0.000197    -0.715324   108.226734
	   37 B(12,14,13)     =    109.016783    -0.000163    -0.710306   108.306477
	   38 D(1,4,7,5)      =   -179.710460     0.000025     0.737557  -178.972903
	   39 D(1,4,7,6)      =    -60.497842    -0.000034    -0.812535   -61.310377
	   40 D(1,4,7,10)     =     60.048966     0.000003     0.081883    60.130848
	   41 D(2,4,7,5)      =    -59.626097     0.000030     0.848935   -58.777162
	   42 D(2,4,7,6)      =     59.586521    -0.000029    -0.701156    58.885365
	   43 D(2,4,7,10)     =   -179.866671     0.000008     0.193261  -179.673410
	   44 D(3,4,7,5)      =     60.391865     0.000033     0.938491    61.330356
	   45 D(3,4,7,6)      =    179.604484    -0.000025    -0.611601   178.992883
	   46 D(3,4,7,10)     =    -59.848709     0.000011     0.282817   -59.565892
	   47 D(4,7,10,8)     =   -129.816393     0.000015     0.477576  -129.338816
	   48 D(4,7,10,9)     =    -10.297943    -0.000024    -0.740531   -11.038473
	   49 D(4,7,10,14)    =    109.904797    -0.000005    -0.125330   109.779467
	   50 D(5,7,10,8)     =    110.030393    -0.000004    -0.151995   109.878398
	   51 D(5,7,10,9)     =   -130.451157    -0.000044    -1.370102  -131.821259
	   52 D(5,7,10,14)    =    -10.248417    -0.000024    -0.754902   -11.003319
	   53 D(6,7,10,8)     =     -9.510220     0.000034     1.068846    -8.441374
	   54 D(6,7,10,9)     =    110.008230    -0.000005    -0.149261   109.858969
	   55 D(6,7,10,14)    =   -129.789030     0.000015     0.465939  -129.323091
	   56 D(7,10,14,11)   =   -179.920585     0.000009     0.220068  -179.700517
	   57 D(7,10,14,12)   =     60.004534     0.000004     0.106054    60.110588
	   58 D(7,10,14,13)   =    -59.800279     0.000011     0.266170   -59.534108
	   59 D(8,10,14,11)   =     59.544129    -0.000028    -0.678106    58.866022
	   60 D(8,10,14,12)   =    -60.530753    -0.000033    -0.792120   -61.322873
	   61 D(8,10,14,13)   =    179.664435    -0.000026    -0.632004   179.032431
	   62 D(9,10,14,11)   =    -59.606504     0.000029     0.843949   -58.762556
	   63 D(9,10,14,12)   =   -179.681386     0.000024     0.729935  -178.951451
	   64 D(9,10,14,13)   =     60.513802     0.000032     0.890051    61.403853
	 ---------------------------------------------------------------------------
	 Forces used to impose fixed constraints are not included.
	  Forces zeroed: 49 

  ==> Convergence Check <==

  Measures of convergence in internal coordinates in au.
  Criteria marked as inactive (o), active & met (*), and active & unmet ( ).
  ---------------------------------------------------------------------------------------------
   Step     Total Energy     Delta E     MAX Force     RMS Force      MAX Disp      RMS Disp   
  ---------------------------------------------------------------------------------------------
    Convergence Criteria    1.00e-06 *    3.00e-04 *             o    1.20e-03 *             o
  ---------------------------------------------------------------------------------------------
      2    -157.83721856   -4.10e-03      7.07e-03      3.20e-03 o    2.39e-02      1.25e-02 o  ~
  ---------------------------------------------------------------------------------------------

	Writing optimization data to binary file.
	Structure for next step:
	Cartesian Geometry (in Angstrom)
	    H    -2.2257243480   0.0673546499   0.7365107240
	    H    -2.0998506015   1.7265269383   0.1330026689
	    H    -1.7939923964   0.3647445291  -0.9549238233
	    C    -1.6675470235   0.7255930230   0.0682579866
	    H     0.3510975486   1.4144528043  -0.2198581700
	    H    -0.0848122256   1.1171190349   1.4685863205
	    C    -0.1841841618   0.7360473757   0.4495751089
	    H     0.9743270743  -0.9053062810   1.2817642361
	    H    -0.3492150990  -1.4143028947   0.2247206370
	    C     0.4444224448  -0.6740159122   0.3548127830
	    H     1.8599889364  -1.7833943175  -0.8766894765
	    H     2.2387661367  -0.0640609019  -0.6966032599
	    H     0.9174338751  -0.5730196511  -1.7591813393
	    C     1.4260555987  -0.7830858548  -0.8155390434
			--------------------------
			 OPTKING Finished Execution 
			--------------------------

    Structure for next step:
    Molecular point group: c1
    Full point group: C1

    Geometry (in Angstrom), charge = 0, multiplicity = 1:

    H           -2.225919299469     0.067282555228     0.736210695824
    H           -2.100045552952     1.726454843690     0.132702640648
    H           -1.794187347876     0.364672434435    -0.955223851464
    C           -1.667741975018     0.725520928365     0.067957958349
    H            0.350902597114     1.414380709696    -0.220158198213
    H           -0.085007177114     1.117046940217     1.468286292314
    C           -0.184379113271     0.735975281094     0.449275080728
    H            0.974132122818    -0.905378375596     1.281464207855
    H           -0.349410050511    -1.414374989355     0.224420608827
    C            0.444227493376    -0.674088006892     0.354512754809
    H            1.859793984953    -1.783466412157    -0.876989504716
    H            2.238571185222    -0.064132996527    -0.696903288124
    H            0.917238923598    -0.573091745704    -1.759481367538
    C            1.425860647258    -0.783157949420    -0.815839071594

gradient() will perform analytic gradient computation.
    SCF Algorithm Type (re)set to DF.

*** tstart() called on lski1497
*** at Thu Feb 16 16:23:32 2017


         ---------------------------------------------------------
                                   SCF
            by Justin Turney, Rob Parrish, and Andy Simmonett
                              RHF Reference
                        1 Threads,   1000 MiB Core
         ---------------------------------------------------------

  ==> Geometry <==

    Molecular point group: c1
    Full point group: C1

    Geometry (in Angstrom), charge = 0, multiplicity = 1:

       Center              X                  Y                   Z               Mass       
    ------------   -----------------  -----------------  -----------------  -----------------
           H         -2.225919299469     0.067282555228     0.736210695824     1.007825032070
           H         -2.100045552952     1.726454843690     0.132702640648     1.007825032070
           H         -1.794187347876     0.364672434435    -0.955223851464     1.007825032070
           C         -1.667741975018     0.725520928365     0.067957958349    12.000000000000
           H          0.350902597114     1.414380709696    -0.220158198213     1.007825032070
           H         -0.085007177114     1.117046940217     1.468286292314     1.007825032070
           C         -0.184379113271     0.735975281094     0.449275080728    12.000000000000
           H          0.974132122818    -0.905378375596     1.281464207855     1.007825032070
           H         -0.349410050511    -1.414374989355     0.224420608827     1.007825032070
           C          0.444227493376    -0.674088006892     0.354512754809    12.000000000000
           H          1.859793984953    -1.783466412157    -0.876989504716     1.007825032070
           H          2.238571185222    -0.064132996527    -0.696903288124     1.007825032070
           H          0.917238923598    -0.573091745704    -1.759481367538     1.007825032070
           C          1.425860647258    -0.783157949420    -0.815839071594    12.000000000000

  Running in c1 symmetry.

  Rotational constants: A =      0.55681  B =      0.13240  C =      0.12923 [cm^-1]
  Rotational constants: A =  16692.67222  B =   3969.13190  C =   3874.28054 [MHz]
  Nuclear repulsion =  131.393250050523363

  Charge       = 0
  Multiplicity = 1
  Electrons    = 34
  Nalpha       = 17
  Nbeta        = 17

  ==> Algorithm <==

  SCF Algorithm Type is DF.
  DIIS enabled.
  MOM disabled.
  Fractional occupation disabled.
  Guess Type is READ.
  Energy threshold   = 1.00e-10
  Density threshold  = 1.00e-10
  Integral threshold = 0.00e+00

  ==> Primary Basis <==

  Basis Set: 6-31G(D)
    Number of shells: 44
    Number of basis function: 80
    Number of Cartesian functions: 80
    Spherical Harmonics?: false
    Max angular momentum: 2

  ==> Pre-Iterations <==

   -------------------------------------------------------
    Irrep   Nso     Nmo     Nalpha   Nbeta   Ndocc  Nsocc
   -------------------------------------------------------
     A         80      80       0       0       0       0
   -------------------------------------------------------
    Total      80      80      17      17      17       0
   -------------------------------------------------------

  ==> Integral Setup <==

  ==> DFJK: Density-Fitted J/K Matrices <==

    J tasked:                  Yes
    K tasked:                  Yes
    wK tasked:                  No
    OpenMP threads:              1
    Integrals threads:           1
    Memory (MB):               715
    Algorithm:                Core
    Integral Cache:           NONE
    Schwarz Cutoff:          1E-12
    Fitting Condition:       1E-12

   => Auxiliary Basis Set <=

  Basis Set: 
    Number of shells: 186
    Number of basis function: 574
    Number of Cartesian functions: 574
    Spherical Harmonics?: false
    Max angular momentum: 3

  Minimum eigenvalue in the overlap matrix is 5.1710145568E-03.
  Using Symmetric Orthogonalization.
  SCF Guess was Projection but file not found.
  Switching over to SAD guess.

  SCF Guess: Superposition of Atomic Densities via on-the-fly atomic UHF.

  ==> Iterations <==

                           Total Energy        Delta E     RMS |[F,P]|

   @DF-RHF iter   0:  -158.83938894050431   -1.58839e+02   4.61919e-02 
   @DF-RHF iter   1:  -157.20226325025084    1.63713e+00   3.92290e-03 
   @DF-RHF iter   2:  -157.28342913050193   -8.11659e-02   1.11392e-03 DIIS
   @DF-RHF iter   3:  -157.29161364843060   -8.18452e-03   2.77302e-04 DIIS
   @DF-RHF iter   4:  -157.29203651233831   -4.22864e-04   7.94558e-05 DIIS
   @DF-RHF iter   5:  -157.29207665969852   -4.01474e-05   1.26653e-05 DIIS
   @DF-RHF iter   6:  -157.29207789643482   -1.23674e-06   1.71602e-06 DIIS
   @DF-RHF iter   7:  -157.29207791559713   -1.91623e-08   5.52983e-07 DIIS
   @DF-RHF iter   8:  -157.29207791692392   -1.32678e-09   1.15343e-07 DIIS
   @DF-RHF iter   9:  -157.29207791701305   -8.91305e-11   2.66888e-08 DIIS
   @DF-RHF iter  10:  -157.29207791701873   -5.68434e-12   5.50086e-09 DIIS
   @DF-RHF iter  11:  -157.29207791701873    0.00000e+00   8.56872e-10 DIIS
   @DF-RHF iter  12:  -157.29207791701907   -3.41061e-13   2.14912e-10 DIIS
   @DF-RHF iter  13:  -157.29207791701896    1.13687e-13   6.43402e-11 DIIS

  ==> Post-Iterations <==

    Orbital Energies (a.u.)
    -----------------------

    Doubly Occupied:                                                      

       1A    -11.214896     2A    -11.214347     3A    -11.209872  
       4A    -11.209860     5A     -1.067147     6A     -0.977298  
       7A     -0.860763     8A     -0.784381     9A     -0.628500  
      10A     -0.605315    11A     -0.577889    12A     -0.546901  
      13A     -0.512275    14A     -0.505781    15A     -0.466689  
      16A     -0.456137    17A     -0.450780  

    Virtual:                                                              

      18A      0.230986    19A      0.271227    20A      0.281802  
      21A      0.290186    22A      0.313376    23A      0.321503  
      24A      0.332507    25A      0.342440    26A      0.345445  
      27A      0.358850    28A      0.407589    29A      0.453222  
      30A      0.456970    31A      0.715390    32A      0.727018  
      33A      0.731081    34A      0.783033    35A      0.792076  
      36A      0.817237    37A      0.852894    38A      0.933171  
      39A      0.945610    40A      0.994874    41A      1.063887  
      42A      1.108356    43A      1.151806    44A      1.155576  
      45A      1.170899    46A      1.187947    47A      1.189711  
      48A      1.210612    49A      1.235305    50A      1.237062  
      51A      1.247840    52A      1.259237    53A      1.261004  
      54A      1.440534    55A      1.695613    56A      1.739935  
      57A      1.793434    58A      1.890729    59A      2.013988  
      60A      2.049103    61A      2.192655    62A      2.234623  
      63A      2.266947    64A      2.306235    65A      2.358982  
      66A      2.441264    67A      2.469966    68A      2.605708  
      69A      2.629037    70A      2.645976    71A      2.715820  
      72A      2.744549    73A      2.780534    74A      2.896635  
      75A      3.004958    76A      3.068681    77A      4.555528  
      78A      4.651921    79A      4.824070    80A      4.955552  

    Final Occupation by Irrep:
              A 
    DOCC [    17 ]

  Energy converged.

  @DF-RHF Final Energy:  -157.29207791701896

   => Energetics <=

    Nuclear Repulsion Energy =            131.3932500505233634
    One-Electron Energy =                -470.7929996597175659
    Two-Electron Energy =                 182.1076716921752734
    DFT Exchange-Correlation Energy =       0.0000000000000000
    Empirical Dispersion Energy =           0.0000000000000000
    PCM Polarization Energy =               0.0000000000000000
    EFP Energy =                            0.0000000000000000
    Total Energy =                       -157.2920779170189292


  Saving occupied orbitals to File 180.

*** tstop() called on lski1497 at Thu Feb 16 16:23:39 2017
Module time:
	user time   =       5.84 seconds =       0.10 minutes
	system time =       0.16 seconds =       0.00 minutes
	total time  =          7 seconds =       0.12 minutes
Total time:
	user time   =      55.63 seconds =       0.93 minutes
	system time =       1.58 seconds =       0.03 minutes
	total time  =         66 seconds =       1.10 minutes


Properties will be evaluated at   0.000000,   0.000000,   0.000000 Bohr

Properties computed using the SCF density matrix

  Nuclear Dipole Moment: (a.u.)
     X:    -0.2006      Y:    -0.0474      Z:    -0.6240

  Electronic Dipole Moment: (a.u.)
     X:     0.2103      Y:     0.0497      Z:     0.6541

  Dipole Moment: (a.u.)
     X:     0.0097      Y:     0.0023      Z:     0.0301     Total:     0.0317

  Dipole Moment: (Debye)
     X:     0.0248      Y:     0.0058      Z:     0.0764     Total:     0.0805


  //>>>>>>>>>>>>>>>>>>>>>>>>>>>>>>>>>>>//
  //               DFMP2               //
  //<<<<<<<<<<<<<<<<<<<<<<<<<<<<<<<<<<<//


*** tstart() called on lski1497
*** at Thu Feb 16 16:23:39 2017


*** tstop() called on lski1497 at Thu Feb 16 16:23:40 2017
Module time:
	user time   =       0.59 seconds =       0.01 minutes
	system time =       0.01 seconds =       0.00 minutes
	total time  =          1 seconds =       0.02 minutes
Total time:
	user time   =      56.24 seconds =       0.94 minutes
	system time =       1.59 seconds =       0.03 minutes
	total time  =         67 seconds =       1.12 minutes
	 --------------------------------------------------------
	                          DF-MP2                         
	      2nd-Order Density-Fitted Moller-Plesset Theory     
	              RMP2 Wavefunction,   1 Threads             
	                                                         
	        Rob Parrish, Justin Turney, Andy Simmonett,      
	           Ed Hohenstein, and C. David Sherrill          
	 --------------------------------------------------------

   => Auxiliary Basis Set <=

  Basis Set: 
    Number of shells: 132
    Number of basis function: 364
    Number of Cartesian functions: 414
    Spherical Harmonics?: true
    Max angular momentum: 3

	 --------------------------------------------------------
	                 NBF =    80, NAUX =   364
	 --------------------------------------------------------
	   CLASS    FOCC     OCC    AOCC    AVIR     VIR    FVIR
	   PAIRS       0      17      17      63      63       0
	 --------------------------------------------------------

DGAS Warning! /src/lib/libfock/apps.cc:80 is not currently checking restricted

         ------------------------------------------------------------
                                     CPHF                           
                                  Rob Parrish                       
         ------------------------------------------------------------

  ==> Geometry <==

    Molecular point group: c1
    Full point group: C1

    Geometry (in Angstrom), charge = 0, multiplicity = 1:

       Center              X                  Y                   Z               Mass       
    ------------   -----------------  -----------------  -----------------  -----------------
           H         -2.225919299469     0.067282555228     0.736210695824     1.007825032070
           H         -2.100045552952     1.726454843690     0.132702640648     1.007825032070
           H         -1.794187347876     0.364672434435    -0.955223851464     1.007825032070
           C         -1.667741975018     0.725520928365     0.067957958349    12.000000000000
           H          0.350902597114     1.414380709696    -0.220158198213     1.007825032070
           H         -0.085007177114     1.117046940217     1.468286292314     1.007825032070
           C         -0.184379113271     0.735975281094     0.449275080728    12.000000000000
           H          0.974132122818    -0.905378375596     1.281464207855     1.007825032070
           H         -0.349410050511    -1.414374989355     0.224420608827     1.007825032070
           C          0.444227493376    -0.674088006892     0.354512754809    12.000000000000
           H          1.859793984953    -1.783466412157    -0.876989504716     1.007825032070
           H          2.238571185222    -0.064132996527    -0.696903288124     1.007825032070
           H          0.917238923598    -0.573091745704    -1.759481367538     1.007825032070
           C          1.425860647258    -0.783157949420    -0.815839071594    12.000000000000

  Nuclear repulsion =  131.393250050523363
  Reference energy  = -157.292077917018958

  ==> Basis Set <==

  Basis Set: 6-31G(D)
    Number of shells: 44
    Number of basis function: 80
    Number of Cartesian functions: 80
    Spherical Harmonics?: false
    Max angular momentum: 2

  ==> CGRSolver (by Rob Parrish) <==

   Number of roots    =         1
   Preconditioning    =    JACOBI
   Convergence cutoff =     1E-06
   Maximum iterations =       100

  ==> CPHFRHamiltonian (by Rob Parrish) <== 

  ==> DFJK: Density-Fitted J/K Matrices <==

    J tasked:                  Yes
    K tasked:                  Yes
[...]
    Memory (MB):               715
    Algorithm:                Core
    Integral Cache:           NONE
    Schwarz Cutoff:          1E-12
    Fitting Condition:       1E-12

   => Auxiliary Basis Set <=

  Basis Set: 
    Number of shells: 186
    Number of basis function: 574
    Number of Cartesian functions: 574
    Spherical Harmonics?: false
    Max angular momentum: 3

  ==> CPHF Iterations <==

  => Iterations <=

             Iter  Converged  Remaining    Residual
  CGR           1          0          1   7.542E-02
  CGR           2          0          1   9.269E-03
  CGR           3          0          1   2.718E-03
  CGR           4          0          1   4.239E-04
  CGR           5          0          1   8.247E-05
  CGR           6          0          1   1.814E-05
  CGR           7          0          1   2.877E-06
  CGR           8          1          0   5.450E-07

    CGRSolver converged.

  ==> DFCorrGrad: Density-Fitted Correlated Gradients <==

    OpenMP threads:              1
    Integrals threads:           1
    Memory (MB):               715
    Schwarz Cutoff:          0E+00
    Fitting Condition:       1E-12

   => Auxiliary Basis Set <=

  Basis Set: 
    Number of shells: 186
    Number of basis function: 510
    Number of Cartesian functions: 574
    Spherical Harmonics?: true
    Max angular momentum: 3

	-----------------------------------------------------------
	 ==================> DF-MP2 Energies <==================== 
	-----------------------------------------------------------
	 Reference Energy          =    -157.2923831444306018 [Eh]
	 Singles Energy            =      -0.0000000000000000 [Eh]
	 Same-Spin Energy          =      -0.1242965804616949 [Eh]
	 Opposite-Spin Energy      =      -0.4224220667006661 [Eh]
	 Correlation Energy        =      -0.5467186471623610 [Eh]
	 Total Energy              =    -157.8391017915929524 [Eh]
	-----------------------------------------------------------
	 ================> DF-SCS-MP2 Energies <================== 
	-----------------------------------------------------------
	 SCS Same-Spin Scale       =       0.3333333333333333 [-]
	 SCS Opposite-Spin Scale   =       1.2000000000000000 [-]
	 SCS Same-Spin Energy      =      -0.0414321934872316 [Eh]
	 SCS Opposite-Spin Energy  =      -0.5069064800407993 [Eh]
	 SCS Correlation Energy    =      -0.5483386735280309 [Eh]
	 SCS Total Energy          =    -157.8407218179586380 [Eh]
	-----------------------------------------------------------


  -Total Gradient:
     Atom            X                  Y                   Z
    ------   -----------------  -----------------  -----------------
       1       -0.000016285231    -0.000004128879    -0.000006791271
       2       -0.000008582920     0.000004808070     0.000003192005
       3        0.000017666606     0.000004624319     0.000004320351
       4       -0.000357530124    -0.000303195621     0.001599185768
       5        0.000003700077     0.000015047614     0.000001692997
       6       -0.000011561528     0.000002077952    -0.000025498939
       7        0.000978679240     0.000655809484    -0.001801101381
       8       -0.000005106871    -0.000006251893    -0.000026844902
       9       -0.000001390951    -0.000014441018     0.000005728105
      10       -0.001813731010    -0.000854847563    -0.000781885334
      11        0.000008918720    -0.000005145465    -0.000001508509
      12        0.000008513317     0.000001917381    -0.000015005956
      13       -0.000011523391    -0.000003516398     0.000015036066
      14        0.001208234065     0.000507242018     0.001029481001


			-----------------------------------------
			 OPTKING 2.0: for geometry optimizations 
			  - R.A. King,  Bethel University        
			-----------------------------------------

	Previous internal coordinate definitions found.
	---Fragment 1 Geometry and Gradient---
	 H          -4.2354708423        0.1393783779        1.4223006652
	 H          -3.9866069024        3.2523185995        0.2292137291
	 H          -3.4345330527        0.6399790799       -1.7806680407
	 C          -3.1655854891        1.3574188920        0.1404383104
	 H           0.6439750796        2.7043600625       -0.3735882387
	 H          -0.1761844910        2.1098041729        2.7733029753
	 C          -0.3705200657        1.3743610896        0.8481559697
	 H           1.8522993351       -1.7105579734        2.4117452600
	 H          -0.6190464943       -2.6984229602        0.4507103580
	 C           0.8562160136       -1.2586698015        0.6543463629
	 H           3.5155396707       -3.3645281090       -1.6864269777
	 H           4.2726690721       -0.1305285806       -1.3072252620
	 H           1.7800706857       -1.0340606990       -3.3374265448
	 C           2.7124160812       -1.4653618508       -1.5423208972
	            -0.0000162852       -0.0000041289       -0.0000067913
	            -0.0000085829        0.0000048081        0.0000031920
	             0.0000176666        0.0000046243        0.0000043204
	            -0.0003575301       -0.0003031956        0.0015991858
	             0.0000037001        0.0000150476        0.0000016930
	            -0.0000115615        0.0000020780       -0.0000254989
	             0.0009786792        0.0006558095       -0.0018011014
	            -0.0000051069       -0.0000062519       -0.0000268449
	            -0.0000013910       -0.0000144410        0.0000057281
	            -0.0018137310       -0.0008548476       -0.0007818853
	             0.0000089187       -0.0000051455       -0.0000015085
	             0.0000085133        0.0000019174       -0.0000150060
	            -0.0000115234       -0.0000035164        0.0000150361
	             0.0012082341        0.0005072420        0.0010294810

	---Fragment 1 Intrafragment Coordinates---
	 - Coordinate -           - BOHR/RAD -       - ANG/DEG -
	 R(1,4)           =         2.066748	       1.093676
	 R(2,4)           =         2.067027	       1.093824
	 R(3,4)           =         2.068261	       1.094476
	 R(4,7)           =         2.883321	       1.525788
	 R(5,7)           =         2.071414	       1.096145
	 R(6,7)           =         2.069984	       1.095388
	 R(7,10)          =         2.911236	       1.540560
	 R(8,10)          =         2.069984	       1.095389
	 R(9,10)          =         2.071414	       1.096145
	 R(10,14)         =         2.883322	       1.525788
	 R(11,14)         =         2.067028	       1.093824
	 R(12,14)         =         2.066746	       1.093675
	 R(13,14)         =         2.068258	       1.094475
	 B(1,4,2)         =         1.883907	     107.939929
	 B(1,4,3)         =         1.880056	     107.719252
	 B(1,4,7)         =         1.931622	     110.673766
	 B(2,4,3)         =         1.882034	     107.832632
	 B(2,4,7)         =         1.948851	     111.660911
	 B(3,4,7)         =         1.934868	     110.859783
	 B(4,7,5)         =         1.911097	     109.497806
	 B(4,7,6)         =         1.897977	     108.746072
	 B(4,7,10)        =         1.967984	     112.757200
	 B(5,7,6)         =         1.848805	     105.928699
	 B(5,7,10)        =         1.912481	     109.577066
	 B(6,7,10)        =         1.921641	     110.101941
	 B(7,10,8)        =         1.921643	     110.102019
	 B(7,10,9)        =         1.912480	     109.577052
	 B(7,10,14)       =         1.967983	     112.757145
	 B(8,10,9)        =         1.848805	     105.928703
	 B(8,10,14)       =         1.897975	     108.745938
	 B(9,10,14)       =         1.911099	     109.497931
	 B(10,14,11)      =         1.948846	     111.660653
	 B(10,14,12)      =         1.931618	     110.673538
	 B(10,14,13)      =         1.934869	     110.859819
	 B(11,14,12)      =         1.883909	     107.940011
	 B(11,14,13)      =         1.882036	     107.832695
	 B(12,14,13)      =         1.880061	     107.719587
	 D(1,4,7,5)       =        -3.073710	    -176.110633
	 D(1,4,7,6)       =        -1.061066	     -60.794588
	 D(1,4,7,10)      =         1.075360	      61.613614
	 D(2,4,7,5)       =        -0.974575	     -55.839023
	 D(2,4,7,6)       =         1.038070	      59.477022
	 D(2,4,7,10)      =        -3.108689	    -178.114777
	 D(3,4,7,5)       =         1.124398	      64.423240
	 D(3,4,7,6)       =         3.137042	     179.739285
	 D(3,4,7,10)      =        -1.009717	     -57.852514
	 D(4,7,10,8)      =        -2.245030	    -128.630761
	 D(4,7,10,9)      =        -0.218266	     -12.505707
	 D(4,7,10,14)     =         1.915073	     109.725589
	 D(5,7,10,8)      =         1.904818	     109.138056
	 D(5,7,10,9)      =        -2.351602	    -134.736890
	 D(5,7,10,14)     =        -0.218264	     -12.505594
	 D(6,7,10,8)      =        -0.121945	      -6.986957
	 D(6,7,10,9)      =         1.904819	     109.138098
	 D(6,7,10,14)     =        -2.245028	    -128.630607
	 D(7,10,14,11)    =        -3.108683	    -178.114434
	 D(7,10,14,12)    =         1.075370	      61.614181
	 D(7,10,14,13)    =        -1.009712	     -57.852240
	 D(8,10,14,11)    =         1.038076	      59.477398
	 D(8,10,14,12)    =        -1.061055	     -60.793988
	 D(8,10,14,13)    =         3.137048	     179.739591
	 D(9,10,14,11)    =        -0.974568	     -55.838645
	 D(9,10,14,12)    =        -3.073700	    -176.110031
	 D(9,10,14,13)    =         1.124403	      64.423548

	Current energy   :      -157.8391017916

	Energy change for the previous step:
		Projected    :        -0.0000013433
		Actual       :         0.0000007289

	Performing BFGS update.
	Previous computed or guess Hessian on step 1.
	Steps to be used in Hessian update: 5 4
	Adding user-defined constraint: Fragment 1; Coordinate 49:
		Value =     1.915073; Fixed value    =     1.919860
		Force =     0.002992; Force constant =     0.625000
	Removing off-diagonal coupling between coordinate 49 and others.
	Taking RFO optimization step.
	Going to follow RFO solution 1.
	Using RFO vector 1.
	Norm of target step-size    0.00814
	Projected energy change by RFO approximation:         0.0000010288

	Back-transformation to cartesian coordinates...
	Successfully converged to displaced geometry.

	--- Internal Coordinate Step in ANG or DEG, aJ/ANG or AJ/DEG ---
	 ---------------------------------------------------------------------------
	   Coordinate                Previous        Force       Change         New 
	   ----------                --------       ------       ------       ------
	    1 R(1,4)          =      1.093676    -0.000055     0.000030     1.093706
	    2 R(2,4)          =      1.093824    -0.000066     0.000033     1.093857
	    3 R(3,4)          =      1.094476     0.000065     0.000052     1.094528
	    4 R(4,7)          =      1.525788     0.000308     0.000073     1.525861
	    5 R(5,7)          =      1.096145    -0.000086    -0.000018     1.096127
	    6 R(6,7)          =      1.095388     0.000198     0.000015     1.095403
	    7 R(7,10)         =      1.540560    -0.000568    -0.000052     1.540507
	    8 R(8,10)         =      1.095389     0.000197     0.000016     1.095404
	    9 R(9,10)         =      1.096145    -0.000086    -0.000017     1.096128
	   10 R(10,14)        =      1.525788     0.000309     0.000075     1.525863
	   11 R(11,14)        =      1.093824    -0.000069     0.000036     1.093860
	   12 R(12,14)        =      1.093675    -0.000049     0.000030     1.093705
	   13 R(13,14)        =      1.094475     0.000071     0.000050     1.094526
	   14 B(1,4,2)        =    107.939929     0.000001    -0.000582   107.939347
	   15 B(1,4,3)        =    107.719252    -0.000000     0.004305   107.723557
	   16 B(1,4,7)        =    110.673766    -0.000002    -0.006934   110.666832
	   17 B(2,4,3)        =    107.832632    -0.000001    -0.001215   107.831417
	   18 B(2,4,7)        =    111.660911    -0.000001    -0.009703   111.651209
	   19 B(3,4,7)        =    110.859783     0.000002     0.014379   110.874162
	   20 B(4,7,5)        =    109.497806     0.000001    -0.010888   109.486918
	   21 B(4,7,6)        =    108.746072    -0.000001     0.022159   108.768230
	   22 B(4,7,10)       =    112.757200     0.000000    -0.002433   112.754768
	   23 B(5,7,6)        =    105.928699     0.000000     0.025701   105.954400
	   24 B(5,7,10)       =    109.577066    -0.000001    -0.027288   109.549778
	   25 B(6,7,10)       =    110.101941    -0.000001    -0.005219   110.096722
	   26 B(7,10,8)       =    110.102019    -0.000001    -0.005529   110.096490
	   27 B(7,10,9)       =    109.577052    -0.000001    -0.027118   109.549935
	   28 B(7,10,14)      =    112.757145     0.000001    -0.002217   112.754927
	   29 B(8,10,9)       =    105.928703     0.000000     0.025544   105.954246
	   30 B(8,10,14)      =    108.745938    -0.000001     0.022033   108.767970
	   31 B(9,10,14)      =    109.497931     0.000001    -0.010702   109.487228
	   32 B(10,14,11)     =    111.660653    -0.000001    -0.009384   111.651270
	   33 B(10,14,12)     =    110.673538    -0.000002    -0.007210   110.666328
	   34 B(10,14,13)     =    110.859819     0.000002     0.014332   110.874151
	   35 B(11,14,12)     =    107.940011     0.000001    -0.000593   107.939418
	   36 B(11,14,13)     =    107.832695    -0.000001    -0.001001   107.831694
	   37 B(12,14,13)     =    107.719587    -0.000000     0.004101   107.723687
	   38 D(1,4,7,5)      =   -176.110633     0.000000     0.079930  -176.030703
	   39 D(1,4,7,6)      =    -60.794588     0.000000     0.116887   -60.677701
	   40 D(1,4,7,10)     =     61.613614     0.000000     0.124399    61.738013
	   41 D(2,4,7,5)      =    -55.839023    -0.000000     0.067993   -55.771031
	   42 D(2,4,7,6)      =     59.477022     0.000000     0.104949    59.581971
	   43 D(2,4,7,10)     =   -178.114777    -0.000000     0.112462  -178.002315
	   44 D(3,4,7,5)      =     64.423240     0.000000     0.069729    64.492968
	   45 D(3,4,7,6)      =    179.739285     0.000000     0.106685   179.845970
	   46 D(3,4,7,10)     =    -57.852514    -0.000000     0.114198   -57.738316
	   47 D(4,7,10,8)     =   -128.630761     0.000000     0.035915  -128.594846
	   48 D(4,7,10,9)     =    -12.505707     0.000000     0.047870   -12.457837
	   49 D(4,7,10,14)    =    109.725589     0.000001     0.013112   109.738701
	   50 D(5,7,10,8)     =    109.138056     0.000000     0.071179   109.209235
	   51 D(5,7,10,9)     =   -134.736890     0.000000     0.083134  -134.653756
	   52 D(5,7,10,14)    =    -12.505594     0.000000     0.048376   -12.457218
	   53 D(6,7,10,8)     =     -6.986957     0.000000     0.058954    -6.928002
	   54 D(6,7,10,9)     =    109.138098     0.000000     0.070909   109.209006
	   55 D(6,7,10,14)    =   -128.630607     0.000000     0.036152  -128.594455
	   56 D(7,10,14,11)   =   -178.114434    -0.000000     0.111155  -178.003278
	   57 D(7,10,14,12)   =     61.614181     0.000000     0.123082    61.737262
	   58 D(7,10,14,13)   =    -57.852240    -0.000000     0.113346   -57.738894
	   59 D(8,10,14,11)   =     59.477398     0.000000     0.103984    59.581382
	   60 D(8,10,14,12)   =    -60.793988     0.000000     0.115911   -60.678077
	   61 D(8,10,14,13)   =    179.739591     0.000000     0.106175   179.845766
	   62 D(9,10,14,11)   =    -55.838645    -0.000000     0.067184   -55.771461
	   63 D(9,10,14,12)   =   -176.110031     0.000000     0.079110  -176.030921
	   64 D(9,10,14,13)   =     64.423548     0.000000     0.069375    64.492923
	 ---------------------------------------------------------------------------
	 Forces used to impose fixed constraints are not included.
	  Forces zeroed: 49 

  ==> Convergence Check <==

  Measures of convergence in internal coordinates in au.
  Criteria marked as inactive (o), active & met (*), and active & unmet ( ).
  ---------------------------------------------------------------------------------------------
   Step     Total Energy     Delta E     MAX Force     RMS Force      MAX Disp      RMS Disp   
  ---------------------------------------------------------------------------------------------
    Convergence Criteria    1.00e-06 *    3.00e-04 *             o    1.20e-03 *             o
  ---------------------------------------------------------------------------------------------
      6    -157.83910179    7.29e-07 *    6.89e-05 *    1.64e-05 o    2.17e-03      1.02e-03 o  ~
  ---------------------------------------------------------------------------------------------


  **** Optimization is complete! (in 6 steps) ****

  ==> Optimization Summary <==

  Measures of convergence in internal coordinates in au.
  --------------------------------------------------------------------------------------------------------------- ~
   Step         Total Energy             Delta E       MAX Force       RMS Force        MAX Disp        RMS Disp  ~
  --------------------------------------------------------------------------------------------------------------- ~
      1    -157.833116913618   -157.833116913618      0.01777085      0.00727228      0.02786342      0.01250747  ~
      2    -157.837218564036     -0.004101650417      0.00707277      0.00319671      0.02391279      0.01250786  ~
      3    -157.838695544409     -0.001476980373      0.00169151      0.00094863      0.03466706      0.01251346  ~
      4    -157.839064220054     -0.000368675645      0.00131074      0.00025967      0.02788273      0.01249952  ~
      5    -157.839102520535     -0.000038300481      0.00012366      0.00004344      0.00315178      0.00145048  ~
      6    -157.839101791593      0.000000728942      0.00006892      0.00001713      0.00217118      0.00101752  ~
  --------------------------------------------------------------------------------------------------------------- ~

	Writing optimization data to binary file.
	Final energy is   -157.8391017915930
	Final (previous) structure:
	Cartesian Geometry (in Angstrom)
	    H    -2.2413146374   0.0737558609   0.7526490958
	    H    -2.1096215124   1.7210528779   0.1212946813
	    H    -1.8174766137   0.3386623431  -0.9422889432
	    C    -1.6751556927   0.7183151402   0.0743167531
	    H     0.3407769350   1.4310857089  -0.1976943813
	    H    -0.0932328171   1.1164602829   1.4675687270
	    C    -0.1960707741   0.7272805650   0.4488248085
	    H     0.9801945916  -0.9051882935   1.2762406245
	    H    -0.3275852958  -1.4279439297   0.2385056491
	    C     0.4530900000  -0.6660593721   0.3462651818
	    H     1.8603434696  -1.7804315929  -0.8924187205
	    H     2.2609990928  -0.0690727499  -0.6917538151
	    H     0.9419728365  -0.5472013542  -1.7660900629
	    C     1.4353487704  -0.7754360938  -0.8161610671
	Saving final (previous) structure.
			--------------------------
			 OPTKING Finished Execution 
			--------------------------

    Final optimized geometry and variables:
    Molecular point group: c1
    Full point group: C1

    Geometry (in Angstrom), charge = 0, multiplicity = 1:

    H           -2.241314637392     0.073755860940     0.752649095760
    H           -2.109621512350     1.721052877948     0.121294681309
    H           -1.817476613651     0.338662343082    -0.942288943212
    C           -1.675155692699     0.718315140160     0.074316753089
    H            0.340776935044     1.431085708896    -0.197694381298
    H           -0.093232817142     1.116460282907     1.467568727023
    C           -0.196070774104     0.727280565009     0.448824808493
    H            0.980194591619    -0.905188293487     1.276240624518
    H           -0.327585295843    -1.427943929673     0.238505649118
    C            0.453090000048    -0.666059372108     0.346265181777
    H            1.860343469624    -1.780431592918    -0.892418720525
    H            2.260999092814    -0.069072749899    -0.691753815121
    H            0.941972836543    -0.547201354201    -1.766090062869
    C            1.435348770400    -0.775436093802    -0.816161067106

	Cleaning optimization helper files.

*** Psi4 exiting successfully. Buy a developer a beer!
