    -----------------------------------------------------------------------
          Psi4: An Open-Source Ab Initio Electronic Structure Package
                              Psi4 1.0.0 Driver

                          Git: Rev {master} 6a9a71b 

    J. M. Turney, A. C. Simmonett, R. M. Parrish, E. G. Hohenstein,
    F. A. Evangelista, J. T. Fermann, B. J. Mintz, L. A. Burns, J. J. Wilke,
    M. L. Abrams, N. J. Russ, M. L. Leininger, C. L. Janssen, E. T. Seidl,
    W. D. Allen, H. F. Schaefer, R. A. King, E. F. Valeev, C. D. Sherrill,
    and T. D. Crawford, WIREs Comput. Mol. Sci. 2, 556-565 (2012)
    (doi: 10.1002/wcms.93)

                         Additional Contributions by
    A. E. DePrince, U. Bozkaya, A. Yu. Sokolov, D. G. A. Smith, R. Di Remigio,
    R. M. Richard, J. F. Gonthier, H. R. McAlexander, M. Saitow, and
    B. P. Pritchard
    -----------------------------------------------------------------------


    Psi4 started on: Tue Feb 21 18:01:58 2017

    Process ID:  34413
    PSI4DATADIR: /Users/sternc1/anaconda/share/psi4
    Memory level set to 256.000 MB

  ==> Input File <==

--------------------------------------------------------------------------

memory 1000 mb

molecule butane {
  symmetry C1
  0 1 
  H      1.604   0.760   -8.260
  H      1.745   2.388   -8.880
  H      2.043   1.024   -9.930
  C      2.142   1.395   -8.932
  H      4.169   2.051   -9.210
  H      3.731   1.788   -7.539
  C      3.631   1.416   -8.537
  H      3.428   -0.718   -8.400
  H      4.589   -0.191   -9.593
  C      4.203   -0.012   -8.612
  H      5.732   -1.159   -7.632
  H      4.949   0.011   -6.598
  H      6.111   0.539   -7.791
  C      5.335   -0.167   -7.580
  units Angstrom
}

dih_string = "4 7 10 14 210"
set optking fixed_dihedral = $dih_string

optimize('B3LYP/cc-PVDZ')
--------------------------------------------------------------------------

  Memory set to 1000.000 MiB by Python script.
gradient() will perform analytic gradient computation.

*** tstart() called on lski1497
*** at Tue Feb 21 18:02:00 2017


         ---------------------------------------------------------
                                   SCF
            by Justin Turney, Rob Parrish, and Andy Simmonett
                              RKS Reference
                        1 Threads,   1000 MiB Core
         ---------------------------------------------------------

  ==> Geometry <==

    Molecular point group: c1
    Full point group: C1

    Geometry (in Angstrom), charge = 0, multiplicity = 1:

       Center              X                  Y                   Z               Mass       
    ------------   -----------------  -----------------  -----------------  -----------------
           H         -2.220687216304     0.103509700745     0.149705754160     1.007825032070
           H         -2.079687216304     1.731509700745    -0.470294245840     1.007825032070
           H         -1.781687216304     0.367509700745    -1.520294245840     1.007825032070
           C         -1.682687216304     0.738509700745    -0.522294245840    12.000000000000
           H          0.344312783696     1.394509700745    -0.800294245840     1.007825032070
           H         -0.093687216304     1.131509700745     0.870705754160     1.007825032070
           C         -0.193687216304     0.759509700745    -0.127294245840    12.000000000000
           H         -0.396687216304    -1.374490299255     0.009705754160     1.007825032070
           H          0.764312783696    -0.847490299255    -1.183294245840     1.007825032070
           C          0.378312783696    -0.668490299255    -0.202294245840    12.000000000000
           H          1.907312783696    -1.815490299255     0.777705754160     1.007825032070
           H          1.124312783696    -0.645490299255     1.811705754160     1.007825032070
           H          2.286312783696    -0.117490299255     0.618705754160     1.007825032070
           C          1.510312783696    -0.823490299255     0.829705754160    12.000000000000

  Running in c1 symmetry.

  Rotational constants: A =      0.71027  B =      0.12637  C =      0.11998 [cm^-1]
  Rotational constants: A =  21293.24900  B =   3788.42860  C =   3596.97450 [MHz]
  Nuclear repulsion =  132.015012572198884

  Charge       = 0
  Multiplicity = 1
  Electrons    = 34
  Nalpha       = 17
  Nbeta        = 17

  ==> Algorithm <==

  SCF Algorithm Type is DF.
  DIIS enabled.
  MOM disabled.
  Fractional occupation disabled.
  Guess Type is SAD.
  Energy threshold   = 1.00e-08
  Density threshold  = 1.00e-08
  Integral threshold = 0.00e+00

  ==> Primary Basis <==

  Basis Set: CC-PVDZ
    Number of shells: 54
    Number of basis function: 106
    Number of Cartesian functions: 110
    Spherical Harmonics?: true
    Max angular momentum: 2

  ==> DFT Potential <==

   => B3LYP Composite Functional <= 

    B3LYP Hybrid-GGA Exchange-Correlation Functional (VWN1-RPA)

    P.J. Stephens et. al., J. Phys. Chem., 98, 11623-11627, 1994

    Points   =           5000
    Deriv    =              1
    GGA      =           TRUE
    Meta     =          FALSE

    X_LRC        =          FALSE
    X_Hybrid     =           TRUE
    X_Alpha      =   2.000000E-01
    X_Omega      =   0.000000E+00
    C_LRC        =          FALSE
    C_Hybrid     =          FALSE
    C_Alpha      =   0.000000E+00
    C_Omega      =   0.000000E+00

   => Exchange Functionals <=

    0.8000    B3_X
    0.2000      HF 

   => Correlation Functionals <=

    0.1900 VWN3RPA_C
    0.8100   LYP_C

   => Molecular Quadrature <=

    Radial Scheme    =       TREUTLER
    Pruning Scheme   =           FLAT
    Nuclear Scheme   =       TREUTLER

    BS radius alpha  =              1
    Pruning alpha    =              1
    Radial Points    =             75
    Spherical Points =            302
    Total Points     =         312746
    Total Blocks     =            269
    Max Points       =           4928
    Max Functions    =            106

  ==> Pre-Iterations <==

   -------------------------------------------------------
    Irrep   Nso     Nmo     Nalpha   Nbeta   Ndocc  Nsocc
   -------------------------------------------------------
     A        106     106       0       0       0       0
   -------------------------------------------------------
    Total     106     106      17      17      17       0
   -------------------------------------------------------

  ==> Integral Setup <==

  ==> DFJK: Density-Fitted J/K Matrices <==

    J tasked:                  Yes
    K tasked:                  Yes
    wK tasked:                  No
    OpenMP threads:              1
    Integrals threads:           1
    Memory (MB):               715
    Algorithm:                Core
    Integral Cache:           NONE
    Schwarz Cutoff:          1E-12
    Fitting Condition:       1E-12

   => Auxiliary Basis Set <=

  Basis Set: 
    Number of shells: 186
    Number of basis function: 510
    Number of Cartesian functions: 574
    Spherical Harmonics?: true
    Max angular momentum: 3

  Minimum eigenvalue in the overlap matrix is 4.0400523960E-03.
  Using Symmetric Orthogonalization.
  SCF Guess: Superposition of Atomic Densities via on-the-fly atomic UHF.

  ==> Iterations <==

                           Total Energy        Delta E     RMS |[F,P]|

   @DF-RKS iter   0:  -159.06510628836122   -1.59065e+02   3.40866e-02 
   @DF-RKS iter   1:  -158.31106135677089    7.54045e-01   4.55263e-03 
   @DF-RKS iter   2:  -158.27568732647364    3.53740e-02   5.24215e-03 DIIS
   @DF-RKS iter   3:  -158.44568750148539   -1.70000e-01   3.54351e-04 DIIS
   @DF-RKS iter   4:  -158.44636014312087   -6.72642e-04   1.27533e-04 DIIS
   @DF-RKS iter   5:  -158.44644235404834   -8.22109e-05   4.38304e-05 DIIS
   @DF-RKS iter   6:  -158.44645297597862   -1.06219e-05   4.07282e-06 DIIS
   @DF-RKS iter   7:  -158.44645307385414   -9.78755e-08   8.40212e-07 DIIS
   @DF-RKS iter   8:  -158.44645307840679   -4.55265e-09   1.37383e-07 DIIS
   @DF-RKS iter   9:  -158.44645307852730   -1.20508e-10   3.04380e-08 DIIS
   @DF-RKS iter  10:  -158.44645307853270   -5.40012e-12   6.64368e-09 DIIS

  ==> Post-Iterations <==

    Orbital Energies (a.u.)
    -----------------------

    Doubly Occupied:                                                      

       1A    -10.169479     2A    -10.169246     3A    -10.164153  
       4A    -10.164091     5A     -0.794492     6A     -0.723474  
       7A     -0.630284     8A     -0.579738     9A     -0.472148  
      10A     -0.425706    11A     -0.425617    12A     -0.404628  
      13A     -0.366309    14A     -0.358286    15A     -0.330284  
      16A     -0.328506    17A     -0.309448  

    Virtual:                                                              

      18A      0.064148    19A      0.087949    20A      0.102966  
      21A      0.109112    22A      0.143639    23A      0.149403  
      24A      0.154411    25A      0.163197    26A      0.163618  
      27A      0.167321    28A      0.228477    29A      0.242841  
      30A      0.249100    31A      0.405642    32A      0.415819  
      33A      0.431755    34A      0.433443    35A      0.461779  
      36A      0.497116    37A      0.509019    38A      0.584528  
      39A      0.601251    40A      0.644354    41A      0.664647  
      42A      0.665515    43A      0.667097    44A      0.680130  
      45A      0.681192    46A      0.685025    47A      0.692182  
      48A      0.702444    49A      0.715513    50A      0.736637  
      51A      0.748277    52A      0.752999    53A      0.882033  
      54A      0.894358    55A      0.974962    56A      1.111429  
      57A      1.161023    58A      1.199786    59A      1.241326  
      60A      1.275786    61A      1.300213    62A      1.345617  
      63A      1.436309    64A      1.441164    65A      1.486701  
      66A      1.504674    67A      1.550988    68A      1.596939  
      69A      1.601485    70A      1.642433    71A      1.652457  
      72A      1.666028    73A      1.675997    74A      1.693979  
      75A      1.701916    76A      1.725891    77A      1.735568  
      78A      1.740010    79A      1.751327    80A      1.766320  
      81A      1.799591    82A      1.800678    83A      1.896263  
      84A      1.935974    85A      1.978745    86A      2.002807  
      87A      2.008461    88A      2.062535    89A      2.081688  
      90A      2.209012    91A      2.225659    92A      2.250462  
      93A      2.277389    94A      2.323019    95A      2.345846  
      96A      2.362258    97A      2.506352    98A      2.507512  
      99A      2.512846   100A      2.531528   101A      2.552021  
     102A      2.591515   103A      2.611188   104A      2.652922  
     105A      2.719799   106A      2.749670  

    Final Occupation by Irrep:
              A 
    DOCC [    17 ]

  Energy converged.

  @DF-RKS Final Energy:  -158.44645307853270

   => Energetics <=

    Nuclear Repulsion Energy =            132.0150125721988843
    One-Electron Energy =                -472.4256631442335674
    Two-Electron Energy =                 202.6445635593897237
    DFT Exchange-Correlation Energy =     -20.6803660658877391
    Empirical Dispersion Energy =           0.0000000000000000
    PCM Polarization Energy =               0.0000000000000000
    EFP Energy =                            0.0000000000000000
    Total Energy =                       -158.4464530785326986


  Saving occupied orbitals to File 180.

*** tstop() called on lski1497 at Tue Feb 21 18:04:03 2017
Module time:
	user time   =     107.18 seconds =       1.79 minutes
	system time =       1.31 seconds =       0.02 minutes
	total time  =        123 seconds =       2.05 minutes
Total time:
	user time   =     107.18 seconds =       1.79 minutes
	system time =       1.31 seconds =       0.02 minutes
	total time  =        123 seconds =       2.05 minutes


Properties will be evaluated at   0.000000,   0.000000,   0.000000 Bohr

Properties computed using the SCF density matrix

  Nuclear Dipole Moment: (a.u.)
     X:    -0.1368      Y:    -0.0674      Z:     0.2475

  Electronic Dipole Moment: (a.u.)
     X:     0.1463      Y:     0.0715      Z:    -0.2650

  Dipole Moment: (a.u.)
     X:     0.0096      Y:     0.0041      Z:    -0.0175     Total:     0.0204

  Dipole Moment: (Debye)
     X:     0.0244      Y:     0.0105      Z:    -0.0444     Total:     0.0517


*** tstart() called on lski1497
*** at Tue Feb 21 18:04:03 2017


         ------------------------------------------------------------
                                   SCF GRAD                          
                          Rob Parrish, Justin Turney,                
                       Andy Simmonett, and Alex Sokolov              
         ------------------------------------------------------------

  ==> Geometry <==

    Molecular point group: c1
    Full point group: C1

    Geometry (in Angstrom), charge = 0, multiplicity = 1:

       Center              X                  Y                   Z               Mass       
    ------------   -----------------  -----------------  -----------------  -----------------
           H         -2.220687216304     0.103509700745     0.149705754160     1.007825032070
           H         -2.079687216304     1.731509700745    -0.470294245840     1.007825032070
           H         -1.781687216304     0.367509700745    -1.520294245840     1.007825032070
           C         -1.682687216304     0.738509700745    -0.522294245840    12.000000000000
           H          0.344312783696     1.394509700745    -0.800294245840     1.007825032070
           H         -0.093687216304     1.131509700745     0.870705754160     1.007825032070
           C         -0.193687216304     0.759509700745    -0.127294245840    12.000000000000
           H         -0.396687216304    -1.374490299255     0.009705754160     1.007825032070
           H          0.764312783696    -0.847490299255    -1.183294245840     1.007825032070
           C          0.378312783696    -0.668490299255    -0.202294245840    12.000000000000
           H          1.907312783696    -1.815490299255     0.777705754160     1.007825032070
           H          1.124312783696    -0.645490299255     1.811705754160     1.007825032070
           H          2.286312783696    -0.117490299255     0.618705754160     1.007825032070
           C          1.510312783696    -0.823490299255     0.829705754160    12.000000000000

  Nuclear repulsion =  132.015012572198884

  ==> Basis Set <==

  Basis Set: CC-PVDZ
    Number of shells: 54
    Number of basis function: 106
    Number of Cartesian functions: 110
    Spherical Harmonics?: true
    Max angular momentum: 2

  ==> DFJKGrad: Density-Fitted SCF Gradients <==

    Gradient:                    1
    J tasked:                  Yes
    K tasked:                  Yes
    wK tasked:                  No
    OpenMP threads:              1
    Integrals threads:           1
    Memory (MB):               715
    Schwarz Cutoff:          0E+00
    Fitting Condition:       1E-12

   => Auxiliary Basis Set <=

  Basis Set: 
    Number of shells: 186
    Number of basis function: 510
    Number of Cartesian functions: 574
    Spherical Harmonics?: true
    Max angular momentum: 3

  ==> DFT Potential <==

   => B3LYP Composite Functional <= 

    B3LYP Hybrid-GGA Exchange-Correlation Functional (VWN1-RPA)

    P.J. Stephens et. al., J. Phys. Chem., 98, 11623-11627, 1994

    Points   =           5000
    Deriv    =              1
    GGA      =           TRUE
    Meta     =          FALSE

    X_LRC        =          FALSE
    X_Hybrid     =           TRUE
    X_Alpha      =   2.000000E-01
    X_Omega      =   0.000000E+00
    C_LRC        =          FALSE
    C_Hybrid     =          FALSE
    C_Alpha      =   0.000000E+00
    C_Omega      =   0.000000E+00

   => Exchange Functionals <=

    0.8000    B3_X
    0.2000      HF 

   => Correlation Functionals <=

    0.1900 VWN3RPA_C
    0.8100   LYP_C

   => Molecular Quadrature <=

    Radial Scheme    =       TREUTLER
    Pruning Scheme   =           FLAT
    Nuclear Scheme   =       TREUTLER

    BS radius alpha  =              1
    Pruning alpha    =              1
    Radial Points    =             75
    Spherical Points =            302
    Total Points     =         312746
    Total Blocks     =            269
    Max Points       =           4928
    Max Functions    =            106


  -Total Gradient:
     Atom            X                  Y                   Z
    ------   -----------------  -----------------  -----------------
       1        0.013962591707     0.012769055326    -0.012718013145
       2        0.012768481350    -0.018988858137     0.000659579688
       3        0.005545748675     0.007916514773     0.021326690367
       4       -0.029556452223    -0.009666528464    -0.007928628861
       5       -0.012741825143    -0.016173611315     0.010720061629
       6       -0.002780098254    -0.010159949027    -0.020646008759
       7        0.024993868334     0.030779349977     0.014508224839
       8        0.016050625905     0.016718892723    -0.002839961094
       9       -0.005449906552     0.007330914166     0.022155085435
      10       -0.018073655641    -0.027758240119    -0.026449668809
      11       -0.012088113782     0.020121855550    -0.002354859931
      12        0.005325911271    -0.003178058508    -0.021698200591
      13       -0.018024576308    -0.013896991286     0.001724272037
      14        0.020069773716     0.004186864279     0.023537249966


*** tstop() called on lski1497 at Tue Feb 21 18:04:45 2017
Module time:
	user time   =      37.74 seconds =       0.63 minutes
	system time =       0.59 seconds =       0.01 minutes
	total time  =         42 seconds =       0.70 minutes
Total time:
	user time   =     144.95 seconds =       2.42 minutes
	system time =       1.90 seconds =       0.03 minutes
	total time  =        165 seconds =       2.75 minutes

			-----------------------------------------
			 OPTKING 2.0: for geometry optimizations 
			  - R.A. King,  Bethel University        
			-----------------------------------------

	Internal coordinates to be generated automatically.
	Detected frag 1 with atoms:  1 2 3 4 5 6 7 8 9 10 11 12 13 14
	---Fragment 1 Bond Connectivity---
	 1 : 4
	 2 : 4
	 3 : 4
	 4 : 1 2 3 7
	 5 : 7
	 6 : 7
	 7 : 4 5 6 10
	 8 : 10
	 9 : 10
	 10 : 7 8 9 14
	 11 : 14
	 12 : 14
	 13 : 14
	 14 : 10 11 12 13

	Assuming in current code that numbering for constraints corresponds to unified fragment.
	Fixed dihedral atom list: 
	     4     7    10    14
	---Fragment 1 Geometry and Gradient---
	 H          -4.1964906656        0.1956049865        0.2829028759
	 H          -3.9300392809        3.2720791308       -0.8887273265
	 H          -3.3669008933        0.6944926856       -2.8729397660
	 C          -3.1798180061        1.3955810809       -0.9869930854
	 H           0.6506568652        2.6352414241       -1.5123369504
	 H          -0.1770431810        2.1382434511        1.6453954177
	 C          -0.3660157943        1.4352653297       -0.2405512629
	 H          -0.7496301992       -2.5974102379        0.0183412173
	 H           1.4443418410       -1.6015245659       -2.2361020593
	 C           0.7149075538       -1.2632635881       -0.3822807229
	 H           3.6042988109       -3.4307794625        1.4696508873
	 H           2.1246432489       -1.2197998870        3.4236277087
	 H           4.3205050153       -0.2220244889        1.1691844322
	 C           2.8540775362       -1.5561711387        1.5679166462
	             0.0139625917        0.0127690553       -0.0127180131
	             0.0127684814       -0.0189888581        0.0006595797
	             0.0055457487        0.0079165148        0.0213266904
	            -0.0295564522       -0.0096665285       -0.0079286289
	            -0.0127418251       -0.0161736113        0.0107200616
	            -0.0027800983       -0.0101599490       -0.0206460088
	             0.0249938683        0.0307793500        0.0145082248
	             0.0160506259        0.0167188927       -0.0028399611
	            -0.0054499066        0.0073309142        0.0221550854
	            -0.0180736556       -0.0277582401       -0.0264496688
	            -0.0120881138        0.0201218555       -0.0023548599
	             0.0053259113       -0.0031780585       -0.0216982006
	            -0.0180245763       -0.0138969913        0.0017242720
	             0.0200697737        0.0041868643        0.0235372500

	Previous optimization step data not found.  Starting new optimization.

	---Fragment 1 Intrafragment Coordinates---
	 - Coordinate -           - BOHR/RAD -       - ANG/DEG -
	 R(1,4)           =         2.021436	       1.069698
	 R(2,4)           =         2.023298	       1.070683
	 R(3,4)           =         2.020723	       1.069320
	 R(4,7)           =         2.911397	       1.540645
	 R(5,7)           =         2.022623	       1.070326
	 R(6,7)           =         2.021555	       1.069761
	 R(7,10)          =         2.910419	       1.540128
	 R(8,10)          =         2.021216	       1.069582
	 R(9,10)          =         2.020680	       1.069298
	 R(10,14)         =         2.909487	       1.539634
	 R(11,14)         =         2.021545	       1.069756
	 R(12,14)         =         2.022099	       1.070049
	 R(13,14)         =         2.022213	       1.070109
	 B(1,4,2)         =         1.910870	     109.484805
	 B(1,4,3)         =         1.911121	     109.499161
	 B(1,4,7)         =         1.910399	     109.457783
	 B(2,4,3)         =         1.910042	     109.437340
	 B(2,4,7)         =         1.910564	     109.467262
	 B(3,4,7)         =         1.910803	     109.480971
	 B(4,7,5)         =         1.909937	     109.431343
	 B(4,7,6)         =         1.911630	     109.528316
	 B(4,7,10)        =         1.911154	     109.501062
	 B(5,7,6)         =         1.910605	     109.469614
	 B(5,7,10)        =         1.910047	     109.437654
	 B(6,7,10)        =         1.910425	     109.459295
	 B(7,10,8)        =         1.910550	     109.466446
	 B(7,10,9)        =         1.911295	     109.509133
	 B(7,10,14)       =         1.911095	     109.497698
	 B(8,10,9)        =         1.910183	     109.445408
	 B(8,10,14)       =         1.910739	     109.477293
	 B(9,10,14)       =         1.909937	     109.431329
	 B(10,14,11)      =         1.910948	     109.489275
	 B(10,14,12)      =         1.910454	     109.460926
	 B(10,14,13)      =         1.911958	     109.547148
	 B(11,14,12)      =         1.910002	     109.435045
	 B(11,14,13)      =         1.910377	     109.456517
	 B(12,14,13)      =         1.910059	     109.438346
	 D(1,4,7,5)       =         3.140997	     179.965873
	 D(1,4,7,6)       =        -1.047644	     -60.025575
	 D(1,4,7,10)      =         1.047427	      60.013132
	 D(2,4,7,5)       =        -1.047689	     -60.028143
	 D(2,4,7,6)       =         1.046856	      59.980409
	 D(2,4,7,10)      =        -3.141259	    -179.980883
	 D(3,4,7,5)       =         1.046044	      59.933911
	 D(3,4,7,6)       =         3.140588	     179.942463
	 D(3,4,7,10)      =        -1.047526	     -60.018830
	 D(4,7,10,8)      =        -0.523509	     -29.994864
	 D(4,7,10,9)      =         1.570688	      89.993813
	 D(4,7,10,14)     =        -2.618266	    -150.015596
	 D(5,7,10,8)      =        -2.617012	    -149.943739
	 D(5,7,10,9)      =        -0.522814	     -29.955062
	 D(5,7,10,14)     =         1.571416	      90.035529
	 D(6,7,10,8)      =         1.572298	      90.086062
	 D(6,7,10,9)      =        -2.616689	    -149.925261
	 D(6,7,10,14)     =        -0.522459	     -29.934670
	 D(7,10,14,11)    =         3.141290	     179.982653
	 D(7,10,14,12)    =         1.047585	      60.022208
	 D(7,10,14,13)    =        -1.046809	     -59.977723
	 D(8,10,14,11)    =         1.046649	      59.968559
	 D(8,10,14,12)    =        -1.047056	     -59.991886
	 D(8,10,14,13)    =        -3.141450	    -179.991818
	 D(9,10,14,11)    =        -1.046833	     -59.979141
	 D(9,10,14,12)    =        -3.140538	    -179.939586
	 D(9,10,14,13)    =         1.048253	      60.060482

	Current energy   :      -158.4464530785

	Generating empirical Hessian (Schlegel '84) for each fragment.
	Adding user-defined constraint: Fragment 1; Coordinate 49:
		Value =    -2.618266; Fixed value    =    -2.617994
		Force =     0.000136; Force constant =     0.500000
	Removing off-diagonal coupling between coordinate 49 and others.
	Taking RFO optimization step.
	Going to follow RFO solution 1.
	Using RFO vector 1.

	Determining step-restricting scale parameter for RS-RFO.
	Maximum step size allowed    0.10000

	 Iter      |step|        alpha        rfo_root  
	------------------------------------------------
	    0     0.26438       1.00000           1
	    1     0.19617       5.62928           1
	    2     0.14515      18.35358           1
	    3     0.11535      37.71701           1
	    4     0.10275      52.36631           1
	    5     0.10012      56.23057           1
	    6     0.10000      56.40848           1
	------------------------------------------------
	Norm of target step-size    0.10000
	Projected energy change by RFO approximation:        -0.0074294794

	Back-transformation to cartesian coordinates...
	Could not converge backtransformation.
	Using first guess instead.

	--- Internal Coordinate Step in ANG or DEG, aJ/ANG or AJ/DEG ---
	 ---------------------------------------------------------------------------
	   Coordinate                Previous        Force       Change         New 
	   ----------                --------       ------       ------       ------
	    1 R(1,4)          =      1.069698     0.186123     0.014897     1.084594
	    2 R(2,4)          =      1.070683     0.183843     0.014697     1.085380
	    3 R(3,4)          =      1.069320     0.190839     0.015238     1.084558
	    4 R(4,7)          =      1.540645     0.023577     0.002150     1.542795
	    5 R(5,7)          =      1.070326     0.187358     0.014957     1.085283
	    6 R(6,7)          =      1.069761     0.189936     0.015162     1.084922
	    7 R(7,10)         =      1.540128     0.061882     0.005658     1.545785
	    8 R(8,10)         =      1.069582     0.191375     0.015272     1.084853
	    9 R(9,10)         =      1.069298     0.193780     0.015445     1.084743
	   10 R(10,14)        =      1.539634     0.027881     0.002533     1.542168
	   11 R(11,14)        =      1.069756     0.189753     0.015147     1.084903
	   12 R(12,14)        =      1.070049     0.184233     0.014754     1.084803
	   13 R(13,14)        =      1.070109     0.186018     0.014871     1.084979
	   14 B(1,4,2)        =    109.484805    -0.000310    -0.387163   109.097642
	   15 B(1,4,3)        =    109.499161    -0.000251    -0.326645   109.172516
	   16 B(1,4,7)        =    109.457783     0.000190     0.232714   109.690497
	   17 B(2,4,3)        =    109.437340    -0.000329    -0.408759   109.028582
	   18 B(2,4,7)        =    109.467262     0.000466     0.593647   110.060909
	   19 B(3,4,7)        =    109.480971     0.000234     0.288741   109.769712
	   20 B(4,7,5)        =    109.431343    -0.000255    -0.273401   109.157942
	   21 B(4,7,6)        =    109.528316    -0.000237    -0.273163   109.255153
	   22 B(4,7,10)       =    109.501062     0.000917     1.085093   110.586155
	   23 B(5,7,6)        =    109.469614     0.000003    -0.087200   109.382413
	   24 B(5,7,10)       =    109.437654    -0.000208    -0.218549   109.219105
	   25 B(6,7,10)       =    109.459295    -0.000220    -0.237012   109.222283
	   26 B(7,10,8)       =    109.466446    -0.000222    -0.239749   109.226697
	   27 B(7,10,9)       =    109.509133    -0.000217    -0.230439   109.278694
	   28 B(7,10,14)      =    109.497698     0.000922     1.090136   110.587834
	   29 B(8,10,9)       =    109.445408     0.000005    -0.084323   109.361086
	   30 B(8,10,14)      =    109.477293    -0.000235    -0.269393   109.207900
	   31 B(9,10,14)      =    109.431329    -0.000254    -0.270854   109.160475
	   32 B(10,14,11)     =    109.489275     0.000466     0.592950   110.082225
	   33 B(10,14,12)     =    109.460926     0.000190     0.233219   109.694146
	   34 B(10,14,13)     =    109.547148     0.000225     0.277841   109.824989
	   35 B(11,14,12)     =    109.435045    -0.000307    -0.382374   109.052671
	   36 B(11,14,13)     =    109.456517    -0.000329    -0.409459   109.047059
	   37 B(12,14,13)     =    109.438346    -0.000246    -0.320837   109.117509
	   38 D(1,4,7,5)      =    179.965873     0.000031     0.200598   180.166471
	   39 D(1,4,7,6)      =    -60.025575    -0.000037    -0.236758   -60.262333
	   40 D(1,4,7,10)     =     60.013132    -0.000003    -0.028113    59.985020
	   41 D(2,4,7,5)      =    -60.028143     0.000036     0.236079   -59.792063
	   42 D(2,4,7,6)      =     59.980409    -0.000032    -0.201277    59.779132
	   43 D(2,4,7,10)     =   -179.980883     0.000002     0.007368  -179.973515
	   44 D(3,4,7,5)      =     59.933911     0.000042     0.280056    60.213967
	   45 D(3,4,7,6)      =    179.942463    -0.000026    -0.157300   179.785163
	   46 D(3,4,7,10)     =    -60.018830     0.000008     0.051345   -59.967485
	   47 D(4,7,10,8)     =    -29.994864     0.000016     0.106161   -29.888703
	   48 D(4,7,10,9)     =     89.993813    -0.000044    -0.281954    89.711859
	   49 D(4,7,10,14)    =   -150.015596    -0.000017    -0.085562  -150.101158
	   50 D(5,7,10,8)     =   -149.943739    -0.000012    -0.089789  -150.033528
	   51 D(5,7,10,9)     =    -29.955062    -0.000072    -0.477903   -30.432966
	   52 D(5,7,10,14)    =     90.035529    -0.000044    -0.281511    89.754017
	   53 D(6,7,10,8)     =     90.086062     0.000047     0.292253    90.378315
	   54 D(6,7,10,9)     =   -149.925261    -0.000013    -0.095862  -150.021123
	   55 D(6,7,10,14)    =    -29.934670     0.000015     0.100530   -29.834140
	   56 D(7,10,14,11)   =    179.982653     0.000003     0.014642   179.997295
	   57 D(7,10,14,12)   =     60.022208    -0.000003    -0.026477    59.995731
	   58 D(7,10,14,13)   =    -59.977723     0.000008     0.052086   -59.925637
	   59 D(8,10,14,11)   =     59.968559    -0.000031    -0.194969    59.773591
	   60 D(8,10,14,12)   =    -59.991886    -0.000037    -0.236087   -60.227973
	   61 D(8,10,14,13)   =   -179.991818    -0.000026    -0.157524  -180.149342
	   62 D(9,10,14,11)   =    -59.979141     0.000036     0.234168   -59.744973
	   63 D(9,10,14,12)   =   -179.939586     0.000030     0.193049  -179.746537
	   64 D(9,10,14,13)   =     60.060482     0.000041     0.271612    60.332094
	 ---------------------------------------------------------------------------
	 Forces used to impose fixed constraints are not included.
	  Forces zeroed: 49 

  ==> Convergence Check <==

  Measures of convergence in internal coordinates in au.
  Criteria marked as inactive (o), active & met (*), and active & unmet ( ).
  --------------------------------------------------------------------------------------------- ~
   Step     Total Energy     Delta E     MAX Force     RMS Force      MAX Disp      RMS Disp    ~
  --------------------------------------------------------------------------------------------- ~
    Convergence Criteria    1.00e-06 *    3.00e-04 *             o    1.20e-03 *             o  ~
  --------------------------------------------------------------------------------------------- ~
      1    -158.44645308   -1.58e+02      2.35e-02      9.64e-03 o    2.92e-02      1.25e-02 o  ~
  ---------------------------------------------------------------------------------------------

	Writing optimization data to binary file.
	Structure for next step:
	Cartesian Geometry (in Angstrom)
	    H    -2.2485999448   0.1103267994   0.1513537897
	    H    -2.0989613120   1.7547994798  -0.4795357370
	    H    -1.8020628824   0.3722838239  -1.5389786521
	    C    -1.6940839234   0.7489125854  -0.5276638348
	    H     0.3426499505   1.4023434769  -0.8136155923
	    H    -0.1044983111   1.1404557667   0.8798700047
	    C    -0.2031939155   0.7589969796  -0.1309737644
	    H    -0.3964531485  -1.3883284617   0.0189109217
	    H     0.7776142695  -0.8493578417  -1.1914230333
	    C     0.3862206367  -0.6685213945  -0.1960454530
	    H     1.9308187869  -1.8372158315   0.7799899805
	    H     1.1401201098  -0.6583909211   1.8322974754
	    H     2.3134503269  -0.1190556696   0.6250960882
	    C     1.5233583292  -0.8331129812   0.8325983649
			--------------------------
			 OPTKING Finished Execution 
			--------------------------

    Structure for next step:
    Molecular point group: c1
    Full point group: C1

    Geometry (in Angstrom), charge = 0, multiplicity = 1:

    H           -2.248609406557     0.110282059740     0.151336321345
    H           -2.098970773829     1.754754740195    -0.479553205387
    H           -1.802072344172     0.372239084326    -1.538996120471
    C           -1.694093385176     0.748867845751    -0.527681303151
    H            0.342640488738     1.402298737288    -0.813633060733
    H           -0.104507772903     1.140411027084     0.879852536288
    C           -0.203203377253     0.758952239964    -0.130991232849
    H           -0.396462610275    -1.388373201338     0.018893453348
    H            0.777604807678    -0.849402581287    -1.191440501704
    C            0.386211174964    -0.668566134129    -0.196062921391
    H            1.930809325085    -1.837260571075     0.779972512051
    H            1.140110647987    -0.658435660714     1.832280007031
    H            2.313440865154    -0.119100409183     0.625078619813
    C            1.523348867384    -0.833157720852     0.832580896458

gradient() will perform analytic gradient computation.

*** tstart() called on lski1497
*** at Tue Feb 21 18:04:46 2017


         ---------------------------------------------------------
                                   SCF
            by Justin Turney, Rob Parrish, and Andy Simmonett
                              RKS Reference
                        1 Threads,   1000 MiB Core
         ---------------------------------------------------------

  ==> Geometry <==

    Molecular point group: c1
    Full point group: C1

    Geometry (in Angstrom), charge = 0, multiplicity = 1:

       Center              X                  Y                   Z               Mass       
    ------------   -----------------  -----------------  -----------------  -----------------
           H         -2.248609406557     0.110282059740     0.151336321345     1.007825032070
           H         -2.098970773829     1.754754740195    -0.479553205387     1.007825032070
           H         -1.802072344172     0.372239084326    -1.538996120471     1.007825032070
           C         -1.694093385176     0.748867845751    -0.527681303151    12.000000000000
           H          0.342640488738     1.402298737288    -0.813633060733     1.007825032070
           H         -0.104507772903     1.140411027084     0.879852536288     1.007825032070
           C         -0.203203377253     0.758952239964    -0.130991232849    12.000000000000
           H         -0.396462610275    -1.388373201338     0.018893453348     1.007825032070
           H          0.777604807678    -0.849402581287    -1.191440501704     1.007825032070
           C          0.386211174964    -0.668566134129    -0.196062921391    12.000000000000
           H          1.930809325085    -1.837260571075     0.779972512051     1.007825032070
           H          1.140110647987    -0.658435660714     1.832280007031     1.007825032070
           H          2.313440865154    -0.119100409183     0.625078619813     1.007825032070
           C          1.523348867384    -0.833157720852     0.832580896458    12.000000000000

  Running in c1 symmetry.

  Rotational constants: A =      0.70754  B =      0.12395  C =      0.11794 [cm^-1]
  Rotational constants: A =  21211.53402  B =   3715.96034  C =   3535.67165 [MHz]
  Nuclear repulsion =  130.935317492755388

  Charge       = 0
  Multiplicity = 1
  Electrons    = 34
  Nalpha       = 17
  Nbeta        = 17

  ==> Algorithm <==

  SCF Algorithm Type is DF.
  DIIS enabled.
  MOM disabled.
  Fractional occupation disabled.
  Guess Type is READ.
  Energy threshold   = 1.00e-08
  Density threshold  = 1.00e-08
  Integral threshold = 0.00e+00

  ==> Primary Basis <==

  Basis Set: CC-PVDZ
    Number of shells: 54
    Number of basis function: 106
    Number of Cartesian functions: 110
    Spherical Harmonics?: true
    Max angular momentum: 2

  ==> DFT Potential <==

   => B3LYP Composite Functional <= 

    B3LYP Hybrid-GGA Exchange-Correlation Functional (VWN1-RPA)

    P.J. Stephens et. al., J. Phys. Chem., 98, 11623-11627, 1994

    Points   =           5000
    Deriv    =              1
    GGA      =           TRUE
    Meta     =          FALSE

    X_LRC        =          FALSE
    X_Hybrid     =           TRUE
    X_Alpha      =   2.000000E-01
    X_Omega      =   0.000000E+00
    C_LRC        =          FALSE
    C_Hybrid     =          FALSE
    C_Alpha      =   0.000000E+00
    C_Omega      =   0.000000E+00

   => Exchange Functionals <=

    0.8000    B3_X
    0.2000      HF 

   => Correlation Functionals <=

    0.1900 VWN3RPA_C
    0.8100   LYP_C

   => Molecular Quadrature <=

    Radial Scheme    =       TREUTLER
    Pruning Scheme   =           FLAT
    Nuclear Scheme   =       TREUTLER

    BS radius alpha  =              1
    Pruning alpha    =              1
    Radial Points    =             75
    Spherical Points =            302
    Total Points     =         312776
    Total Blocks     =            270
    Max Points       =           4884
    Max Functions    =            106

  ==> Pre-Iterations <==

   -------------------------------------------------------
    Irrep   Nso     Nmo     Nalpha   Nbeta   Ndocc  Nsocc
   -------------------------------------------------------
     A        106     106       0       0       0       0
   -------------------------------------------------------
    Total     106     106      17      17      17       0
   -------------------------------------------------------

  ==> Integral Setup <==

  ==> DFJK: Density-Fitted J/K Matrices <==

    J tasked:                  Yes
    K tasked:                  Yes
    wK tasked:                  No
    OpenMP threads:              1
    Integrals threads:           1
    Memory (MB):               715
    Algorithm:                Core
    Integral Cache:           NONE
    Schwarz Cutoff:          1E-12
    Fitting Condition:       1E-12

   => Auxiliary Basis Set <=

  Basis Set: 
    Number of shells: 186
    Number of basis function: 510
    Number of Cartesian functions: 574
    Spherical Harmonics?: true
    Max angular momentum: 3

  Minimum eigenvalue in the overlap matrix is 4.1154187089E-03.
  Using Symmetric Orthogonalization.
  SCF Guess was Projection but file not found.
  Switching over to SAD guess.

  SCF Guess: Superposition of Atomic Densities via on-the-fly atomic UHF.

  ==> Iterations <==

                           Total Energy        Delta E     RMS |[F,P]|

   @DF-RKS iter   0:  -158.99417416849602   -1.58994e+02   3.32496e-02 
   @DF-RKS iter   1:  -158.32311926585356    6.71055e-01   4.43023e-03 
   @DF-RKS iter   2:  -158.28509232011672    3.80269e-02   5.16812e-03 DIIS
   @DF-RKS iter   3:  -158.45160711276412   -1.66515e-01   3.48191e-04 DIIS
   @DF-RKS iter   4:  -158.45226685957937   -6.59747e-04   1.24025e-04 DIIS
   @DF-RKS iter   5:  -158.45234420143029   -7.73419e-05   4.46675e-05 DIIS
   @DF-RKS iter   6:  -158.45235528572886   -1.10843e-05   4.07819e-06 DIIS
   @DF-RKS iter   7:  -158.45235538441827   -9.86894e-08   8.30659e-07 DIIS
   @DF-RKS iter   8:  -158.45235538890762   -4.48935e-09   1.40859e-07 DIIS
   @DF-RKS iter   9:  -158.45235538903549   -1.27869e-10   3.08187e-08 DIIS
   @DF-RKS iter  10:  -158.45235538904197   -6.48015e-12   6.40175e-09 DIIS

  ==> Post-Iterations <==

    Orbital Energies (a.u.)
    -----------------------

    Doubly Occupied:                                                      

       1A    -10.174372     2A    -10.174192     3A    -10.169645  
       4A    -10.169603     5A     -0.791022     6A     -0.720883  
       7A     -0.627736     8A     -0.575311     9A     -0.468674  
      10A     -0.423670    11A     -0.422786    12A     -0.403166  
      13A     -0.364432    14A     -0.356234    15A     -0.327803  
      16A     -0.326057    17A     -0.312892  

    Virtual:                                                              

      18A      0.062253    19A      0.085371    20A      0.100320  
      21A      0.106841    22A      0.141124    23A      0.145305  
      24A      0.151631    25A      0.158687    26A      0.160338  
      27A      0.163339    28A      0.225553    29A      0.242481  
      30A      0.247723    31A      0.405111    32A      0.413081  
      33A      0.427615    34A      0.429126    35A      0.461526  
      36A      0.498692    37A      0.507932    38A      0.580266  
      39A      0.596467    40A      0.636945    41A      0.656616  
      42A      0.657734    43A      0.659952    44A      0.674441  
      45A      0.674568    46A      0.675889    47A      0.684980  
      48A      0.699378    49A      0.705365    50A      0.730302  
      51A      0.737170    52A      0.746781    53A      0.882715  
      54A      0.889842    55A      0.971482    56A      1.103771  
      57A      1.161047    58A      1.196175    59A      1.236401  
      60A      1.263897    61A      1.292436    62A      1.339342  
      63A      1.427273    64A      1.431604    65A      1.486610  
      66A      1.491195    67A      1.545590    68A      1.588979  
      69A      1.589657    70A      1.631062    71A      1.643673  
      72A      1.654904    73A      1.666424    74A      1.679539  
      75A      1.686478    76A      1.711040    77A      1.724102  
      78A      1.730678    79A      1.742328    80A      1.754204  
      81A      1.784710    82A      1.786331    83A      1.888158  
      84A      1.916550    85A      1.961731    86A      1.988188  
      87A      2.002130    88A      2.055002    89A      2.070859  
      90A      2.183059    91A      2.199735    92A      2.229882  
      93A      2.252102    94A      2.302943    95A      2.312700  
      96A      2.332983    97A      2.462788    98A      2.464532  
      99A      2.479601   100A      2.501753   101A      2.523414  
     102A      2.551326   103A      2.591196   104A      2.621194  
     105A      2.689313   106A      2.719375  

    Final Occupation by Irrep:
              A 
    DOCC [    17 ]

  Energy converged.

  @DF-RKS Final Energy:  -158.45235538904197

   => Energetics <=

    Nuclear Repulsion Energy =            130.9353174927553880
    One-Electron Energy =                -470.3264672816911798
    Two-Electron Energy =                 201.5707542275976039
    DFT Exchange-Correlation Energy =     -20.6319598277038061
    Empirical Dispersion Energy =           0.0000000000000000
    PCM Polarization Energy =               0.0000000000000000
    EFP Energy =                            0.0000000000000000
    Total Energy =                       -158.4523553890419691


  Saving occupied orbitals to File 180.

*** tstop() called on lski1497 at Tue Feb 21 18:06:48 2017
Module time:
	user time   =     105.58 seconds =       1.76 minutes
	system time =       1.35 seconds =       0.02 minutes
	total time  =        122 seconds =       2.03 minutes
Total time:
	user time   =     251.18 seconds =       4.19 minutes
	system time =       3.28 seconds =       0.05 minutes
	total time  =        288 seconds =       4.80 minutes


Properties will be evaluated at   0.000000,   0.000000,   0.000000 Bohr

Properties computed using the SCF density matrix

  Nuclear Dipole Moment: (a.u.)
     X:    -0.1369      Y:    -0.0680      Z:     0.2473

  Electronic Dipole Moment: (a.u.)
     X:     0.1456      Y:     0.0721      Z:    -0.2632

  Dipole Moment: (a.u.)
     X:     0.0088      Y:     0.0040      Z:    -0.0159     Total:     0.0186

  Dipole Moment: (Debye)
     X:     0.0223      Y:     0.0103      Z:    -0.0405     Total:     0.0474


*** tstart() called on lski1497
*** at Tue Feb 21 18:06:48 2017


         ------------------------------------------------------------
                                   SCF GRAD                          
                          Rob Parrish, Justin Turney,                
                       Andy Simmonett, and Alex Sokolov              
         ------------------------------------------------------------

  ==> Geometry <==

    Molecular point group: c1
    Full point group: C1

    Geometry (in Angstrom), charge = 0, multiplicity = 1:

       Center              X                  Y                   Z               Mass       
    ------------   -----------------  -----------------  -----------------  -----------------
           H         -2.248609406557     0.110282059740     0.151336321345     1.007825032070
           H         -2.098970773829     1.754754740195    -0.479553205387     1.007825032070
           H         -1.802072344172     0.372239084326    -1.538996120471     1.007825032070
           C         -1.694093385176     0.748867845751    -0.527681303151    12.000000000000
           H          0.342640488738     1.402298737288    -0.813633060733     1.007825032070
           H         -0.104507772903     1.140411027084     0.879852536288     1.007825032070
           C         -0.203203377253     0.758952239964    -0.130991232849    12.000000000000
           H         -0.396462610275    -1.388373201338     0.018893453348     1.007825032070
           H          0.777604807678    -0.849402581287    -1.191440501704     1.007825032070
           C          0.386211174964    -0.668566134129    -0.196062921391    12.000000000000
           H          1.930809325085    -1.837260571075     0.779972512051     1.007825032070
           H          1.140110647987    -0.658435660714     1.832280007031     1.007825032070
           H          2.313440865154    -0.119100409183     0.625078619813     1.007825032070
           C          1.523348867384    -0.833157720852     0.832580896458    12.000000000000

  Nuclear repulsion =  130.935317492755388

  ==> Basis Set <==

  Basis Set: CC-PVDZ
    Number of shells: 54
    Number of basis function: 106
    Number of Cartesian functions: 110
    Spherical Harmonics?: true
    Max angular momentum: 2

  ==> DFJKGrad: Density-Fitted SCF Gradients <==

    Gradient:                    1
    J tasked:                  Yes
    K tasked:                  Yes
    wK tasked:                  No
    OpenMP threads:              1
    Integrals threads:           1
    Memory (MB):               715
    Schwarz Cutoff:          0E+00
    Fitting Condition:       1E-12

   => Auxiliary Basis Set <=

  Basis Set: 
    Number of shells: 186
    Number of basis function: 510
    Number of Cartesian functions: 574
    Spherical Harmonics?: true
    Max angular momentum: 3

  ==> DFT Potential <==

   => B3LYP Composite Functional <= 

    B3LYP Hybrid-GGA Exchange-Correlation Functional (VWN1-RPA)

    P.J. Stephens et. al., J. Phys. Chem., 98, 11623-11627, 1994

    Points   =           5000
    Deriv    =              1
    GGA      =           TRUE
    Meta     =          FALSE

    X_LRC        =          FALSE
    X_Hybrid     =           TRUE
    X_Alpha      =   2.000000E-01
    X_Omega      =   0.000000E+00
    C_LRC        =          FALSE
    C_Hybrid     =          FALSE
    C_Alpha      =   0.000000E+00
    C_Omega      =   0.000000E+00

   => Exchange Functionals <=

    0.8000    B3_X
    0.2000      HF 

   => Correlation Functionals <=

    0.1900 VWN3RPA_C
    0.8100   LYP_C

   => Molecular Quadrature <=

    Radial Scheme    =       TREUTLER
    Pruning Scheme   =           FLAT
    Nuclear Scheme   =       TREUTLER

    BS radius alpha  =              1
    Pruning alpha    =              1
    Radial Points    =             75
    Spherical Points =            302
    Total Points     =         312776
    Total Blocks     =            270
    Max Points       =           4884
    Max Functions    =            106


  -Total Gradient:
     Atom            X                  Y                   Z
    ------   -----------------  -----------------  -----------------
       1        0.008284075222     0.006472223610    -0.006025901799
       2        0.007435108171    -0.009322478597     0.000785112843
       3        0.004141050792     0.004193075520     0.010957020346
       4       -0.020440403648    -0.006499956380    -0.004950951702
       5       -0.007472150637    -0.009862460409     0.003615201641
       6       -0.002036832000    -0.006638123513    -0.010406202111
       7        0.017244676089     0.021490566414     0.010047456969
       8        0.008107895281     0.009620659557    -0.000300134552
       9       -0.001099155975     0.005652911686     0.011892764671
      10       -0.012498412774    -0.019288770454    -0.018258279178
      11       -0.006951955763     0.009938048952    -0.001861654557
      12        0.001719352389    -0.001512841513    -0.011778002046
      13       -0.009955102964    -0.006965087313    -0.000157184700
      14        0.013522861188     0.002722747289     0.016438956365


*** tstop() called on lski1497 at Tue Feb 21 18:07:33 2017
Module time:
	user time   =      39.88 seconds =       0.66 minutes
	system time =       0.63 seconds =       0.01 minutes
	total time  =         45 seconds =       0.75 minutes
Total time:
	user time   =     291.09 seconds =       4.85 minutes
	system time =       3.91 seconds =       0.07 minutes
	total time  =        333 seconds =       5.55 minutes

			-----------------------------------------
			 OPTKING 2.0: for geometry optimizations 
			  - R.A. King,  Bethel University        
			-----------------------------------------

	Previous internal coordinate definitions found.
	---Fragment 1 Geometry and Gradient---
	 H          -4.2492559582        0.2084028903        0.2859842013
	 H          -3.9664799235        3.3160058894       -0.9062242243
	 H          -3.4054232021        0.7034299253       -2.9082811873
	 C          -3.2013725415        1.4151551382       -0.9971731484
	 H           0.6474966858        2.6499605700       -1.5375436574
	 H          -0.1974910695        2.1550645201        1.6626803309
	 C          -0.3839987323        1.4342118815       -0.2475375559
	 H          -0.7492057553       -2.6236451208        0.0357034525
	 H           1.4694601261       -1.6051382552       -2.2514962518
	 C           0.7298333501       -1.2634068952       -0.3705052262
	 H           3.6487008392       -3.4719193141        1.4739344390
	 H           2.1544968859       -1.2442630749        3.4625074121
	 H           4.3717696598       -0.2250671557        1.1812274030
	 C           2.8787121642       -1.5744399179        1.5733498778
	             0.0082840752        0.0064722236       -0.0060259018
	             0.0074351082       -0.0093224786        0.0007851128
	             0.0041410508        0.0041930755        0.0109570203
	            -0.0204404036       -0.0064999564       -0.0049509517
	            -0.0074721506       -0.0098624604        0.0036152016
	            -0.0020368320       -0.0066381235       -0.0104062021
	             0.0172446761        0.0214905664        0.0100474570
	             0.0081078953        0.0096206596       -0.0003001346
	            -0.0010991560        0.0056529117        0.0118927647
	            -0.0124984128       -0.0192887705       -0.0182582792
	            -0.0069519558        0.0099380490       -0.0018616546
	             0.0017193524       -0.0015128415       -0.0117780020
	            -0.0099551030       -0.0069650873       -0.0001571847
	             0.0135228612        0.0027227473        0.0164389564

	---Fragment 1 Intrafragment Coordinates---
	 - Coordinate -           - BOHR/RAD -       - ANG/DEG -
	 R(1,4)           =         2.049586	       1.084594
	 R(2,4)           =         2.051072	       1.085380
	 R(3,4)           =         2.049518	       1.084558
	 R(4,7)           =         2.915461	       1.542795
	 R(5,7)           =         2.050888	       1.085283
	 R(6,7)           =         2.050206	       1.084922
	 R(7,10)          =         2.921111	       1.545785
	 R(8,10)          =         2.050076	       1.084853
	 R(9,10)          =         2.049867	       1.084743
	 R(10,14)         =         2.914274	       1.542168
	 R(11,14)         =         2.050169	       1.084903
	 R(12,14)         =         2.049981	       1.084803
	 R(13,14)         =         2.050314	       1.084979
	 B(1,4,2)         =         1.904113	     109.097642
	 B(1,4,3)         =         1.905420	     109.172516
	 B(1,4,7)         =         1.914460	     109.690497
	 B(2,4,3)         =         1.902908	     109.028582
	 B(2,4,7)         =         1.920925	     110.060909
	 B(3,4,7)         =         1.915843	     109.769712
	 B(4,7,5)         =         1.905165	     109.157942
	 B(4,7,6)         =         1.906862	     109.255153
	 B(4,7,10)        =         1.930093	     110.586155
	 B(5,7,6)         =         1.909083	     109.382413
	 B(5,7,10)        =         1.906233	     109.219105
	 B(6,7,10)        =         1.906288	     109.222283
	 B(7,10,8)        =         1.906365	     109.226697
	 B(7,10,9)        =         1.907273	     109.278694
	 B(7,10,14)       =         1.930122	     110.587834
	 B(8,10,9)        =         1.908711	     109.361086
	 B(8,10,14)       =         1.906037	     109.207900
	 B(9,10,14)       =         1.905210	     109.160475
	 B(10,14,11)      =         1.921297	     110.082225
	 B(10,14,12)      =         1.914524	     109.694146
	 B(10,14,13)      =         1.916808	     109.824989
	 B(11,14,12)      =         1.903328	     109.052671
	 B(11,14,13)      =         1.903230	     109.047059
	 B(12,14,13)      =         1.904460	     109.117509
	 D(1,4,7,5)       =        -3.138687	    -179.833529
	 D(1,4,7,6)       =        -1.051776	     -60.262333
	 D(1,4,7,10)      =         1.046936	      59.985020
	 D(2,4,7,5)       =        -1.043568	     -59.792063
	 D(2,4,7,6)       =         1.043343	      59.779132
	 D(2,4,7,10)      =        -3.141130	    -179.973515
	 D(3,4,7,5)       =         1.050932	      60.213967
	 D(3,4,7,6)       =         3.137843	     179.785163
	 D(3,4,7,10)      =        -1.046630	     -59.967485
	 D(4,7,10,8)      =        -0.521656	     -29.888703
	 D(4,7,10,9)      =         1.565767	      89.711859
	 D(4,7,10,14)     =        -2.619759	    -150.101158
	 D(5,7,10,8)      =        -2.618579	    -150.033528
	 D(5,7,10,9)      =        -0.531155	     -30.432966
	 D(5,7,10,14)     =         1.566503	      89.754017
	 D(6,7,10,8)      =         1.577399	      90.378315
	 D(6,7,10,9)      =        -2.618363	    -150.021123
	 D(6,7,10,14)     =        -0.520704	     -29.834140
	 D(7,10,14,11)    =         3.141545	     179.997295
	 D(7,10,14,12)    =         1.047123	      59.995731
	 D(7,10,14,13)    =        -1.045900	     -59.925637
	 D(8,10,14,11)    =         1.043246	      59.773591
	 D(8,10,14,12)    =        -1.051176	     -60.227973
	 D(8,10,14,13)    =         3.138986	     179.850658
	 D(9,10,14,11)    =        -1.042746	     -59.744973
	 D(9,10,14,12)    =        -3.137169	    -179.746537
	 D(9,10,14,13)    =         1.052994	      60.332094

	Current energy   :      -158.4523553890

	Energy change for the previous step:
		Projected    :        -0.0074294794
		Actual       :        -0.0059023105

	Performing BFGS update.
	Previous computed or guess Hessian on step 1.
	Steps to be used in Hessian update: 1
	Adding user-defined constraint: Fragment 1; Coordinate 49:
		Value =    -2.619759; Fixed value    =    -2.617990
		Force =     0.000929; Force constant =     0.525000
	Removing off-diagonal coupling between coordinate 49 and others.
	Taking RFO optimization step.
	Going to follow RFO solution 1.
	Using RFO vector 1.

	Determining step-restricting scale parameter for RS-RFO.
	Maximum step size allowed    0.10000

	 Iter      |step|        alpha        rfo_root  
	------------------------------------------------
	    0     0.22188       1.00000           1
	    1     0.16710       4.99435           1
	    2     0.12949      14.12470           1
	    3     0.10896      26.09900           1
	    4     0.10121      33.40235           1
	    5     0.10003      34.71473           1
	    6     0.10000      34.74524           1
	------------------------------------------------
	Norm of target step-size    0.10000
	Projected energy change by RFO approximation:        -0.0039637276

	Back-transformation to cartesian coordinates...
	Successfully converged to displaced geometry.

	--- Internal Coordinate Step in ANG or DEG, aJ/ANG or AJ/DEG ---
	 ---------------------------------------------------------------------------
	   Coordinate                Previous        Force       Change         New 
	   ----------                --------       ------       ------       ------
	    1 R(1,4)          =      1.084594     0.097365     0.012239     1.096833
	    2 R(2,4)          =      1.085380     0.093751     0.011518     1.096899
	    3 R(3,4)          =      1.084558     0.099562     0.012465     1.097023
	    4 R(4,7)          =      1.542795    -0.003292    -0.002661     1.540134
	    5 R(5,7)          =      1.085283     0.097866     0.012262     1.097546
	    6 R(6,7)          =      1.084922     0.100637     0.012759     1.097682
	    7 R(7,10)         =      1.545785     0.022386     0.001667     1.547453
	    8 R(8,10)         =      1.084853     0.101275     0.012824     1.097677
	    9 R(9,10)         =      1.084743     0.100943     0.012604     1.097347
	   10 R(10,14)        =      1.542168    -0.000744    -0.002266     1.539902
	   11 R(11,14)        =      1.084903     0.096554     0.011828     1.096731
	   12 R(12,14)        =      1.084803     0.096430     0.012132     1.096935
	   13 R(13,14)        =      1.084979     0.097237     0.012204     1.097183
	   14 B(1,4,2)        =    109.097642    -0.000240    -0.642296   108.455346
	   15 B(1,4,3)        =    109.172516    -0.000226    -0.681873   108.490643
	   16 B(1,4,7)        =    109.690497     0.000181     0.549247   110.239744
	   17 B(2,4,3)        =    109.028582    -0.000255    -0.679198   108.349383
	   18 B(2,4,7)        =    110.060909     0.000318     0.772783   110.833692
	   19 B(3,4,7)        =    109.769712     0.000213     0.631659   110.401371
	   20 B(4,7,5)        =    109.157942    -0.000139    -0.177236   108.980707
	   21 B(4,7,6)        =    109.255153    -0.000144    -0.264385   108.990769
	   22 B(4,7,10)       =    110.586155     0.000583     1.294410   111.880565
	   23 B(5,7,6)        =    109.382413    -0.000067    -0.563902   108.818511
	   24 B(5,7,10)       =    109.219105    -0.000113    -0.130516   109.088589
	   25 B(6,7,10)       =    109.222283    -0.000125    -0.190249   109.032033
	   26 B(7,10,8)       =    109.226697    -0.000126    -0.192963   109.033734
	   27 B(7,10,9)       =    109.278694    -0.000120    -0.150635   109.128059
	   28 B(7,10,14)      =    110.587834     0.000585     1.296394   111.884229
	   29 B(8,10,9)       =    109.361086    -0.000065    -0.559267   108.801818
	   30 B(8,10,14)      =    109.207900    -0.000141    -0.253150   108.954749
	   31 B(9,10,14)      =    109.160475    -0.000138    -0.172666   108.987809
	   32 B(10,14,11)     =    110.082225     0.000316     0.765968   110.848193
	   33 B(10,14,12)     =    109.694146     0.000179     0.544913   110.239059
	   34 B(10,14,13)     =    109.824989     0.000206     0.611009   110.435997
	   35 B(11,14,12)     =    109.052671    -0.000237    -0.628876   108.423795
	   36 B(11,14,13)     =    109.047059    -0.000255    -0.679392   108.367666
	   37 B(12,14,13)     =    109.117509    -0.000221    -0.664015   108.453494
	   38 D(1,4,7,5)      =   -179.833529     0.000028     0.487925  -179.345604
	   39 D(1,4,7,6)      =    -60.262333    -0.000030    -0.455059   -60.717393
	   40 D(1,4,7,10)     =     59.985020    -0.000003    -0.048560    59.936459
	   41 D(2,4,7,5)      =    -59.792063     0.000031     0.533333   -59.258730
	   42 D(2,4,7,6)      =     59.779132    -0.000026    -0.409651    59.369482
	   43 D(2,4,7,10)     =   -179.973515     0.000001    -0.003151  -179.976666
	   44 D(3,4,7,5)      =     60.213967     0.000035     0.587347    60.801314
	   45 D(3,4,7,6)      =    179.785163    -0.000022    -0.355637   179.429526
	   46 D(3,4,7,10)     =    -59.967485     0.000005     0.050862   -59.916622
	   47 D(4,7,10,8)     =    -29.888703     0.000015     0.222559   -29.666144
	   48 D(4,7,10,9)     =     89.711859    -0.000038    -0.659232    89.052628
	   49 D(4,7,10,14)    =   -150.101158    -0.000011    -0.153201  -150.254358
	   50 D(5,7,10,8)     =   -150.033528    -0.000013    -0.287833  -150.321361
	   51 D(5,7,10,9)     =    -30.432966    -0.000065    -1.169624   -31.602590
	   52 D(5,7,10,14)    =     89.754017    -0.000038    -0.663593    89.090424
	   53 D(6,7,10,8)     =     90.378315     0.000039     0.585392    90.963707
	   54 D(6,7,10,9)     =   -150.021123    -0.000013    -0.296398  -150.317521
	   55 D(6,7,10,14)    =    -29.834140     0.000014     0.209633   -29.624507
	   56 D(7,10,14,11)   =    179.997295     0.000002     0.012451   180.009746
	   57 D(7,10,14,12)   =     59.995731    -0.000003    -0.042344    59.953387
	   58 D(7,10,14,13)   =    -59.925637     0.000005     0.050465   -59.875172
	   59 D(8,10,14,11)   =     59.773591    -0.000026    -0.398010    59.375580
	   60 D(8,10,14,12)   =    -60.227973    -0.000030    -0.452806   -60.680779
	   61 D(8,10,14,13)   =    179.850658    -0.000022    -0.359996   179.490662
	   62 D(9,10,14,11)   =    -59.744973     0.000031     0.529225   -59.215749
	   63 D(9,10,14,12)   =   -179.746537     0.000027     0.474429  -179.272108
	   64 D(9,10,14,13)   =     60.332094     0.000034     0.567239    60.899333
	 ---------------------------------------------------------------------------
	 Forces used to impose fixed constraints are not included.
	  Forces zeroed: 49 

  ==> Convergence Check <==

  Measures of convergence in internal coordinates in au.
  Criteria marked as inactive (o), active & met (*), and active & unmet ( ).
  ---------------------------------------------------------------------------------------------
   Step     Total Energy     Delta E     MAX Force     RMS Force      MAX Disp      RMS Disp   
  ---------------------------------------------------------------------------------------------
    Convergence Criteria    1.00e-06 *    3.00e-04 *             o    1.20e-03 *             o
  ---------------------------------------------------------------------------------------------
      2    -158.45235539   -5.90e-03      1.23e-02      5.24e-03 o    2.42e-02      1.25e-02 o  ~
  ---------------------------------------------------------------------------------------------

	Writing optimization data to binary file.
	Structure for next step:
	Cartesian Geometry (in Angstrom)
	    H    -2.2786549683   0.1095131034   0.1444781872
	    H    -2.1228099042   1.7623401364  -0.4972647434
	    H    -1.8247788610   0.3657282252  -1.5578948929
	    C    -1.7046300343   0.7490644774  -0.5370732685
	    H     0.3347879614   1.4083554922  -0.8239752220
	    H    -0.1229275525   1.1506289786   0.8821385898
	    C    -0.2173509075   0.7541878074  -0.1370882494
	    H    -0.3860663429  -1.4024053419   0.0304236460
	    H     0.7915310901  -0.8519597859  -1.1925942045
	    C     0.3977596336  -0.6649317794  -0.1855510917
	    H     1.9604058401  -1.8424481479   0.7880062151
	    H     1.1623390412  -0.6618407687   1.8537305910
	    H     2.3395841363  -0.1108211852   0.6373944806
	    C     1.5370573749  -0.8319017557   0.8369059633
			--------------------------
			 OPTKING Finished Execution 
			--------------------------

    Structure for next step:
    Molecular point group: c1
    Full point group: C1

    Geometry (in Angstrom), charge = 0, multiplicity = 1:

    H           -2.278763376777     0.109452061836     0.144601604076
    H           -2.122918312668     1.762279094868    -0.497141326504
    H           -1.824887269448     0.365667183673    -1.557771476041
    C           -1.704738442738     0.749003435886    -0.536949851667
    H            0.334679552997     1.408294450671    -0.823851805159
    H           -0.123035960913     1.150567937054     0.882262006676
    C           -0.217459315966     0.754126765892    -0.136964832490
    H           -0.386174751287    -1.402466383451     0.030547062844
    H            0.791422681681    -0.852020827451    -1.192470787637
    C            0.397651225166    -0.664992820956    -0.185427674806
    H            1.960297431659    -1.842509189449     0.788129631968
    H            1.162230632732    -0.661901810202     1.853854007826
    H            2.339475727849    -0.110882226769     0.637517897488
    C            1.536948966469    -0.831962797213     0.837029380202

gradient() will perform analytic gradient computation.

*** tstart() called on lski1497
*** at Tue Feb 21 18:07:34 2017


         ---------------------------------------------------------
                                   SCF
            by Justin Turney, Rob Parrish, and Andy Simmonett
                              RKS Reference
                        1 Threads,   1000 MiB Core
         ---------------------------------------------------------

  ==> Geometry <==

    Molecular point group: c1
    Full point group: C1

    Geometry (in Angstrom), charge = 0, multiplicity = 1:

       Center              X                  Y                   Z               Mass       
    ------------   -----------------  -----------------  -----------------  -----------------
           H         -2.278763376777     0.109452061836     0.144601604076     1.007825032070
           H         -2.122918312668     1.762279094868    -0.497141326504     1.007825032070
           H         -1.824887269448     0.365667183673    -1.557771476041     1.007825032070
           C         -1.704738442738     0.749003435886    -0.536949851667    12.000000000000
           H          0.334679552997     1.408294450671    -0.823851805159     1.007825032070
           H         -0.123035960913     1.150567937054     0.882262006676     1.007825032070
           C         -0.217459315966     0.754126765892    -0.136964832490    12.000000000000
           H         -0.386174751287    -1.402466383451     0.030547062844     1.007825032070
           H          0.791422681681    -0.852020827451    -1.192470787637     1.007825032070
           C          0.397651225166    -0.664992820956    -0.185427674806    12.000000000000
           H          1.960297431659    -1.842509189449     0.788129631968     1.007825032070
           H          1.162230632732    -0.661901810202     1.853854007826     1.007825032070
           H          2.339475727849    -0.110882226769     0.637517897488     1.007825032070
           C          1.536948966469    -0.831962797213     0.837029380202    12.000000000000

  Running in c1 symmetry.

  Rotational constants: A =      0.71011  B =      0.12196  C =      0.11628 [cm^-1]
  Rotational constants: A =  21288.66383  B =   3656.40615  C =   3485.90264 [MHz]
  Nuclear repulsion =  130.159329016743641

  Charge       = 0
  Multiplicity = 1
  Electrons    = 34
  Nalpha       = 17
  Nbeta        = 17

  ==> Algorithm <==

  SCF Algorithm Type is DF.
  DIIS enabled.
  MOM disabled.
  Fractional occupation disabled.
  Guess Type is READ.
  Energy threshold   = 1.00e-08
  Density threshold  = 1.00e-08
  Integral threshold = 0.00e+00

  ==> Primary Basis <==

  Basis Set: CC-PVDZ
    Number of shells: 54
    Number of basis function: 106
    Number of Cartesian functions: 110
    Spherical Harmonics?: true
    Max angular momentum: 2

  ==> DFT Potential <==

   => B3LYP Composite Functional <= 

    B3LYP Hybrid-GGA Exchange-Correlation Functional (VWN1-RPA)

    P.J. Stephens et. al., J. Phys. Chem., 98, 11623-11627, 1994

    Points   =           5000
    Deriv    =              1
    GGA      =           TRUE
    Meta     =          FALSE

    X_LRC        =          FALSE
    X_Hybrid     =           TRUE
    X_Alpha      =   2.000000E-01
    X_Omega      =   0.000000E+00
    C_LRC        =          FALSE
    C_Hybrid     =          FALSE
    C_Alpha      =   0.000000E+00
    C_Omega      =   0.000000E+00

   => Exchange Functionals <=

    0.8000    B3_X
    0.2000      HF 

   => Correlation Functionals <=

    0.1900 VWN3RPA_C
    0.8100   LYP_C

   => Molecular Quadrature <=

    Radial Scheme    =       TREUTLER
    Pruning Scheme   =           FLAT
    Nuclear Scheme   =       TREUTLER

    BS radius alpha  =              1
    Pruning alpha    =              1
    Radial Points    =             75
    Spherical Points =            302
    Total Points     =         312800
    Total Blocks     =            270
    Max Points       =           4885
    Max Functions    =            106

  ==> Pre-Iterations <==

   -------------------------------------------------------
    Irrep   Nso     Nmo     Nalpha   Nbeta   Ndocc  Nsocc
   -------------------------------------------------------
     A        106     106       0       0       0       0
   -------------------------------------------------------
    Total     106     106      17      17      17       0
   -------------------------------------------------------

  ==> Integral Setup <==

  ==> DFJK: Density-Fitted J/K Matrices <==

    J tasked:                  Yes
    K tasked:                  Yes
    wK tasked:                  No
    OpenMP threads:              1
    Integrals threads:           1
    Memory (MB):               715
    Algorithm:                Core
    Integral Cache:           NONE
    Schwarz Cutoff:          1E-12
    Fitting Condition:       1E-12

   => Auxiliary Basis Set <=

  Basis Set: 
    Number of shells: 186
    Number of basis function: 510
    Number of Cartesian functions: 574
    Spherical Harmonics?: true
    Max angular momentum: 3

  Minimum eigenvalue in the overlap matrix is 4.1425560464E-03.
  Using Symmetric Orthogonalization.
  SCF Guess was Projection but file not found.
  Switching over to SAD guess.

  SCF Guess: Superposition of Atomic Densities via on-the-fly atomic UHF.

  ==> Iterations <==

                           Total Energy        Delta E     RMS |[F,P]|

   @DF-RKS iter   0:  -158.94923456869867   -1.58949e+02   3.27069e-02 
   @DF-RKS iter   1:  -158.33088822403670    6.18346e-01   4.32929e-03 
   @DF-RKS iter   2:  -158.29054001917433    4.03482e-02   5.11052e-03 DIIS
   @DF-RKS iter   3:  -158.45437731926825   -1.63837e-01   3.44853e-04 DIIS
   @DF-RKS iter   4:  -158.45503402826324   -6.56709e-04   1.19944e-04 DIIS
   @DF-RKS iter   5:  -158.45510574119601   -7.17129e-05   4.52913e-05 DIIS
   @DF-RKS iter   6:  -158.45511716556294   -1.14244e-05   4.07205e-06 DIIS
   @DF-RKS iter   7:  -158.45511726425127   -9.86883e-08   8.18795e-07 DIIS
   @DF-RKS iter   8:  -158.45511726863876   -4.38749e-09   1.43957e-07 DIIS
   @DF-RKS iter   9:  -158.45511726877419   -1.35429e-10   3.11532e-08 DIIS
   @DF-RKS iter  10:  -158.45511726878070   -6.50857e-12   6.32235e-09 DIIS

  ==> Post-Iterations <==

    Orbital Energies (a.u.)
    -----------------------

    Doubly Occupied:                                                      

       1A    -10.178212     2A    -10.178056     3A    -10.173889  
       4A    -10.173871     5A     -0.789086     6A     -0.719644  
       7A     -0.626347     8A     -0.572053     9A     -0.465622  
      10A     -0.422354    11A     -0.420866    12A     -0.402205  
      13A     -0.363350    14A     -0.354243    15A     -0.326519  
      16A     -0.323065    17A     -0.316509  

    Virtual:                                                              

      18A      0.060953    19A      0.083256    20A      0.098052  
      21A      0.104667    22A      0.139252    23A      0.141378  
      24A      0.149325    25A      0.154176    26A      0.158109  
      27A      0.160153    28A      0.224092    29A      0.244595  
      30A      0.248190    31A      0.404408    32A      0.409796  
      33A      0.424517    34A      0.424798    35A      0.461781  
      36A      0.500718    37A      0.507531    38A      0.579204  
      39A      0.594317    40A      0.631091    41A      0.649653  
      42A      0.651079    43A      0.654226    44A      0.665784  
      45A      0.669571    46A      0.671962    47A      0.679016  
      48A      0.697781    49A      0.698289    50A      0.725993  
      51A      0.729671    52A      0.742513    53A      0.884597  
      54A      0.886682    55A      0.968817    56A      1.096771  
      57A      1.162382    58A      1.192710    59A      1.232495  
      60A      1.252834    61A      1.286027    62A      1.333624  
      63A      1.422328    64A      1.426460    65A      1.478160  
      66A      1.485291    67A      1.542366    68A      1.579975  
      69A      1.585988    70A      1.624065    71A      1.638528  
      72A      1.647651    73A      1.659625    74A      1.667465  
      75A      1.676694    76A      1.699293    77A      1.715114  
      78A      1.725500    79A      1.740065    80A      1.744892  
      81A      1.771924    82A      1.775706    83A      1.880364  
      84A      1.899681    85A      1.945360    86A      1.975838  
      87A      2.003378    88A      2.055003    89A      2.067338  
      90A      2.161605    91A      2.177818    92A      2.215443  
      93A      2.231813    94A      2.284878    95A      2.287497  
      96A      2.308376    97A      2.427910    98A      2.428992  
      99A      2.459354   100A      2.483091   101A      2.504796  
     102A      2.520082   103A      2.586467   104A      2.596695  
     105A      2.669556   106A      2.700969  

    Final Occupation by Irrep:
              A 
    DOCC [    17 ]

  Energy converged.

  @DF-RKS Final Energy:  -158.45511726878070

   => Energetics <=

    Nuclear Repulsion Energy =            130.1593290167436408
    One-Electron Energy =                -468.8098926036635135
    Two-Electron Energy =                 200.7918403727377950
    DFT Exchange-Correlation Energy =     -20.5963940545986297
    Empirical Dispersion Energy =           0.0000000000000000
    PCM Polarization Energy =               0.0000000000000000
    EFP Energy =                            0.0000000000000000
    Total Energy =                       -158.4551172687806968


  Saving occupied orbitals to File 180.

*** tstop() called on lski1497 at Tue Feb 21 18:09:34 2017
Module time:
	user time   =     106.99 seconds =       1.78 minutes
	system time =       1.27 seconds =       0.02 minutes
	total time  =        120 seconds =       2.00 minutes
Total time:
	user time   =     398.75 seconds =       6.65 minutes
	system time =       5.20 seconds =       0.09 minutes
	total time  =        454 seconds =       7.57 minutes


Properties will be evaluated at   0.000000,   0.000000,   0.000000 Bohr

Properties computed using the SCF density matrix

  Nuclear Dipole Moment: (a.u.)
     X:    -0.1384      Y:    -0.0689      Z:     0.2491

  Electronic Dipole Moment: (a.u.)
     X:     0.1462      Y:     0.0727      Z:    -0.2632

  Dipole Moment: (a.u.)
     X:     0.0078      Y:     0.0038      Z:    -0.0141     Total:     0.0165

  Dipole Moment: (Debye)
     X:     0.0198      Y:     0.0096      Z:    -0.0359     Total:     0.0420


*** tstart() called on lski1497
*** at Tue Feb 21 18:09:34 2017


         ------------------------------------------------------------
                                   SCF GRAD                          
                          Rob Parrish, Justin Turney,                
                       Andy Simmonett, and Alex Sokolov              
         ------------------------------------------------------------

  ==> Geometry <==

    Molecular point group: c1
    Full point group: C1

    Geometry (in Angstrom), charge = 0, multiplicity = 1:

       Center              X                  Y                   Z               Mass       
    ------------   -----------------  -----------------  -----------------  -----------------
           H         -2.278763376777     0.109452061836     0.144601604076     1.007825032070
           H         -2.122918312668     1.762279094868    -0.497141326504     1.007825032070
           H         -1.824887269448     0.365667183673    -1.557771476041     1.007825032070
           C         -1.704738442738     0.749003435886    -0.536949851667    12.000000000000
           H          0.334679552997     1.408294450671    -0.823851805159     1.007825032070
           H         -0.123035960913     1.150567937054     0.882262006676     1.007825032070
           C         -0.217459315966     0.754126765892    -0.136964832490    12.000000000000
           H         -0.386174751287    -1.402466383451     0.030547062844     1.007825032070
           H          0.791422681681    -0.852020827451    -1.192470787637     1.007825032070
           C          0.397651225166    -0.664992820956    -0.185427674806    12.000000000000
           H          1.960297431659    -1.842509189449     0.788129631968     1.007825032070
           H          1.162230632732    -0.661901810202     1.853854007826     1.007825032070
           H          2.339475727849    -0.110882226769     0.637517897488     1.007825032070
           C          1.536948966469    -0.831962797213     0.837029380202    12.000000000000

  Nuclear repulsion =  130.159329016743641

  ==> Basis Set <==

  Basis Set: CC-PVDZ
    Number of shells: 54
    Number of basis function: 106
    Number of Cartesian functions: 110
    Spherical Harmonics?: true
    Max angular momentum: 2

  ==> DFJKGrad: Density-Fitted SCF Gradients <==

    Gradient:                    1
    J tasked:                  Yes
    K tasked:                  Yes
    wK tasked:                  No
    OpenMP threads:              1
    Integrals threads:           1
    Memory (MB):               715
    Schwarz Cutoff:          0E+00
    Fitting Condition:       1E-12

   => Auxiliary Basis Set <=

  Basis Set: 
    Number of shells: 186
    Number of basis function: 510
    Number of Cartesian functions: 574
    Spherical Harmonics?: true
    Max angular momentum: 3

  ==> DFT Potential <==

   => B3LYP Composite Functional <= 

    B3LYP Hybrid-GGA Exchange-Correlation Functional (VWN1-RPA)

    P.J. Stephens et. al., J. Phys. Chem., 98, 11623-11627, 1994

    Points   =           5000
    Deriv    =              1
    GGA      =           TRUE
    Meta     =          FALSE

    X_LRC        =          FALSE
    X_Hybrid     =           TRUE
    X_Alpha      =   2.000000E-01
    X_Omega      =   0.000000E+00
    C_LRC        =          FALSE
    C_Hybrid     =          FALSE
    C_Alpha      =   0.000000E+00
    C_Omega      =   0.000000E+00

   => Exchange Functionals <=

    0.8000    B3_X
    0.2000      HF 

   => Correlation Functionals <=

    0.1900 VWN3RPA_C
    0.8100   LYP_C

   => Molecular Quadrature <=

    Radial Scheme    =       TREUTLER
    Pruning Scheme   =           FLAT
    Nuclear Scheme   =       TREUTLER

    BS radius alpha  =              1
    Pruning alpha    =              1
    Radial Points    =             75
    Spherical Points =            302
    Total Points     =         312800
    Total Blocks     =            270
    Max Points       =           4885
[...]
    Number of Cartesian functions: 110
    Spherical Harmonics?: true
    Max angular momentum: 2

  ==> DFJKGrad: Density-Fitted SCF Gradients <==

    Gradient:                    1
    J tasked:                  Yes
    K tasked:                  Yes
    wK tasked:                  No
    OpenMP threads:              1
    Integrals threads:           1
    Memory (MB):               715
    Schwarz Cutoff:          0E+00
    Fitting Condition:       1E-12

   => Auxiliary Basis Set <=

  Basis Set: 
    Number of shells: 186
    Number of basis function: 510
    Number of Cartesian functions: 574
    Spherical Harmonics?: true
    Max angular momentum: 3

  ==> DFT Potential <==

   => B3LYP Composite Functional <= 

    B3LYP Hybrid-GGA Exchange-Correlation Functional (VWN1-RPA)

    P.J. Stephens et. al., J. Phys. Chem., 98, 11623-11627, 1994

    Points   =           5000
    Deriv    =              1
    GGA      =           TRUE
    Meta     =          FALSE

    X_LRC        =          FALSE
    X_Hybrid     =           TRUE
    X_Alpha      =   2.000000E-01
    X_Omega      =   0.000000E+00
    C_LRC        =          FALSE
    C_Hybrid     =          FALSE
    C_Alpha      =   0.000000E+00
    C_Omega      =   0.000000E+00

   => Exchange Functionals <=

    0.8000    B3_X
    0.2000      HF 

   => Correlation Functionals <=

    0.1900 VWN3RPA_C
    0.8100   LYP_C

   => Molecular Quadrature <=

    Radial Scheme    =       TREUTLER
    Pruning Scheme   =           FLAT
    Nuclear Scheme   =       TREUTLER

    BS radius alpha  =              1
    Pruning alpha    =              1
    Radial Points    =             75
    Spherical Points =            302
    Total Points     =         312814
    Total Blocks     =            271
    Max Points       =           4917
    Max Functions    =            106


  -Total Gradient:
     Atom            X                  Y                   Z
    ------   -----------------  -----------------  -----------------
       1       -0.000018219398     0.000006455098    -0.000007932988
       2       -0.000002184608    -0.000007179481     0.000003547177
       3        0.000005278151     0.000003451696     0.000016103522
       4       -0.000748887287    -0.000431922784     0.002932677487
       5        0.000001840634     0.000000982797    -0.000009685566
       6        0.000014926273    -0.000005682202    -0.000034303580
       7        0.000262232872     0.000246858407    -0.003219029955
       8        0.000018328057     0.000021912609    -0.000025147836
       9        0.000006708967     0.000003481591    -0.000005721317
      10        0.002500038238     0.001119752821    -0.001727799285
      11       -0.000003230712     0.000004870523     0.000006114992
      12        0.000017850876    -0.000006819689     0.000008075001
      13       -0.000014938541    -0.000008382688     0.000001261402
      14       -0.002043094944    -0.000949436998     0.002067842319


*** tstop() called on lski1497 at Tue Feb 21 18:20:55 2017
Module time:
	user time   =      38.37 seconds =       0.64 minutes
	system time =       0.62 seconds =       0.01 minutes
	total time  =         44 seconds =       0.73 minutes
Total time:
	user time   =    1012.45 seconds =      16.87 minutes
	system time =      13.62 seconds =       0.23 minutes
	total time  =       1135 seconds =      18.92 minutes

			-----------------------------------------
			 OPTKING 2.0: for geometry optimizations 
			  - R.A. King,  Bethel University        
			-----------------------------------------

	Previous internal coordinate definitions found.
	---Fragment 1 Geometry and Gradient---
	 H          -4.3611785914        0.2523127857        0.2707547950
	 H          -4.0190682006        3.3515489598       -0.9969177459
	 H          -3.5032874259        0.6657830642       -2.9519048890
	 C          -3.2277726658        1.4248703921       -1.0282080143
	 H           0.6510158194        2.7112821932       -1.4834938839
	 H          -0.2765034126        2.1743719592        1.6683133960
	 C          -0.4362885866        1.4066146241       -0.2693300974
	 H          -0.7065889583       -2.6607986907        0.0923370852
	 H           1.4375270892       -1.6779023429       -2.2569403645
	 C           0.7696191352       -1.2416896684       -0.3276415831
	 H           3.7606215997       -3.4794214336        1.4597906159
	 H           2.2403398615       -1.3016814777        3.5275143019
	 H           4.4523703951       -0.1961776903        1.2521533255
	 C           2.9217165353       -1.5763003462        1.5763332176
	            -0.0000182194        0.0000064551       -0.0000079330
	            -0.0000021846       -0.0000071795        0.0000035472
	             0.0000052782        0.0000034517        0.0000161035
	            -0.0007488873       -0.0004319228        0.0029326775
	             0.0000018406        0.0000009828       -0.0000096856
	             0.0000149263       -0.0000056822       -0.0000343036
	             0.0002622329        0.0002468584       -0.0032190300
	             0.0000183281        0.0000219126       -0.0000251478
	             0.0000067090        0.0000034816       -0.0000057213
	             0.0025000382        0.0011197528       -0.0017277993
	            -0.0000032307        0.0000048705        0.0000061150
	             0.0000178509       -0.0000068197        0.0000080750
	            -0.0000149385       -0.0000083827        0.0000012614
	            -0.0020430949       -0.0009494370        0.0020678423

	---Fragment 1 Intrafragment Coordinates---
	 - Coordinate -           - BOHR/RAD -       - ANG/DEG -
	 R(1,4)           =         2.084899	       1.103281
	 R(2,4)           =         2.083079	       1.102318
	 R(3,4)           =         2.086320	       1.104033
	 R(4,7)           =         2.892855	       1.530833
	 R(5,7)           =         2.087722	       1.104775
	 R(6,7)           =         2.090322	       1.106151
	 R(7,10)          =         2.910520	       1.540181
	 R(8,10)          =         2.090321	       1.106150
	 R(9,10)          =         2.087720	       1.104774
	 R(10,14)         =         2.892855	       1.530833
	 R(11,14)         =         2.083078	       1.102317
	 R(12,14)         =         2.084897	       1.103280
	 R(13,14)         =         2.086320	       1.104033
	 B(1,4,2)         =         1.880014	     107.716884
	 B(1,4,3)         =         1.873450	     107.340780
	 B(1,4,7)         =         1.936480	     110.952137
	 B(2,4,3)         =         1.875707	     107.470122
	 B(2,4,7)         =         1.948141	     111.620257
	 B(3,4,7)         =         1.946594	     111.531620
	 B(4,7,5)         =         1.924156	     110.246027
	 B(4,7,6)         =         1.890844	     108.337376
	 B(4,7,10)        =         1.982635	     113.596607
	 B(5,7,6)         =         1.843935	     105.649686
	 B(5,7,10)        =         1.918975	     109.949152
	 B(6,7,10)        =         1.897688	     108.729538
	 B(7,10,8)        =         1.897691	     108.729706
	 B(7,10,9)        =         1.918973	     109.949078
	 B(7,10,14)       =         1.982634	     113.596543
	 B(8,10,9)        =         1.843932	     105.649547
	 B(8,10,14)       =         1.890846	     108.337477
	 B(9,10,14)       =         1.924156	     110.246034
	 B(10,14,11)      =         1.948141	     111.620270
	 B(10,14,12)      =         1.936480	     110.952119
	 B(10,14,13)      =         1.946593	     111.531560
	 B(11,14,12)      =         1.880015	     107.716927
	 B(11,14,13)      =         1.875705	     107.469988
	 B(12,14,13)      =         1.873453	     107.340942
	 D(1,4,7,5)       =        -3.058842	    -175.258747
	 D(1,4,7,6)       =        -1.048919	     -60.098604
	 D(1,4,7,10)      =         1.061631	      60.826994
	 D(2,4,7,5)       =        -0.961812	     -55.107789
	 D(2,4,7,6)       =         1.048111	      60.052354
	 D(2,4,7,10)      =        -3.124524	    -179.022048
	 D(3,4,7,5)       =         1.136661	      65.125876
	 D(3,4,7,6)       =        -3.136601	    -179.713981
	 D(3,4,7,10)      =        -1.026051	     -58.788382
	 D(4,7,10,8)      =        -0.520310	     -29.811580
	 D(4,7,10,9)      =         1.490647	      85.407783
	 D(4,7,10,14)     =        -2.627017	    -150.516975
	 D(5,7,10,8)      =        -2.685833	    -153.886916
	 D(5,7,10,9)      =        -0.674876	     -38.667553
	 D(5,7,10,14)     =         1.490645	      85.407689
	 D(6,7,10,8)      =         1.586393	      90.893609
	 D(6,7,10,9)      =        -2.685835	    -153.887028
	 D(6,7,10,14)     =        -0.520314	     -29.811786
	 D(7,10,14,11)    =        -3.124515	    -179.021529
	 D(7,10,14,12)    =         1.061639	      60.827462
	 D(7,10,14,13)    =        -1.026045	     -58.788068
	 D(8,10,14,11)    =         1.048116	      60.052629
	 D(8,10,14,12)    =        -1.048915	     -60.098380
	 D(8,10,14,13)    =        -3.136599	    -179.713910
	 D(9,10,14,11)    =        -0.961806	     -55.107409
	 D(9,10,14,12)    =        -3.058836	    -175.258418
	 D(9,10,14,13)    =         1.136664	      65.126052

	Current energy   :      -158.4563401388

	Energy change for the previous step:
		Projected    :        -0.0000214769
		Actual       :        -0.0000041950

	Performing BFGS update.
	Previous computed or guess Hessian on step 1.
	Steps to be used in Hessian update: 6 5
	Adding user-defined constraint: Fragment 1; Coordinate 49:
		Value =    -2.627017; Fixed value    =    -2.617990
		Force =     0.005867; Force constant =     0.650000
	Removing off-diagonal coupling between coordinate 49 and others.
	Taking RFO optimization step.
	Going to follow RFO solution 1.
	Rejecting RFO root 1 because normalization gives large value.
	Rejecting RFO root 2 because normalization gives large value.
	Using RFO vector 3.
	Norm of target step-size    0.00045
	Projected energy change by RFO approximation:        -0.0000000424

	Back-transformation to cartesian coordinates...
	Successfully converged to displaced geometry.

	--- Internal Coordinate Step in ANG or DEG, aJ/ANG or AJ/DEG ---
	 ---------------------------------------------------------------------------
	   Coordinate                Previous        Force       Change         New 
	   ----------                --------       ------       ------       ------
	    1 R(1,4)          =      1.103281    -0.000012     0.000002     1.103284
	    2 R(2,4)          =      1.102318     0.000056     0.000013     1.102331
	    3 R(3,4)          =      1.104033     0.000128     0.000024     1.104057
	    4 R(4,7)          =      1.530833     0.000300     0.000062     1.530896
	    5 R(5,7)          =      1.104775    -0.000062    -0.000011     1.104764
	    6 R(6,7)          =      1.106151     0.000276     0.000037     1.106188
	    7 R(7,10)         =      1.540181    -0.000169    -0.000021     1.540160
	    8 R(8,10)         =      1.106150     0.000277     0.000037     1.106188
	    9 R(9,10)         =      1.104774    -0.000058    -0.000010     1.104764
	   10 R(10,14)        =      1.530833     0.000301     0.000062     1.530895
	   11 R(11,14)        =      1.102317     0.000058     0.000013     1.102331
	   12 R(12,14)        =      1.103280    -0.000007     0.000003     1.103283
	   13 R(13,14)        =      1.104033     0.000127     0.000023     1.104056
	   14 B(1,4,2)        =    107.716884     0.000001     0.003951   107.720834
	   15 B(1,4,3)        =    107.340780     0.000001     0.002906   107.343686
	   16 B(1,4,7)        =    110.952137    -0.000002    -0.009975   110.942163
	   17 B(2,4,3)        =    107.470122    -0.000000     0.000128   107.470250
	   18 B(2,4,7)        =    111.620257    -0.000000    -0.001502   111.618755
	   19 B(3,4,7)        =    111.531620     0.000001     0.004938   111.536558
	   20 B(4,7,5)        =    110.246027     0.000005    -0.003555   110.242472
	   21 B(4,7,6)        =    108.337376    -0.000006    -0.002379   108.334996
	   22 B(4,7,10)       =    113.596607     0.000000     0.000583   113.597190
	   23 B(5,7,6)        =    105.649686     0.000000     0.003779   105.653465
	   24 B(5,7,10)       =    109.949152    -0.000000     0.001790   109.950942
	   25 B(6,7,10)       =    108.729538     0.000000     0.000011   108.729549
	   26 B(7,10,8)       =    108.729706     0.000000    -0.000222   108.729485
	   27 B(7,10,9)       =    109.949078    -0.000000     0.001970   109.951048
	   28 B(7,10,14)      =    113.596543     0.000000     0.000581   113.597124
	   29 B(8,10,9)       =    105.649547     0.000000     0.003899   105.653446
	   30 B(8,10,14)      =    108.337477    -0.000006    -0.002471   108.335006
	   31 B(9,10,14)      =    110.246034     0.000005    -0.003529   110.242505
	   32 B(10,14,11)     =    111.620270    -0.000000    -0.001513   111.618757
	   33 B(10,14,12)     =    110.952119    -0.000002    -0.009979   110.942140
	   34 B(10,14,13)     =    111.531560     0.000001     0.004946   111.536505
	   35 B(11,14,12)     =    107.716927     0.000001     0.003938   107.720865
	   36 B(11,14,13)     =    107.469988    -0.000000     0.000254   107.470242
	   37 B(12,14,13)     =    107.340942     0.000001     0.002799   107.343742
	   38 D(1,4,7,5)      =   -175.258747     0.000000    -0.000182  -175.258929
	   39 D(1,4,7,6)      =    -60.098604     0.000000     0.001075   -60.097529
	   40 D(1,4,7,10)     =     60.826994    -0.000001    -0.000218    60.826777
	   41 D(2,4,7,5)      =    -55.107789     0.000000    -0.002970   -55.110759
	   42 D(2,4,7,6)      =     60.052354     0.000000    -0.001713    60.050641
	   43 D(2,4,7,10)     =   -179.022048    -0.000001    -0.003006  -179.025053
	   44 D(3,4,7,5)      =     65.125876     0.000000    -0.000439    65.125438
	   45 D(3,4,7,6)      =   -179.713981     0.000000     0.000818  -179.713162
	   46 D(3,4,7,10)     =    -58.788382    -0.000001    -0.000474   -58.788857
	   47 D(4,7,10,8)     =    -29.811580     0.000001    -0.002555   -29.814134
	   48 D(4,7,10,9)     =     85.407783     0.000002     0.003058    85.410842
	   49 D(4,7,10,14)    =   -150.516975     0.000003     0.000366  -150.516609
	   50 D(5,7,10,8)     =   -153.886916    -0.000000     0.000309  -153.886607
	   51 D(5,7,10,9)     =    -38.667553    -0.000000     0.005922   -38.661631
	   52 D(5,7,10,14)    =     85.407689     0.000002     0.003230    85.410918
	   53 D(6,7,10,8)     =     90.893609    -0.000000    -0.005193    90.888416
	   54 D(6,7,10,9)     =   -153.887028    -0.000000     0.000420  -153.886608
	   55 D(6,7,10,14)    =    -29.811786     0.000001    -0.002272   -29.814058
	   56 D(7,10,14,11)   =   -179.021529    -0.000001    -0.003723  -179.025252
	   57 D(7,10,14,12)   =     60.827462    -0.000001    -0.000909    60.826553
	   58 D(7,10,14,13)   =    -58.788068    -0.000001    -0.001034   -58.789101
	   59 D(8,10,14,11)   =     60.052629     0.000000    -0.002069    60.050559
	   60 D(8,10,14,12)   =    -60.098380     0.000000     0.000744   -60.097636
	   61 D(8,10,14,13)   =   -179.713910     0.000000     0.000620  -179.713290
	   62 D(9,10,14,11)   =    -55.107409     0.000000    -0.003432   -55.110841
	   63 D(9,10,14,12)   =   -175.258418     0.000000    -0.000618  -175.259036
	   64 D(9,10,14,13)   =     65.126052     0.000000    -0.000742    65.125310
	 ---------------------------------------------------------------------------
	 Forces used to impose fixed constraints are not included.
	  Forces zeroed: 49 

  ==> Convergence Check <==

  Measures of convergence in internal coordinates in au.
  Criteria marked as inactive (o), active & met (*), and active & unmet ( ).
  ---------------------------------------------------------------------------------------------
   Step     Total Energy     Delta E     MAX Force     RMS Force      MAX Disp      RMS Disp   
  ---------------------------------------------------------------------------------------------
    Convergence Criteria    1.00e-06 *    3.00e-04 *             o    1.20e-03 *             o
  ---------------------------------------------------------------------------------------------
      7    -158.45634014   -4.19e-06      8.87e-05 *    3.42e-05 o    1.74e-04 *    5.66e-05 o  ~
  ---------------------------------------------------------------------------------------------


  **** Optimization is complete! (in 7 steps) ****

  ==> Optimization Summary <==

  Measures of convergence in internal coordinates in au.
  --------------------------------------------------------------------------------------------------------------- ~
   Step         Total Energy             Delta E       MAX Force       RMS Force        MAX Disp        RMS Disp  ~
  --------------------------------------------------------------------------------------------------------------- ~
      1    -158.446453078533   -158.446453078533      0.02352058      0.00964499      0.02918696      0.01250469  ~
      2    -158.452355389042     -0.005902310509      0.01229257      0.00523631      0.02423387      0.01252133  ~
      3    -158.455117268781     -0.002761879739      0.00404833      0.00199073      0.04116527      0.01251001  ~
      4    -158.455998800983     -0.000881532202      0.00178857      0.00066082      0.04881818      0.01252309  ~
      5    -158.456276074954     -0.000277273971      0.00080617      0.00021496      0.02771590      0.01249775  ~
      6    -158.456335943812     -0.000059868858      0.00016353      0.00005278      0.00572216      0.00250759  ~
      7    -158.456340138781     -0.000004194969      0.00018413      0.00004119      0.00017417      0.00005665  ~
  --------------------------------------------------------------------------------------------------------------- ~

	Writing optimization data to binary file.
	Final energy is   -158.4563401387807
	Final (previous) structure:
	Cartesian Geometry (in Angstrom)
	    H    -2.3078363131   0.1335181756   0.1432772666
	    H    -2.1267992915   1.7735633230  -0.5275461499
	    H    -1.8538598609   0.3523172235  -1.5620807892
	    C    -1.7080637293   0.7540089367  -0.5441042468
	    H     0.3445027341   1.4347487427  -0.7850311524
	    H    -0.1463193041   1.1506280838   0.8828334259
	    C    -0.2308739764   0.7443484004  -0.1425233491
	    H    -0.3739107726  -1.4080340237   0.0488626810
	    H     0.7607065724  -0.8879076781  -1.1943214021
	    C     0.4072649056  -0.6570738727  -0.1733804584
	    H     1.9900352407  -1.8412305217   0.7724879233
	    H     1.1855367942  -0.6888201708   1.8666801716
	    H     2.3560929373  -0.1038127625   0.6626110015
	    C     1.5461058005  -0.8341422171   0.8341596119
	Saving final (previous) structure.
			--------------------------
			 OPTKING Finished Execution 
			--------------------------

    Final optimized geometry and variables:
    Molecular point group: c1
    Full point group: C1

    Geometry (in Angstrom), charge = 0, multiplicity = 1:

    H           -2.307836313136     0.133518175605     0.143277266641
    H           -2.126799291511     1.773563323008    -0.527546149945
    H           -1.853859860929     0.352317223456    -1.562080789192
    C           -1.708063729262     0.754008936709    -0.544104246845
    H            0.344502734053     1.434748742673    -0.785031152419
    H           -0.146319304058     1.150628083789     0.882833425940
    C           -0.230873976371     0.744348400360    -0.142523349144
    H           -0.373910772595    -1.408034023750     0.048862680990
    H            0.760706572357    -0.887907678106    -1.194321402066
    C            0.407264905620    -0.657073872662    -0.173380458367
    H            1.990035240667    -1.841230521727     0.772487923265
    H            1.185536794208    -0.688820170820     1.866680171554
    H            2.356092937312    -0.103812762522     0.662611001536
    C            1.546105800453    -0.834142217089     0.834159611881

	Cleaning optimization helper files.

*** Psi4 exiting successfully. Buy a developer a beer!
