    -----------------------------------------------------------------------
          Psi4: An Open-Source Ab Initio Electronic Structure Package
                              Psi4 1.0.0 Driver

                          Git: Rev {master} 6a9a71b 

    J. M. Turney, A. C. Simmonett, R. M. Parrish, E. G. Hohenstein,
    F. A. Evangelista, J. T. Fermann, B. J. Mintz, L. A. Burns, J. J. Wilke,
    M. L. Abrams, N. J. Russ, M. L. Leininger, C. L. Janssen, E. T. Seidl,
    W. D. Allen, H. F. Schaefer, R. A. King, E. F. Valeev, C. D. Sherrill,
    and T. D. Crawford, WIREs Comput. Mol. Sci. 2, 556-565 (2012)
    (doi: 10.1002/wcms.93)

                         Additional Contributions by
    A. E. DePrince, U. Bozkaya, A. Yu. Sokolov, D. G. A. Smith, R. Di Remigio,
    R. M. Richard, J. F. Gonthier, H. R. McAlexander, M. Saitow, and
    B. P. Pritchard
    -----------------------------------------------------------------------


    Psi4 started on: Tue Feb 21 17:40:07 2017

    Process ID:  34283
    PSI4DATADIR: /Users/sternc1/anaconda/share/psi4
    Memory level set to 256.000 MB

  ==> Input File <==

--------------------------------------------------------------------------

memory 1000 mb

molecule butane {
  symmetry C1
  0 1 
  H      1.604   0.760   -8.260
  H      1.745   2.388   -8.880
  H      2.043   1.024   -9.930
  C      2.142   1.395   -8.932
  H      4.169   2.051   -9.210
  H      3.731   1.788   -7.539
  C      3.631   1.416   -8.537
  H      4.720   -0.237   -7.703
  H      3.404   -0.710   -8.749
  C      4.203   -0.012   -8.612
  H      5.578   -1.104   -9.849
  H      5.980   0.585   -9.661
  H      4.664   0.112   -10.707
  C      5.180   -0.113   -9.797
  units Angstrom
}

dih_string = "4 7 10 14 110"
set optking fixed_dihedral = $dih_string

optimize('B3LYP/cc-PVDZ')
--------------------------------------------------------------------------

  Memory set to 1000.000 MiB by Python script.
gradient() will perform analytic gradient computation.

*** tstart() called on lski1497
*** at Tue Feb 21 17:40:09 2017


         ---------------------------------------------------------
                                   SCF
            by Justin Turney, Rob Parrish, and Andy Simmonett
                              RKS Reference
                        1 Threads,   1000 MiB Core
         ---------------------------------------------------------

  ==> Geometry <==

    Molecular point group: c1
    Full point group: C1

    Geometry (in Angstrom), charge = 0, multiplicity = 1:

       Center              X                  Y                   Z               Mass       
    ------------   -----------------  -----------------  -----------------  -----------------
           H         -2.180627073704     0.089506467163     0.723260835528     1.007825032070
           H         -2.039627073704     1.717506467163     0.103260835528     1.007825032070
           H         -1.741627073704     0.353506467163    -0.946739164472     1.007825032070
           C         -1.642627073704     0.724506467163     0.051260835528    12.000000000000
           H          0.384372926296     1.380506467163    -0.226739164472     1.007825032070
           H         -0.053627073704     1.117506467163     1.444260835528     1.007825032070
           C         -0.153627073704     0.745506467163     0.446260835528    12.000000000000
           H          0.935372926296    -0.907493532837     1.280260835528     1.007825032070
           H         -0.380627073704    -1.380493532837     0.234260835528     1.007825032070
           C          0.418372926296    -0.682493532837     0.371260835528    12.000000000000
           H          1.793372926296    -1.774493532837    -0.865739164472     1.007825032070
           H          2.195372926296    -0.085493532837    -0.677739164472     1.007825032070
           H          0.879372926296    -0.558493532837    -1.723739164472     1.007825032070
           C          1.395372926296    -0.783493532837    -0.813739164472    12.000000000000

  Running in c1 symmetry.

  Rotational constants: A =      0.55072  B =      0.13659  C =      0.13336 [cm^-1]
  Rotational constants: A =  16510.03712  B =   4094.82218  C =   3997.93474 [MHz]
  Nuclear repulsion =  132.836472697519184

  Charge       = 0
  Multiplicity = 1
  Electrons    = 34
  Nalpha       = 17
  Nbeta        = 17

  ==> Algorithm <==

  SCF Algorithm Type is DF.
  DIIS enabled.
  MOM disabled.
  Fractional occupation disabled.
  Guess Type is SAD.
  Energy threshold   = 1.00e-08
  Density threshold  = 1.00e-08
  Integral threshold = 0.00e+00

  ==> Primary Basis <==

  Basis Set: CC-PVDZ
    Number of shells: 54
    Number of basis function: 106
    Number of Cartesian functions: 110
    Spherical Harmonics?: true
    Max angular momentum: 2

  ==> DFT Potential <==

   => B3LYP Composite Functional <= 

    B3LYP Hybrid-GGA Exchange-Correlation Functional (VWN1-RPA)

    P.J. Stephens et. al., J. Phys. Chem., 98, 11623-11627, 1994

    Points   =           5000
    Deriv    =              1
    GGA      =           TRUE
    Meta     =          FALSE

    X_LRC        =          FALSE
    X_Hybrid     =           TRUE
    X_Alpha      =   2.000000E-01
    X_Omega      =   0.000000E+00
    C_LRC        =          FALSE
    C_Hybrid     =          FALSE
    C_Alpha      =   0.000000E+00
    C_Omega      =   0.000000E+00

   => Exchange Functionals <=

    0.8000    B3_X
    0.2000      HF 

   => Correlation Functionals <=

    0.1900 VWN3RPA_C
    0.8100   LYP_C

   => Molecular Quadrature <=

    Radial Scheme    =       TREUTLER
    Pruning Scheme   =           FLAT
    Nuclear Scheme   =       TREUTLER

    BS radius alpha  =              1
    Pruning alpha    =              1
    Radial Points    =             75
    Spherical Points =            302
    Total Points     =         312736
    Total Blocks     =            279
    Max Points       =           4976
    Max Functions    =            106

  ==> Pre-Iterations <==

   -------------------------------------------------------
    Irrep   Nso     Nmo     Nalpha   Nbeta   Ndocc  Nsocc
   -------------------------------------------------------
     A        106     106       0       0       0       0
   -------------------------------------------------------
    Total     106     106      17      17      17       0
   -------------------------------------------------------

  ==> Integral Setup <==

  ==> DFJK: Density-Fitted J/K Matrices <==

    J tasked:                  Yes
    K tasked:                  Yes
    wK tasked:                  No
    OpenMP threads:              1
    Integrals threads:           1
    Memory (MB):               715
    Algorithm:                Core
    Integral Cache:           NONE
    Schwarz Cutoff:          1E-12
    Fitting Condition:       1E-12

   => Auxiliary Basis Set <=

  Basis Set: 
    Number of shells: 186
    Number of basis function: 510
    Number of Cartesian functions: 574
    Spherical Harmonics?: true
    Max angular momentum: 3

  Minimum eigenvalue in the overlap matrix is 4.7924538469E-03.
  Using Symmetric Orthogonalization.
  SCF Guess: Superposition of Atomic Densities via on-the-fly atomic UHF.

  ==> Iterations <==

                           Total Energy        Delta E     RMS |[F,P]|

   @DF-RKS iter   0:  -159.06890529431189   -1.59069e+02   3.41153e-02 
   @DF-RKS iter   1:  -158.30986393180083    7.59041e-01   4.53082e-03 
   @DF-RKS iter   2:  -158.27224015604361    3.76238e-02   5.26407e-03 DIIS
   @DF-RKS iter   3:  -158.44314415498553   -1.70904e-01   3.64223e-04 DIIS
   @DF-RKS iter   4:  -158.44386809865026   -7.23944e-04   1.12442e-04 DIIS
   @DF-RKS iter   5:  -158.44392954895767   -6.14503e-05   4.50980e-05 DIIS
   @DF-RKS iter   6:  -158.44394067474877   -1.11258e-05   5.84980e-06 DIIS
   @DF-RKS iter   7:  -158.44394088223359   -2.07485e-07   9.35010e-07 DIIS
   @DF-RKS iter   8:  -158.44394088804606   -5.81247e-09   1.24823e-07 DIIS
   @DF-RKS iter   9:  -158.44394088814784   -1.01778e-10   2.60899e-08 DIIS
   @DF-RKS iter  10:  -158.44394088815193   -4.09273e-12   7.04853e-09 DIIS

  ==> Post-Iterations <==

    Orbital Energies (a.u.)
    -----------------------

    Doubly Occupied:                                                      

       1A    -10.168733     2A    -10.168519     3A    -10.164877  
       4A    -10.164760     5A     -0.795248     6A     -0.722169  
       7A     -0.633750     8A     -0.577585     9A     -0.464956  
      10A     -0.443760    11A     -0.422530    12A     -0.394411  
      13A     -0.368693    14A     -0.362769    15A     -0.332049  
      16A     -0.320940    17A     -0.310738  

    Virtual:                                                              

      18A      0.064273    19A      0.093633    20A      0.100636  
      21A      0.108032    22A      0.138713    23A      0.147685  
      24A      0.149471    25A      0.156698    26A      0.158960  
      27A      0.182761    28A      0.220789    29A      0.253567  
      30A      0.257408    31A      0.404723    32A      0.425105  
      33A      0.433077    34A      0.452618    35A      0.467508  
      36A      0.477993    37A      0.517785    38A      0.593924  
      39A      0.595301    40A      0.635105    41A      0.644204  
      42A      0.663414    43A      0.667222    44A      0.668112  
      45A      0.672863    46A      0.696512    47A      0.698096  
      48A      0.701073    49A      0.706260    50A      0.742816  
      51A      0.745823    52A      0.765514    53A      0.870226  
      54A      0.884743    55A      0.972286    56A      1.122467  
      57A      1.131667    58A      1.193006    59A      1.206115  
      60A      1.247927    61A      1.381828    62A      1.414198  
      63A      1.434175    64A      1.456058    65A      1.456350  
      66A      1.477838    67A      1.577771    68A      1.593208  
      69A      1.627879    70A      1.641571    71A      1.660000  
      72A      1.665684    73A      1.667547    74A      1.700195  
      75A      1.703650    76A      1.715652    77A      1.724945  
      78A      1.735290    79A      1.745916    80A      1.771586  
      81A      1.780612    82A      1.834874    83A      1.849753  
      84A      1.928659    85A      1.989553    86A      2.016474  
      87A      2.037273    88A      2.087862    89A      2.115614  
      90A      2.177070    91A      2.229074    92A      2.253234  
      93A      2.276803    94A      2.303235    95A      2.343525  
      96A      2.364403    97A      2.499614    98A      2.513938  
      99A      2.520913   100A      2.539194   101A      2.552165  
     102A      2.623645   103A      2.629928   104A      2.631747  
     105A      2.684116   106A      2.747455  

    Final Occupation by Irrep:
              A 
    DOCC [    17 ]

  Energy converged.

  @DF-RKS Final Energy:  -158.44394088815193

   => Energetics <=

    Nuclear Repulsion Energy =            132.8364726975191843
    One-Electron Energy =                -474.0612673155872585
    Two-Electron Energy =                 203.4628868942482143
    DFT Exchange-Correlation Energy =     -20.6820331643320579
    Empirical Dispersion Energy =           0.0000000000000000
    PCM Polarization Energy =               0.0000000000000000
    EFP Energy =                            0.0000000000000000
    Total Energy =                       -158.4439408881519284


  Saving occupied orbitals to File 180.

*** tstop() called on lski1497 at Tue Feb 21 17:42:14 2017
Module time:
	user time   =     112.08 seconds =       1.87 minutes
	system time =       1.16 seconds =       0.02 minutes
	total time  =        125 seconds =       2.08 minutes
Total time:
	user time   =     112.08 seconds =       1.87 minutes
	system time =       1.16 seconds =       0.02 minutes
	total time  =        125 seconds =       2.08 minutes


Properties will be evaluated at   0.000000,   0.000000,   0.000000 Bohr

Properties computed using the SCF density matrix

  Nuclear Dipole Moment: (a.u.)
     X:    -0.1952      Y:    -0.0449      Z:    -0.6144

  Electronic Dipole Moment: (a.u.)
     X:     0.2053      Y:     0.0467      Z:     0.6448

  Dipole Moment: (a.u.)
     X:     0.0100      Y:     0.0017      Z:     0.0304     Total:     0.0320

  Dipole Moment: (Debye)
     X:     0.0255      Y:     0.0044      Z:     0.0772     Total:     0.0814


*** tstart() called on lski1497
*** at Tue Feb 21 17:42:14 2017


         ------------------------------------------------------------
                                   SCF GRAD                          
                          Rob Parrish, Justin Turney,                
                       Andy Simmonett, and Alex Sokolov              
         ------------------------------------------------------------

  ==> Geometry <==

    Molecular point group: c1
    Full point group: C1

    Geometry (in Angstrom), charge = 0, multiplicity = 1:

       Center              X                  Y                   Z               Mass       
    ------------   -----------------  -----------------  -----------------  -----------------
           H         -2.180627073704     0.089506467163     0.723260835528     1.007825032070
           H         -2.039627073704     1.717506467163     0.103260835528     1.007825032070
           H         -1.741627073704     0.353506467163    -0.946739164472     1.007825032070
           C         -1.642627073704     0.724506467163     0.051260835528    12.000000000000
           H          0.384372926296     1.380506467163    -0.226739164472     1.007825032070
           H         -0.053627073704     1.117506467163     1.444260835528     1.007825032070
           C         -0.153627073704     0.745506467163     0.446260835528    12.000000000000
           H          0.935372926296    -0.907493532837     1.280260835528     1.007825032070
           H         -0.380627073704    -1.380493532837     0.234260835528     1.007825032070
           C          0.418372926296    -0.682493532837     0.371260835528    12.000000000000
           H          1.793372926296    -1.774493532837    -0.865739164472     1.007825032070
           H          2.195372926296    -0.085493532837    -0.677739164472     1.007825032070
           H          0.879372926296    -0.558493532837    -1.723739164472     1.007825032070
           C          1.395372926296    -0.783493532837    -0.813739164472    12.000000000000

  Nuclear repulsion =  132.836472697519184

  ==> Basis Set <==

  Basis Set: CC-PVDZ
    Number of shells: 54
    Number of basis function: 106
    Number of Cartesian functions: 110
    Spherical Harmonics?: true
    Max angular momentum: 2

  ==> DFJKGrad: Density-Fitted SCF Gradients <==

    Gradient:                    1
    J tasked:                  Yes
    K tasked:                  Yes
    wK tasked:                  No
    OpenMP threads:              1
    Integrals threads:           1
    Memory (MB):               715
    Schwarz Cutoff:          0E+00
    Fitting Condition:       1E-12

   => Auxiliary Basis Set <=

  Basis Set: 
    Number of shells: 186
    Number of basis function: 510
    Number of Cartesian functions: 574
    Spherical Harmonics?: true
    Max angular momentum: 3

  ==> DFT Potential <==

   => B3LYP Composite Functional <= 

    B3LYP Hybrid-GGA Exchange-Correlation Functional (VWN1-RPA)

    P.J. Stephens et. al., J. Phys. Chem., 98, 11623-11627, 1994

    Points   =           5000
    Deriv    =              1
    GGA      =           TRUE
    Meta     =          FALSE

    X_LRC        =          FALSE
    X_Hybrid     =           TRUE
    X_Alpha      =   2.000000E-01
    X_Omega      =   0.000000E+00
    C_LRC        =          FALSE
    C_Hybrid     =          FALSE
    C_Alpha      =   0.000000E+00
    C_Omega      =   0.000000E+00

   => Exchange Functionals <=

    0.8000    B3_X
    0.2000      HF 

   => Correlation Functionals <=

    0.1900 VWN3RPA_C
    0.8100   LYP_C

   => Molecular Quadrature <=

    Radial Scheme    =       TREUTLER
    Pruning Scheme   =           FLAT
    Nuclear Scheme   =       TREUTLER

    BS radius alpha  =              1
    Pruning alpha    =              1
    Radial Points    =             75
    Spherical Points =            302
    Total Points     =         312736
    Total Blocks     =            279
    Max Points       =           4976
    Max Functions    =            106


  -Total Gradient:
     Atom            X                  Y                   Z
    ------   -----------------  -----------------  -----------------
       1        0.013943513715     0.012644525937    -0.012670509371
       2        0.012883865150    -0.019054916895     0.000686258813
       3        0.005339595774     0.007919387331     0.021492506698
       4       -0.029183265496    -0.009736776840    -0.009232222172
       5       -0.011767665754    -0.015942193966     0.010679736052
       6       -0.002344500516    -0.011930620731    -0.019729705392
       7        0.025219708819     0.028038424027     0.004852289623
       8       -0.010142607835     0.008931770182    -0.018944361095
       9        0.015467235726     0.016944006959    -0.000453657297
      10       -0.016347098142    -0.026151981646     0.021969681012
      11       -0.011259355299     0.020606409376     0.005460667109
      12       -0.017766676016    -0.013364866693    -0.000326538127
      13        0.008388017188    -0.004417573172     0.020961980193
      14        0.017569460230     0.005514234082    -0.024745384182


*** tstop() called on lski1497 at Tue Feb 21 17:43:01 2017
Module time:
	user time   =      43.50 seconds =       0.73 minutes
	system time =       0.52 seconds =       0.01 minutes
	total time  =         47 seconds =       0.78 minutes
Total time:
	user time   =     155.60 seconds =       2.59 minutes
	system time =       1.68 seconds =       0.03 minutes
	total time  =        172 seconds =       2.87 minutes

			-----------------------------------------
			 OPTKING 2.0: for geometry optimizations 
			  - R.A. King,  Bethel University        
			-----------------------------------------

	Internal coordinates to be generated automatically.
	Detected frag 1 with atoms:  1 2 3 4 5 6 7 8 9 10 11 12 13 14
	---Fragment 1 Bond Connectivity---
	 1 : 4
	 2 : 4
	 3 : 4
	 4 : 1 2 3 7
	 5 : 7
	 6 : 7
	 7 : 4 5 6 10
	 8 : 10
	 9 : 10
	 10 : 7 8 9 14
	 11 : 14
	 12 : 14
	 13 : 14
	 14 : 10 11 12 13

	Assuming in current code that numbering for constraints corresponds to unified fragment.
	Fixed dihedral atom list: 
	     4     7    10    14
	---Fragment 1 Geometry and Gradient---
	 H          -4.1207879673        0.1691427101        1.3667649018
	 H          -3.8543365825        3.2456168544        0.1951346994
	 H          -3.2911981949        0.6680304091       -1.7890777401
	 C          -3.1041153078        1.3691188044        0.0968689405
	 H           0.7263595636        2.6087791476       -0.4284749245
	 H          -0.1013404826        2.1117811747        2.7292574436
	 C          -0.2903130959        1.4088030532        0.8433107630
	 H           1.7675986628       -1.7149142444        2.4193423578
	 H          -0.7192809281       -2.6087547053        0.4426888228
	 C           0.7906102521       -1.2897258645        0.7015813030
	 H           3.3889836848       -3.3533068016       -1.6360099234
	 H           4.1486535903       -0.1615593632       -1.2807414104
	 H           1.6617739994       -1.0553998240       -3.2573949454
	 C           2.6368726839       -1.4805882039       -1.5377441645
	             0.0139435137        0.0126445259       -0.0126705094
	             0.0128838652       -0.0190549169        0.0006862588
	             0.0053395958        0.0079193873        0.0214925067
	            -0.0291832655       -0.0097367768       -0.0092322222
	            -0.0117676658       -0.0159421940        0.0106797361
	            -0.0023445005       -0.0119306207       -0.0197297054
	             0.0252197088        0.0280384240        0.0048522896
	            -0.0101426078        0.0089317702       -0.0189443611
	             0.0154672357        0.0169440070       -0.0004536573
	            -0.0163470981       -0.0261519816        0.0219696810
	            -0.0112593553        0.0206064094        0.0054606671
	            -0.0177666760       -0.0133648667       -0.0003265381
	             0.0083880172       -0.0044175732        0.0209619802
	             0.0175694602        0.0055142341       -0.0247453842

	Previous optimization step data not found.  Starting new optimization.

	---Fragment 1 Intrafragment Coordinates---
	 - Coordinate -           - BOHR/RAD -       - ANG/DEG -
	 R(1,4)           =         2.021436	       1.069698
	 R(2,4)           =         2.023298	       1.070683
	 R(3,4)           =         2.020723	       1.069320
	 R(4,7)           =         2.911397	       1.540645
	 R(5,7)           =         2.022623	       1.070326
	 R(6,7)           =         2.021555	       1.069761
	 R(7,10)          =         2.910419	       1.540128
	 R(8,10)          =         2.021384	       1.069671
	 R(9,10)          =         2.021542	       1.069754
	 R(10,14)         =         2.908555	       1.539141
	 R(11,14)         =         2.020495	       1.069200
	 R(12,14)         =         2.022713	       1.070374
	 R(13,14)         =         2.022078	       1.070038
	 B(1,4,2)         =         1.910870	     109.484805
	 B(1,4,3)         =         1.911121	     109.499161
	 B(1,4,7)         =         1.910399	     109.457783
	 B(2,4,3)         =         1.910042	     109.437340
	 B(2,4,7)         =         1.910564	     109.467262
	 B(3,4,7)         =         1.910803	     109.480971
	 B(4,7,5)         =         1.909937	     109.431343
	 B(4,7,6)         =         1.911630	     109.528316
	 B(4,7,10)        =         1.911154	     109.501062
	 B(5,7,6)         =         1.910605	     109.469614
	 B(5,7,10)        =         1.910047	     109.437654
	 B(6,7,10)        =         1.910425	     109.459295
	 B(7,10,8)        =         1.910444	     109.460375
	 B(7,10,9)        =         1.911152	     109.500917
	 B(7,10,14)       =         1.911434	     109.517096
	 B(8,10,9)        =         1.909834	     109.425439
	 B(8,10,14)       =         1.910981	     109.491145
	 B(9,10,14)       =         1.909954	     109.432317
	 B(10,14,11)      =         1.911927	     109.545355
	 B(10,14,12)      =         1.911142	     109.500363
	 B(10,14,13)      =         1.912252	     109.563987
	 B(11,14,12)      =         1.909622	     109.413283
	 B(11,14,13)      =         1.910319	     109.453239
	 B(12,14,13)      =         1.908532	     109.350812
	 D(1,4,7,5)       =         3.140997	     179.965873
	 D(1,4,7,6)       =        -1.047644	     -60.025575
	 D(1,4,7,10)      =         1.047427	      60.013132
	 D(2,4,7,5)       =        -1.047689	     -60.028143
	 D(2,4,7,6)       =         1.046856	      59.980409
	 D(2,4,7,10)      =        -3.141259	    -179.980883
	 D(3,4,7,5)       =         1.046044	      59.933911
	 D(3,4,7,6)       =         3.140588	     179.942463
	 D(3,4,7,10)      =        -1.047526	     -60.018830
	 D(4,7,10,8)      =        -2.268367	    -129.967857
	 D(4,7,10,9)      =        -0.174749	     -10.012389
	 D(4,7,10,14)     =         1.919623	     109.986272
	 D(5,7,10,8)      =         1.921315	     110.083268
	 D(5,7,10,9)      =        -2.268252	    -129.961265
	 D(5,7,10,14)     =        -0.173880	      -9.962604
	 D(6,7,10,8)      =        -0.172559	      -9.886931
	 D(6,7,10,9)      =         1.921058	     110.068536
	 D(6,7,10,14)     =        -2.267755	    -129.932803
	 D(7,10,14,11)    =         3.140782	     179.953559
	 D(7,10,14,12)    =         1.046521	      59.961226
	 D(7,10,14,13)    =        -1.046603	     -59.965961
	 D(8,10,14,11)    =         1.045915	      59.926507
	 D(8,10,14,12)    =        -1.048346	     -60.065826
	 D(8,10,14,13)    =        -3.141471	    -179.993013
	 D(9,10,14,11)    =        -1.047299	     -60.005815
	 D(9,10,14,12)    =        -3.141560	    -179.998148
	 D(9,10,14,13)    =         1.048501	      60.074665

	Current energy   :      -158.4439408882

	Generating empirical Hessian (Schlegel '84) for each fragment.
	Adding user-defined constraint: Fragment 1; Coordinate 49:
		Value =     1.919623; Fixed value    =     1.919862
		Force =     0.000120; Force constant =     0.500000
	Removing off-diagonal coupling between coordinate 49 and others.
	Taking RFO optimization step.
	Going to follow RFO solution 1.
	Using RFO vector 1.

	Determining step-restricting scale parameter for RS-RFO.
	Maximum step size allowed    0.10000

	 Iter      |step|        alpha        rfo_root  
	------------------------------------------------
	    0     0.26526       1.00000           1
	    1     0.19409       6.15567           1
	    2     0.14354      19.38867           1
	    3     0.11452      38.89340           1
	    4     0.10250      53.13122           1
	    5     0.10010      56.68090           1
	    6     0.10000      56.82926           1
	------------------------------------------------
	Norm of target step-size    0.10000
	Projected energy change by RFO approximation:        -0.0076652513

	Back-transformation to cartesian coordinates...
	Successfully converged to displaced geometry.

	--- Internal Coordinate Step in ANG or DEG, aJ/ANG or AJ/DEG ---
	 ---------------------------------------------------------------------------
	   Coordinate                Previous        Force       Change         New 
	   ----------                --------       ------       ------       ------
	    1 R(1,4)          =      1.069698     0.185188     0.014696     1.084394
	    2 R(2,4)          =      1.070683     0.184688     0.014679     1.085362
	    3 R(3,4)          =      1.069320     0.191968     0.015225     1.084546
	    4 R(4,7)          =      1.540645     0.023403     0.002084     1.542729
	    5 R(5,7)          =      1.070326     0.181983     0.014456     1.084782
	    6 R(6,7)          =      1.069761     0.187630     0.014892     1.084652
	    7 R(7,10)         =      1.540128     0.106303     0.009460     1.549588
	    8 R(8,10)         =      1.069671     0.188500     0.014958     1.084629
	    9 R(9,10)         =      1.069754     0.185788     0.014745     1.084499
	   10 R(10,14)        =      1.539141     0.029109     0.002587     1.541728
	   11 R(11,14)        =      1.069200     0.194079     0.015390     1.084590
	   12 R(12,14)        =      1.070374     0.181538     0.014422     1.084796
	   13 R(13,14)        =      1.070038     0.187846     0.014915     1.084953
	   14 B(1,4,2)        =    109.484805    -0.000316    -0.396104   109.088700
	   15 B(1,4,3)        =    109.499161    -0.000241    -0.309469   109.189692
	   16 B(1,4,7)        =    109.457783     0.000197     0.243320   109.701102
	   17 B(2,4,3)        =    109.437340    -0.000326    -0.412369   109.024972
	   18 B(2,4,7)        =    109.467262     0.000479     0.609653   110.076915
	   19 B(3,4,7)        =    109.480971     0.000208     0.257601   109.738572
	   20 B(4,7,5)        =    109.431343    -0.000251    -0.285837   109.145505
	   21 B(4,7,6)        =    109.528316    -0.000305    -0.361454   109.166862
	   22 B(4,7,10)       =    109.501062     0.000893     1.056873   110.557935
	   23 B(5,7,6)        =    109.469614    -0.000021    -0.124440   109.345173
	   24 B(5,7,10)       =    109.437654    -0.000210    -0.216333   109.221321
	   25 B(6,7,10)       =    109.459295    -0.000105    -0.073686   109.385609
	   26 B(7,10,8)       =    109.460375    -0.000108    -0.077133   109.383242
	   27 B(7,10,9)       =    109.500917    -0.000217    -0.227430   109.273487
	   28 B(7,10,14)      =    109.517096     0.000896     1.060818   110.577913
	   29 B(8,10,9)       =    109.425439    -0.000019    -0.121284   109.304155
	   30 B(8,10,14)      =    109.491145    -0.000303    -0.357436   109.133709
	   31 B(9,10,14)      =    109.432317    -0.000250    -0.283272   109.149045
	   32 B(10,14,11)     =    109.545355     0.000471     0.599287   110.144643
	   33 B(10,14,12)     =    109.500363     0.000188     0.233458   109.733821
	   34 B(10,14,13)     =    109.563987     0.000196     0.243002   109.806989
	   35 B(11,14,12)     =    109.413283    -0.000307    -0.384452   109.028831
	   36 B(11,14,13)     =    109.453239    -0.000323    -0.409180   109.044059
	   37 B(12,14,13)     =    109.350812    -0.000227    -0.291996   109.058816
	   38 D(1,4,7,5)      =    179.965873     0.000035     0.228895   180.194768
	   39 D(1,4,7,6)      =    -60.025575    -0.000049    -0.313803   -60.339378
	   40 D(1,4,7,10)     =     60.013132     0.000004     0.022851    60.035983
	   41 D(2,4,7,5)      =    -60.028143     0.000041     0.270010   -59.758132
	   42 D(2,4,7,6)      =     59.980409    -0.000043    -0.272687    59.707722
	   43 D(2,4,7,10)     =   -179.980883     0.000010     0.063966  -179.916917
	   44 D(3,4,7,5)      =     59.933911     0.000046     0.299950    60.233861
	   45 D(3,4,7,6)      =    179.942463    -0.000038    -0.242748   179.699715
	   46 D(3,4,7,10)     =    -60.018830     0.000015     0.093906   -59.924924
	   47 D(4,7,10,8)     =   -129.967857     0.000019     0.123244  -129.844613
	   48 D(4,7,10,9)     =    -10.012389    -0.000032    -0.210016   -10.222405
	   49 D(4,7,10,14)    =    109.986272    -0.000007    -0.045328   109.940944
	   50 D(5,7,10,8)     =    110.083268    -0.000006    -0.041228   110.042040
	   51 D(5,7,10,9)     =   -129.961265    -0.000057    -0.374488  -130.335753
	   52 D(5,7,10,14)    =     -9.962604    -0.000032    -0.209800   -10.172404
	   53 D(6,7,10,8)     =     -9.886931     0.000044     0.286813    -9.600118
	   54 D(6,7,10,9)     =    110.068536    -0.000007    -0.046447   110.022090
	   55 D(6,7,10,14)    =   -129.932803     0.000018     0.118242  -129.814561
	   56 D(7,10,14,11)   =    179.953559     0.000011     0.070876   180.024435
	   57 D(7,10,14,12)   =     59.961226     0.000005     0.027055    59.988281
	   58 D(7,10,14,13)   =    -59.965961     0.000015     0.091617   -59.874345
	   59 D(8,10,14,11)   =     59.926507    -0.000042    -0.265777    59.660731
	   60 D(8,10,14,12)   =    -60.065826    -0.000049    -0.309597   -60.375423
	   61 D(8,10,14,13)   =   -179.993013    -0.000039    -0.245035  -180.238048
	   62 D(9,10,14,11)   =    -60.005815     0.000041     0.268101   -59.737713
	   63 D(9,10,14,12)   =   -179.998148     0.000034     0.224280  -179.773867
	   64 D(9,10,14,13)   =     60.074665     0.000044     0.288843    60.363507
	 ---------------------------------------------------------------------------
	 Forces used to impose fixed constraints are not included.
	  Forces zeroed: 49 

  ==> Convergence Check <==

  Measures of convergence in internal coordinates in au.
  Criteria marked as inactive (o), active & met (*), and active & unmet ( ).
  --------------------------------------------------------------------------------------------- ~
   Step     Total Energy     Delta E     MAX Force     RMS Force      MAX Disp      RMS Disp    ~
  --------------------------------------------------------------------------------------------- ~
    Convergence Criteria    1.00e-06 *    3.00e-04 *             o    1.20e-03 *             o  ~
  --------------------------------------------------------------------------------------------- ~
      1    -158.44394089   -1.58e+02      2.36e-02      9.66e-03 o    2.91e-02      1.25e-02 o  ~
  ---------------------------------------------------------------------------------------------

	Writing optimization data to binary file.
	Structure for next step:
	Cartesian Geometry (in Angstrom)
	    H    -2.2078584411   0.0613152503   0.7354380977
	    H    -2.0848947913   1.7153784143   0.1249610208
	    H    -1.7732548169   0.3510085799  -0.9534937949
	    C    -1.6658959941   0.7161298981   0.0620848360
	    H     0.3592973678   1.4020639150  -0.2252787733
	    H    -0.0762813320   1.1135470643   1.4658088291
	    C    -0.1733025271   0.7422746894   0.4513068611
	    H     0.9659020206  -0.9016539546   1.2837555899
	    H    -0.3589934730  -1.4025851751   0.2235695679
	    C     0.4369704497  -0.6793594522   0.3633010168
	    H     1.8427774209  -1.7720231626  -0.8755683938
	    H     2.2232858954  -0.0572743293  -0.6879887484
	    H     0.9011226264  -0.5581191938  -1.7479811304
	    C     1.4203465627  -0.7746120034  -0.8202632812
			--------------------------
			 OPTKING Finished Execution 
			--------------------------

    Structure for next step:
    Molecular point group: c1
    Full point group: C1

    Geometry (in Angstrom), charge = 0, multiplicity = 1:

    H           -2.207977069674     0.061238169638     0.735175759354
    H           -2.085013419873     1.715301333699     0.124698682428
    H           -1.773373445476     0.350931499226    -0.953756133235
    C           -1.666014622743     0.716052817485     0.061822497643
    H            0.359178739251     1.401986834316    -0.225541111624
    H           -0.076399960607     1.113469983655     1.465546490768
    C           -0.173421155677     0.742197608728     0.451044522809
    H            0.965783391962    -0.901731035288     1.283493251583
    H           -0.359112101609    -1.402662255707     0.223307229612
    C            0.436851821140    -0.679436532808     0.363038678493
    H            1.842658792336    -1.772100243218    -0.875830732098
    H            2.223167266831    -0.057351409994    -0.688251086738
    H            0.901003997836    -0.558196274399    -1.748243468690
    C            1.420227934077    -0.774689084073    -0.820525619484

gradient() will perform analytic gradient computation.

*** tstart() called on lski1497
*** at Tue Feb 21 17:43:02 2017


         ---------------------------------------------------------
                                   SCF
            by Justin Turney, Rob Parrish, and Andy Simmonett
                              RKS Reference
                        1 Threads,   1000 MiB Core
         ---------------------------------------------------------

  ==> Geometry <==

    Molecular point group: c1
    Full point group: C1

    Geometry (in Angstrom), charge = 0, multiplicity = 1:

       Center              X                  Y                   Z               Mass       
    ------------   -----------------  -----------------  -----------------  -----------------
           H         -2.207977069674     0.061238169638     0.735175759354     1.007825032070
           H         -2.085013419873     1.715301333699     0.124698682428     1.007825032070
           H         -1.773373445476     0.350931499226    -0.953756133235     1.007825032070
           C         -1.666014622743     0.716052817485     0.061822497643    12.000000000000
           H          0.359178739251     1.401986834316    -0.225541111624     1.007825032070
           H         -0.076399960607     1.113469983655     1.465546490768     1.007825032070
           C         -0.173421155677     0.742197608728     0.451044522809    12.000000000000
           H          0.965783391962    -0.901731035288     1.283493251583     1.007825032070
           H         -0.359112101609    -1.402662255707     0.223307229612     1.007825032070
           C          0.436851821140    -0.679436532808     0.363038678493    12.000000000000
           H          1.842658792336    -1.772100243218    -0.875830732098     1.007825032070
           H          2.223167266831    -0.057351409994    -0.688251086738     1.007825032070
           H          0.901003997836    -0.558196274399    -1.748243468690     1.007825032070
           C          1.420227934077    -0.774689084073    -0.820525619484    12.000000000000

  Running in c1 symmetry.

  Rotational constants: A =      0.54946  B =      0.13362  C =      0.13042 [cm^-1]
  Rotational constants: A =  16472.51727  B =   4005.68828  C =   3910.02177 [MHz]
  Nuclear repulsion =  131.655964185617279

  Charge       = 0
  Multiplicity = 1
  Electrons    = 34
  Nalpha       = 17
  Nbeta        = 17

  ==> Algorithm <==

  SCF Algorithm Type is DF.
  DIIS enabled.
  MOM disabled.
  Fractional occupation disabled.
  Guess Type is READ.
  Energy threshold   = 1.00e-08
  Density threshold  = 1.00e-08
  Integral threshold = 0.00e+00

  ==> Primary Basis <==

  Basis Set: CC-PVDZ
    Number of shells: 54
    Number of basis function: 106
    Number of Cartesian functions: 110
    Spherical Harmonics?: true
    Max angular momentum: 2

  ==> DFT Potential <==

   => B3LYP Composite Functional <= 

    B3LYP Hybrid-GGA Exchange-Correlation Functional (VWN1-RPA)

    P.J. Stephens et. al., J. Phys. Chem., 98, 11623-11627, 1994

    Points   =           5000
    Deriv    =              1
    GGA      =           TRUE
    Meta     =          FALSE

    X_LRC        =          FALSE
    X_Hybrid     =           TRUE
    X_Alpha      =   2.000000E-01
    X_Omega      =   0.000000E+00
    C_LRC        =          FALSE
    C_Hybrid     =          FALSE
    C_Alpha      =   0.000000E+00
    C_Omega      =   0.000000E+00

   => Exchange Functionals <=

    0.8000    B3_X
    0.2000      HF 

   => Correlation Functionals <=

    0.1900 VWN3RPA_C
    0.8100   LYP_C

   => Molecular Quadrature <=

    Radial Scheme    =       TREUTLER
    Pruning Scheme   =           FLAT
    Nuclear Scheme   =       TREUTLER

    BS radius alpha  =              1
    Pruning alpha    =              1
    Radial Points    =             75
    Spherical Points =            302
    Total Points     =         312759
    Total Blocks     =            278
    Max Points       =           4993
    Max Functions    =            106

  ==> Pre-Iterations <==

   -------------------------------------------------------
    Irrep   Nso     Nmo     Nalpha   Nbeta   Ndocc  Nsocc
   -------------------------------------------------------
     A        106     106       0       0       0       0
   -------------------------------------------------------
    Total     106     106      17      17      17       0
   -------------------------------------------------------

  ==> Integral Setup <==

  ==> DFJK: Density-Fitted J/K Matrices <==

    J tasked:                  Yes
    K tasked:                  Yes
    wK tasked:                  No
    OpenMP threads:              1
    Integrals threads:           1
    Memory (MB):               715
    Algorithm:                Core
    Integral Cache:           NONE
    Schwarz Cutoff:          1E-12
    Fitting Condition:       1E-12

   => Auxiliary Basis Set <=

  Basis Set: 
    Number of shells: 186
    Number of basis function: 510
    Number of Cartesian functions: 574
    Spherical Harmonics?: true
    Max angular momentum: 3

  Minimum eigenvalue in the overlap matrix is 4.9083101409E-03.
  Using Symmetric Orthogonalization.
  SCF Guess was Projection but file not found.
  Switching over to SAD guess.

  SCF Guess: Superposition of Atomic Densities via on-the-fly atomic UHF.

  ==> Iterations <==

                           Total Energy        Delta E     RMS |[F,P]|

   @DF-RKS iter   0:  -158.99803766268803   -1.58998e+02   3.32693e-02 
   @DF-RKS iter   1:  -158.32353288631543    6.74505e-01   4.37739e-03 
   @DF-RKS iter   2:  -158.28486778571386    3.86651e-02   5.13962e-03 DIIS
   @DF-RKS iter   3:  -158.44908851731662   -1.64221e-01   3.56224e-04 DIIS
   @DF-RKS iter   4:  -158.44979088317999   -7.02366e-04   1.08466e-04 DIIS
   @DF-RKS iter   5:  -158.44984773843049   -5.68553e-05   4.52186e-05 DIIS
   @DF-RKS iter   6:  -158.44985898002491   -1.12416e-05   5.81535e-06 DIIS
   @DF-RKS iter   7:  -158.44985918595938   -2.05934e-07   9.29664e-07 DIIS
   @DF-RKS iter   8:  -158.44985919176554   -5.80616e-09   1.27972e-07 DIIS
   @DF-RKS iter   9:  -158.44985919187462   -1.09083e-10   2.57037e-08 DIIS
   @DF-RKS iter  10:  -158.44985919187872   -4.09273e-12   5.84511e-09 DIIS

  ==> Post-Iterations <==

    Orbital Energies (a.u.)
    -----------------------

    Doubly Occupied:                                                      

       1A    -10.173843     2A    -10.173668     3A    -10.170148  
       4A    -10.170078     5A     -0.791202     6A     -0.719725  
       7A     -0.630656     8A     -0.573508     9A     -0.461341  
      10A     -0.441221    11A     -0.419837    12A     -0.392739  
      13A     -0.366557    14A     -0.360913    15A     -0.329484  
      16A     -0.319639    17A     -0.313187  

    Virtual:                                                              

      18A      0.061963    19A      0.091235    20A      0.098172  
      21A      0.105639    22A      0.136069    23A      0.145221  
      24A      0.146113    25A      0.152797    26A      0.155412  
      27A      0.177724    28A      0.217210    29A      0.252625  
      30A      0.256726    31A      0.401750    32A      0.423984  
      33A      0.429471    34A      0.448837    35A      0.466994  
      36A      0.478188    37A      0.518157    38A      0.586755  
      39A      0.592378    40A      0.627770    41A      0.637215  
      42A      0.655709    43A      0.659999    44A      0.661142  
      45A      0.668395    46A      0.687580    47A      0.690459  
      48A      0.696867    49A      0.698107    50A      0.732776  
      51A      0.733388    52A      0.760720    53A      0.868626  
      54A      0.883470    55A      0.969300    56A      1.120976  
      57A      1.125788    58A      1.183215    59A      1.201518  
      60A      1.241713    61A      1.369916    62A      1.405238  
      63A      1.426297    64A      1.444825    65A      1.449814  
      66A      1.465420    67A      1.575000    68A      1.579189  
      69A      1.615714    70A      1.633616    71A      1.650785  
      72A      1.652388    73A      1.659429    74A      1.688044  
      75A      1.691442    76A      1.701142    77A      1.716642  
      78A      1.725200    79A      1.735221    80A      1.755432  
      81A      1.765902    82A      1.818210    83A      1.844546  
      84A      1.912163    85A      1.968779    86A      2.008600  
      87A      2.030571    88A      2.069060    89A      2.092933  
      90A      2.158030    91A      2.206365    92A      2.228881  
      93A      2.253580    94A      2.282101    95A      2.314623  
      96A      2.332517    97A      2.456308    98A      2.471605  
      99A      2.490298   100A      2.505999   101A      2.526797  
     102A      2.592092   103A      2.596772   104A      2.600125  
     105A      2.654934   106A      2.717805  

    Final Occupation by Irrep:
              A 
    DOCC [    17 ]

  Energy converged.

  @DF-RKS Final Energy:  -158.44985919187872

   => Energetics <=

    Nuclear Repulsion Energy =            131.6559641856172789
    One-Electron Energy =                -471.7635481464582767
    Two-Electron Energy =                 202.2907186182466717
    DFT Exchange-Correlation Energy =     -20.6329938492843823
    Empirical Dispersion Energy =           0.0000000000000000
    PCM Polarization Energy =               0.0000000000000000
    EFP Energy =                            0.0000000000000000
    Total Energy =                       -158.4498591918787156


  Saving occupied orbitals to File 180.

*** tstop() called on lski1497 at Tue Feb 21 17:45:06 2017
Module time:
	user time   =     101.80 seconds =       1.70 minutes
	system time =       1.03 seconds =       0.02 minutes
	total time  =        124 seconds =       2.07 minutes
Total time:
	user time   =     257.96 seconds =       4.30 minutes
	system time =       2.73 seconds =       0.05 minutes
	total time  =        297 seconds =       4.95 minutes


Properties will be evaluated at   0.000000,   0.000000,   0.000000 Bohr

Properties computed using the SCF density matrix

  Nuclear Dipole Moment: (a.u.)
     X:    -0.1969      Y:    -0.0460      Z:    -0.6182

  Electronic Dipole Moment: (a.u.)
     X:     0.2062      Y:     0.0480      Z:     0.6464

  Dipole Moment: (a.u.)
     X:     0.0093      Y:     0.0019      Z:     0.0283     Total:     0.0298

  Dipole Moment: (Debye)
     X:     0.0235      Y:     0.0049      Z:     0.0718     Total:     0.0757


*** tstart() called on lski1497
*** at Tue Feb 21 17:45:06 2017


         ------------------------------------------------------------
                                   SCF GRAD                          
                          Rob Parrish, Justin Turney,                
                       Andy Simmonett, and Alex Sokolov              
         ------------------------------------------------------------

  ==> Geometry <==

    Molecular point group: c1
    Full point group: C1

    Geometry (in Angstrom), charge = 0, multiplicity = 1:

       Center              X                  Y                   Z               Mass       
    ------------   -----------------  -----------------  -----------------  -----------------
           H         -2.207977069674     0.061238169638     0.735175759354     1.007825032070
           H         -2.085013419873     1.715301333699     0.124698682428     1.007825032070
           H         -1.773373445476     0.350931499226    -0.953756133235     1.007825032070
           C         -1.666014622743     0.716052817485     0.061822497643    12.000000000000
           H          0.359178739251     1.401986834316    -0.225541111624     1.007825032070
           H         -0.076399960607     1.113469983655     1.465546490768     1.007825032070
           C         -0.173421155677     0.742197608728     0.451044522809    12.000000000000
           H          0.965783391962    -0.901731035288     1.283493251583     1.007825032070
           H         -0.359112101609    -1.402662255707     0.223307229612     1.007825032070
           C          0.436851821140    -0.679436532808     0.363038678493    12.000000000000
           H          1.842658792336    -1.772100243218    -0.875830732098     1.007825032070
           H          2.223167266831    -0.057351409994    -0.688251086738     1.007825032070
           H          0.901003997836    -0.558196274399    -1.748243468690     1.007825032070
           C          1.420227934077    -0.774689084073    -0.820525619484    12.000000000000

  Nuclear repulsion =  131.655964185617279

  ==> Basis Set <==

  Basis Set: CC-PVDZ
    Number of shells: 54
    Number of basis function: 106
    Number of Cartesian functions: 110
    Spherical Harmonics?: true
    Max angular momentum: 2

  ==> DFJKGrad: Density-Fitted SCF Gradients <==

    Gradient:                    1
    J tasked:                  Yes
    K tasked:                  Yes
    wK tasked:                  No
    OpenMP threads:              1
    Integrals threads:           1
    Memory (MB):               715
    Schwarz Cutoff:          0E+00
    Fitting Condition:       1E-12

   => Auxiliary Basis Set <=

  Basis Set: 
    Number of shells: 186
    Number of basis function: 510
    Number of Cartesian functions: 574
    Spherical Harmonics?: true
    Max angular momentum: 3

  ==> DFT Potential <==

   => B3LYP Composite Functional <= 

    B3LYP Hybrid-GGA Exchange-Correlation Functional (VWN1-RPA)

    P.J. Stephens et. al., J. Phys. Chem., 98, 11623-11627, 1994

    Points   =           5000
    Deriv    =              1
    GGA      =           TRUE
    Meta     =          FALSE

    X_LRC        =          FALSE
    X_Hybrid     =           TRUE
    X_Alpha      =   2.000000E-01
    X_Omega      =   0.000000E+00
    C_LRC        =          FALSE
    C_Hybrid     =          FALSE
    C_Alpha      =   0.000000E+00
    C_Omega      =   0.000000E+00

   => Exchange Functionals <=

    0.8000    B3_X
    0.2000      HF 

   => Correlation Functionals <=

    0.1900 VWN3RPA_C
    0.8100   LYP_C

   => Molecular Quadrature <=

    Radial Scheme    =       TREUTLER
    Pruning Scheme   =           FLAT
    Nuclear Scheme   =       TREUTLER

    BS radius alpha  =              1
    Pruning alpha    =              1
    Radial Points    =             75
    Spherical Points =            302
    Total Points     =         312759
    Total Blocks     =            278
    Max Points       =           4993
    Max Functions    =            106


  -Total Gradient:
     Atom            X                  Y                   Z
    ------   -----------------  -----------------  -----------------
       1        0.008219563705     0.006643878255    -0.006008560975
       2        0.007694684200    -0.009317573852     0.000634862934
       3        0.004019876505     0.004122115746     0.011147809641
       4       -0.020031605760    -0.006807269820    -0.005913044954
       5       -0.006725942872    -0.009922969291     0.003978195073
       6       -0.001869692220    -0.007770777258    -0.009615232268
       7        0.017244982447     0.020643647008     0.003226427377
       8       -0.004431753040     0.006246608007    -0.009929932924
       9        0.007546911013     0.010139617430    -0.002064439795
      10       -0.011163423015    -0.019238062314     0.015115893056
      11       -0.006419019597     0.010182117005     0.003713087579
      12       -0.009689023105    -0.006891580136     0.000809686615
      13        0.003393264059    -0.002203190963     0.011593869526
      14        0.012211063471     0.004173319770    -0.016688762935


*** tstop() called on lski1497 at Tue Feb 21 17:45:52 2017
Module time:
	user time   =      40.60 seconds =       0.68 minutes
	system time =       0.50 seconds =       0.01 minutes
	total time  =         46 seconds =       0.77 minutes
Total time:
	user time   =     298.58 seconds =       4.98 minutes
	system time =       3.23 seconds =       0.05 minutes
	total time  =        343 seconds =       5.72 minutes

			-----------------------------------------
			 OPTKING 2.0: for geometry optimizations 
			  - R.A. King,  Bethel University        
			-----------------------------------------

	Previous internal coordinate definitions found.
	---Fragment 1 Geometry and Gradient---
	 H          -4.1724719694        0.1157233695        1.3892808447
	 H          -3.9401043470        3.2414497561        0.2356463589
	 H          -3.3511901433        0.6631644249       -1.8023378894
	 C          -3.1483113704        1.3531437217        0.1168275894
	 H           0.6787494499        2.6493711588       -0.4262109327
	 H          -0.1443750021        2.1041533263        2.7694815026
	 C          -0.3277184899        1.4025502170        0.8523506218
	 H           1.8250661145       -1.7040247022        2.4254507389
	 H          -0.6786235230       -2.6506475202        0.4219895075
	 C           0.8255303026       -1.2839489717        0.6860436780
	 H           3.4821204739       -3.3487841397       -1.6550802224
	 H           4.2011772819       -0.1083784582       -1.3006060646
	 H           1.7026508005       -1.0548380870       -3.3037013694
	 C           2.6838418417       -1.4639502070       -1.5505687058
	             0.0082195637        0.0066438783       -0.0060085610
	             0.0076946842       -0.0093175739        0.0006348629
	             0.0040198765        0.0041221157        0.0111478096
	            -0.0200316058       -0.0068072698       -0.0059130450
	            -0.0067259429       -0.0099229693        0.0039781951
	            -0.0018696922       -0.0077707773       -0.0096152323
	             0.0172449824        0.0206436470        0.0032264274
	            -0.0044317530        0.0062466080       -0.0099299329
	             0.0075469110        0.0101396174       -0.0020644398
	            -0.0111634230       -0.0192380623        0.0151158931
	            -0.0064190196        0.0101821170        0.0037130876
	            -0.0096890231       -0.0068915801        0.0008096866
	             0.0033932641       -0.0022031910        0.0115938695
	             0.0122110635        0.0041733198       -0.0166887629

	---Fragment 1 Intrafragment Coordinates---
	 - Coordinate -           - BOHR/RAD -       - ANG/DEG -
	 R(1,4)           =         2.049207	       1.084394
	 R(2,4)           =         2.051037	       1.085362
	 R(3,4)           =         2.049494	       1.084546
	 R(4,7)           =         2.915335	       1.542729
	 R(5,7)           =         2.049941	       1.084782
	 R(6,7)           =         2.049696	       1.084652
	 R(7,10)          =         2.928296	       1.549588
	 R(8,10)          =         2.049652	       1.084629
	 R(9,10)          =         2.049407	       1.084499
	 R(10,14)         =         2.913444	       1.541728
	 R(11,14)         =         2.049578	       1.084590
	 R(12,14)         =         2.049967	       1.084796
	 R(13,14)         =         2.050264	       1.084953
	 B(1,4,2)         =         1.903957	     109.088700
	 B(1,4,3)         =         1.905720	     109.189692
	 B(1,4,7)         =         1.914645	     109.701102
	 B(2,4,3)         =         1.902845	     109.024972
	 B(2,4,7)         =         1.921205	     110.076915
	 B(3,4,7)         =         1.915299	     109.738572
	 B(4,7,5)         =         1.904948	     109.145505
	 B(4,7,6)         =         1.905321	     109.166862
	 B(4,7,10)        =         1.929600	     110.557935
	 B(5,7,6)         =         1.908433	     109.345173
	 B(5,7,10)        =         1.906272	     109.221321
	 B(6,7,10)        =         1.909139	     109.385609
	 B(7,10,8)        =         1.909098	     109.383242
	 B(7,10,9)        =         1.907182	     109.273487
	 B(7,10,14)       =         1.929949	     110.577913
	 B(8,10,9)        =         1.907717	     109.304155
	 B(8,10,14)       =         1.904743	     109.133709
	 B(9,10,14)       =         1.905010	     109.149045
	 B(10,14,11)      =         1.922387	     110.144643
	 B(10,14,12)      =         1.915216	     109.733821
	 B(10,14,13)      =         1.916493	     109.806989
	 B(11,14,12)      =         1.902912	     109.028831
	 B(11,14,13)      =         1.903178	     109.044059
	 B(12,14,13)      =         1.903435	     109.058816
	 D(1,4,7,5)       =        -3.138193	    -179.805232
	 D(1,4,7,6)       =        -1.053121	     -60.339378
	 D(1,4,7,10)      =         1.047826	      60.035983
	 D(2,4,7,5)       =        -1.042976	     -59.758132
	 D(2,4,7,6)       =         1.042096	      59.707722
	 D(2,4,7,10)      =        -3.140143	    -179.916917
	 D(3,4,7,5)       =         1.051279	      60.233861
	 D(3,4,7,6)       =         3.136352	     179.699715
	 D(3,4,7,10)      =        -1.045887	     -59.924924
	 D(4,7,10,8)      =        -2.266216	    -129.844613
	 D(4,7,10,9)      =        -0.178415	     -10.222405
	 D(4,7,10,14)     =         1.918831	     109.940944
	 D(5,7,10,8)      =         1.920596	     110.042040
	 D(5,7,10,9)      =        -2.274788	    -130.335753
	 D(5,7,10,14)     =        -0.177542	     -10.172404
	 D(6,7,10,8)      =        -0.167554	      -9.600118
	 D(6,7,10,9)      =         1.920248	     110.022090
	 D(6,7,10,14)     =        -2.265692	    -129.814561
	 D(7,10,14,11)    =        -3.141166	    -179.975565
	 D(7,10,14,12)    =         1.046993	      59.988281
	 D(7,10,14,13)    =        -1.045004	     -59.874345
	 D(8,10,14,11)    =         1.041276	      59.660731
	 D(8,10,14,12)    =        -1.053750	     -60.375423
	 D(8,10,14,13)    =         3.137438	     179.761952
	 D(9,10,14,11)    =        -1.042620	     -59.737713
	 D(9,10,14,12)    =        -3.137646	    -179.773867
	 D(9,10,14,13)    =         1.053542	      60.363507

	Current energy   :      -158.4498591919

	Energy change for the previous step:
		Projected    :        -0.0076652513
		Actual       :        -0.0059183037

	Performing BFGS update.
	Previous computed or guess Hessian on step 1.
	Steps to be used in Hessian update: 1
	Adding user-defined constraint: Fragment 1; Coordinate 49:
		Value =     1.918831; Fixed value    =     1.919860
		Force =     0.000540; Force constant =     0.525000
	Removing off-diagonal coupling between coordinate 49 and others.
	Taking RFO optimization step.
	Going to follow RFO solution 1.
	Using RFO vector 1.

	Determining step-restricting scale parameter for RS-RFO.
	Maximum step size allowed    0.10000

	 Iter      |step|        alpha        rfo_root  
	------------------------------------------------
	    0     0.20596       1.00000           1
	    1     0.15780       5.92527           1
	    2     0.12377      16.36507           1
	    3     0.10634      28.13314           1
	    4     0.10064      33.85411           1
	    5     0.10001      34.56850           1
	------------------------------------------------
	Norm of target step-size    0.10001
	Projected energy change by RFO approximation:        -0.0033886738

	Back-transformation to cartesian coordinates...
	Successfully converged to displaced geometry.

	--- Internal Coordinate Step in ANG or DEG, aJ/ANG or AJ/DEG ---
	 ---------------------------------------------------------------------------
	   Coordinate                Previous        Force       Change         New 
	   ----------                --------       ------       ------       ------
	    1 R(1,4)          =      1.084394     0.097630     0.012235     1.096629
	    2 R(2,4)          =      1.085362     0.094849     0.011632     1.096994
	    3 R(3,4)          =      1.084546     0.100714     0.012564     1.097110
	    4 R(4,7)          =      1.542729    -0.001823    -0.002289     1.540440
	    5 R(5,7)          =      1.084782     0.097375     0.012364     1.097146
	    6 R(6,7)          =      1.084652     0.097386     0.012043     1.096695
	    7 R(7,10)         =      1.549588     0.047167     0.005100     1.554687
	    8 R(8,10)         =      1.084629     0.097779     0.012084     1.096713
	    9 R(9,10)         =      1.084499     0.099155     0.012555     1.097054
	   10 R(10,14)        =      1.541728     0.001697    -0.001729     1.539999
	   11 R(11,14)        =      1.084590     0.099307     0.012120     1.096710
	   12 R(12,14)        =      1.084796     0.095810     0.012027     1.096823
	   13 R(13,14)        =      1.084953     0.098676     0.012333     1.097286
	   14 B(1,4,2)        =    109.088700    -0.000246    -0.655027   108.433673
	   15 B(1,4,3)        =    109.189692    -0.000220    -0.666351   108.523341
	   16 B(1,4,7)        =    109.701102     0.000186     0.559547   110.260650
	   17 B(2,4,3)        =    109.024972    -0.000254    -0.685442   108.339530
	   18 B(2,4,7)        =    110.076915     0.000327     0.798608   110.875523
	   19 B(3,4,7)        =    109.738572     0.000197     0.599014   110.337586
	   20 B(4,7,5)        =    109.145505    -0.000143    -0.229634   108.915872
	   21 B(4,7,6)        =    109.166862    -0.000189    -0.359653   108.807209
	   22 B(4,7,10)       =    110.557935     0.000577     1.298097   111.856033
	   23 B(5,7,6)        =    109.345173    -0.000080    -0.594090   108.751083
	   24 B(5,7,10)       =    109.221321    -0.000123    -0.173405   109.047916
	   25 B(6,7,10)       =    109.385609    -0.000047     0.024395   109.410004
	   26 B(7,10,8)       =    109.383242    -0.000048     0.024387   109.407630
	   27 B(7,10,9)       =    109.273487    -0.000128    -0.189632   109.083855
	   28 B(7,10,14)      =    110.577913     0.000577     1.291469   111.869382
	   29 B(8,10,9)       =    109.304155    -0.000078    -0.587548   108.716607
	   30 B(8,10,14)      =    109.133709    -0.000187    -0.349792   108.783917
	   31 B(9,10,14)      =    109.149045    -0.000142    -0.223946   108.925099
	   32 B(10,14,11)     =    110.144643     0.000320     0.773912   110.918555
	   33 B(10,14,12)     =    109.733821     0.000179     0.540760   110.274581
	   34 B(10,14,13)     =    109.806989     0.000188     0.571983   110.378972
	   35 B(11,14,12)     =    109.028831    -0.000238    -0.631424   108.397407
	   36 B(11,14,13)     =    109.044059    -0.000251    -0.680974   108.363085
	   37 B(12,14,13)     =    109.058816    -0.000208    -0.625238   108.433578
	   38 D(1,4,7,5)      =   -179.805232     0.000029     0.494204  -179.311028
	   39 D(1,4,7,6)      =    -60.339378    -0.000038    -0.567847   -60.907225
	   40 D(1,4,7,10)     =     60.035983     0.000003     0.045044    60.081027
	   41 D(2,4,7,5)      =    -59.758132     0.000034     0.547622   -59.210510
	   42 D(2,4,7,6)      =     59.707722    -0.000034    -0.514429    59.193293
	   43 D(2,4,7,10)     =   -179.916917     0.000007     0.098462  -179.818455
	   44 D(3,4,7,5)      =     60.233861     0.000037     0.588730    60.822591
	   45 D(3,4,7,6)      =    179.699715    -0.000031    -0.473321   179.226394
	   46 D(3,4,7,10)     =    -59.924924     0.000011     0.139570   -59.785354
	   47 D(4,7,10,8)     =   -129.844613     0.000018     0.317539  -129.527073
	   48 D(4,7,10,9)     =    -10.222405    -0.000028    -0.495737   -10.718142
	   49 D(4,7,10,14)    =    109.940944    -0.000005    -0.083882   109.857062
	   50 D(5,7,10,8)     =    110.042040    -0.000005    -0.100164   109.941876
	   51 D(5,7,10,9)     =   -130.335753    -0.000052    -0.913439  -131.249192
	   52 D(5,7,10,14)    =    -10.172404    -0.000028    -0.501585   -10.673989
	   53 D(6,7,10,8)     =     -9.600118     0.000040     0.711148    -8.888969
	   54 D(6,7,10,9)     =    110.022090    -0.000006    -0.102127   109.919962
	   55 D(6,7,10,14)    =   -129.814561     0.000018     0.309727  -129.504834
	   56 D(7,10,14,11)   =   -179.975565     0.000008     0.114363  -179.861203
	   57 D(7,10,14,12)   =     59.988281     0.000004     0.058361    60.046642
	   58 D(7,10,14,13)   =    -59.874345     0.000010     0.130859   -59.743486
	   59 D(8,10,14,11)   =     59.660731    -0.000033    -0.500067    59.160664
	   60 D(8,10,14,12)   =    -60.375423    -0.000038    -0.556069   -60.931492
	   61 D(8,10,14,13)   =    179.761952    -0.000031    -0.483571   179.278381
	   62 D(9,10,14,11)   =    -59.737713     0.000033     0.544091   -59.193622
	   63 D(9,10,14,12)   =   -179.773867     0.000029     0.488089  -179.285778
	   64 D(9,10,14,13)   =     60.363507     0.000035     0.560587    60.924095
	 ---------------------------------------------------------------------------
	 Forces used to impose fixed constraints are not included.
	  Forces zeroed: 49 

  ==> Convergence Check <==

  Measures of convergence in internal coordinates in au.
  Criteria marked as inactive (o), active & met (*), and active & unmet ( ).
  ---------------------------------------------------------------------------------------------
   Step     Total Energy     Delta E     MAX Force     RMS Force      MAX Disp      RMS Disp   
  ---------------------------------------------------------------------------------------------
    Convergence Criteria    1.00e-06 *    3.00e-04 *             o    1.20e-03 *             o
  ---------------------------------------------------------------------------------------------
      2    -158.44985919   -5.92e-03      1.22e-02      5.26e-03 o    2.37e-02      1.25e-02 o  ~
  ---------------------------------------------------------------------------------------------

	Writing optimization data to binary file.
	Structure for next step:
	Cartesian Geometry (in Angstrom)
	    H    -2.2369358992   0.0370440719   0.7431080433
	    H    -2.1267830309   1.7103488131   0.1475426148
	    H    -1.8100136148   0.3520997418  -0.9566462162
	    C    -1.6860956966   0.7084938246   0.0735371366
	    H     0.3331331848   1.4220817485  -0.2196798870
	    H    -0.0980581024   1.1079464543   1.4819192894
	    C    -0.1938279792   0.7356915279   0.4547899917
	    H     0.9924378033  -0.8950011845   1.2833882663
	    H    -0.3340291437  -1.4227662181   0.2154879173
	    C     0.4552404277  -0.6733721876   0.3532918270
	    H     1.8897609108  -1.7663415520  -0.8828208753
	    H     2.2503016656  -0.0335991082  -0.7020181997
	    H     0.9290966659  -0.5612959704  -1.7716594780
	    C     1.4433329764  -0.7663185500  -0.8242614694
			--------------------------
			 OPTKING Finished Execution 
			--------------------------

    Structure for next step:
    Molecular point group: c1
    Full point group: C1

    Geometry (in Angstrom), charge = 0, multiplicity = 1:

    H           -2.237126252622     0.036974080669     0.742733789622
    H           -2.126973384323     1.710278821908     0.147168361189
    H           -1.810203968255     0.352029750589    -0.957020469855
    C           -1.686286050102     0.708423833412     0.073162882989
    H            0.332942831351     1.422011757237    -0.220054140662
    H           -0.098248455808     1.107876463048     1.481545035772
    C           -0.194018332679     0.735621536630     0.454415738050
    H            0.992247449847    -0.895071175762     1.283014012700
    H           -0.334219497114    -1.422836209347     0.215113663637
    C            0.455050074251    -0.673442178813     0.352917573318
    H            1.889570557297    -1.766411543217    -0.883195128941
    H            2.250111312152    -0.033669099433    -0.702392453316
    H            0.928906312466    -0.561365961677    -1.772033731653
    C            1.443142622931    -0.766388541190    -0.824635723096

gradient() will perform analytic gradient computation.

*** tstart() called on lski1497
*** at Tue Feb 21 17:45:52 2017


         ---------------------------------------------------------
                                   SCF
            by Justin Turney, Rob Parrish, and Andy Simmonett
                              RKS Reference
                        1 Threads,   1000 MiB Core
         ---------------------------------------------------------

  ==> Geometry <==

    Molecular point group: c1
    Full point group: C1

    Geometry (in Angstrom), charge = 0, multiplicity = 1:

       Center              X                  Y                   Z               Mass       
    ------------   -----------------  -----------------  -----------------  -----------------
           H         -2.237126252622     0.036974080669     0.742733789622     1.007825032070
           H         -2.126973384323     1.710278821908     0.147168361189     1.007825032070
           H         -1.810203968255     0.352029750589    -0.957020469855     1.007825032070
           C         -1.686286050102     0.708423833412     0.073162882989    12.000000000000
           H          0.332942831351     1.422011757237    -0.220054140662     1.007825032070
           H         -0.098248455808     1.107876463048     1.481545035772     1.007825032070
           C         -0.194018332679     0.735621536630     0.454415738050    12.000000000000
           H          0.992247449847    -0.895071175762     1.283014012700     1.007825032070
           H         -0.334219497114    -1.422836209347     0.215113663637     1.007825032070
           C          0.455050074251    -0.673442178813     0.352917573318    12.000000000000
           H          1.889570557297    -1.766411543217    -0.883195128941     1.007825032070
           H          2.250111312152    -0.033669099433    -0.702392453316     1.007825032070
           H          0.928906312466    -0.561365961677    -1.772033731653     1.007825032070
           C          1.443142622931    -0.766388541190    -0.824635723096    12.000000000000

  Running in c1 symmetry.

  Rotational constants: A =      0.55205  B =      0.13100  C =      0.12785 [cm^-1]
  Rotational constants: A =  16550.00514  B =   3927.40434  C =   3832.98731 [MHz]
  Nuclear repulsion =  130.755588143908795

  Charge       = 0
  Multiplicity = 1
  Electrons    = 34
  Nalpha       = 17
  Nbeta        = 17

  ==> Algorithm <==

  SCF Algorithm Type is DF.
  DIIS enabled.
  MOM disabled.
  Fractional occupation disabled.
  Guess Type is READ.
  Energy threshold   = 1.00e-08
  Density threshold  = 1.00e-08
  Integral threshold = 0.00e+00

  ==> Primary Basis <==

  Basis Set: CC-PVDZ
    Number of shells: 54
    Number of basis function: 106
    Number of Cartesian functions: 110
    Spherical Harmonics?: true
    Max angular momentum: 2

  ==> DFT Potential <==

   => B3LYP Composite Functional <= 

    B3LYP Hybrid-GGA Exchange-Correlation Functional (VWN1-RPA)

    P.J. Stephens et. al., J. Phys. Chem., 98, 11623-11627, 1994

    Points   =           5000
    Deriv    =              1
    GGA      =           TRUE
    Meta     =          FALSE

    X_LRC        =          FALSE
    X_Hybrid     =           TRUE
    X_Alpha      =   2.000000E-01
    X_Omega      =   0.000000E+00
    C_LRC        =          FALSE
    C_Hybrid     =          FALSE
    C_Alpha      =   0.000000E+00
    C_Omega      =   0.000000E+00

   => Exchange Functionals <=

    0.8000    B3_X
    0.2000      HF 

   => Correlation Functionals <=

    0.1900 VWN3RPA_C
    0.8100   LYP_C

   => Molecular Quadrature <=

    Radial Scheme    =       TREUTLER
    Pruning Scheme   =           FLAT
    Nuclear Scheme   =       TREUTLER

    BS radius alpha  =              1
    Pruning alpha    =              1
    Radial Points    =             75
    Spherical Points =            302
    Total Points     =         312785
    Total Blocks     =            278
    Max Points       =           4888
    Max Functions    =            106

  ==> Pre-Iterations <==

   -------------------------------------------------------
    Irrep   Nso     Nmo     Nalpha   Nbeta   Ndocc  Nsocc
   -------------------------------------------------------
     A        106     106       0       0       0       0
   -------------------------------------------------------
    Total     106     106      17      17      17       0
   -------------------------------------------------------

  ==> Integral Setup <==

  ==> DFJK: Density-Fitted J/K Matrices <==

    J tasked:                  Yes
    K tasked:                  Yes
    wK tasked:                  No
    OpenMP threads:              1
    Integrals threads:           1
    Memory (MB):               715
    Algorithm:                Core
    Integral Cache:           NONE
    Schwarz Cutoff:          1E-12
    Fitting Condition:       1E-12

   => Auxiliary Basis Set <=

  Basis Set: 
    Number of shells: 186
    Number of basis function: 510
    Number of Cartesian functions: 574
    Spherical Harmonics?: true
    Max angular momentum: 3

  Minimum eigenvalue in the overlap matrix is 4.9764241730E-03.
  Using Symmetric Orthogonalization.
  SCF Guess was Projection but file not found.
  Switching over to SAD guess.

  SCF Guess: Superposition of Atomic Densities via on-the-fly atomic UHF.

  ==> Iterations <==

                           Total Energy        Delta E     RMS |[F,P]|

   @DF-RKS iter   0:  -158.95111880195674   -1.58951e+02   3.26982e-02 
   @DF-RKS iter   1:  -158.33232809576913    6.18791e-01   4.25503e-03 
   @DF-RKS iter   2:  -158.29257753316509    3.97506e-02   5.04569e-03 DIIS
   @DF-RKS iter   3:  -158.45187204422871   -1.59295e-01   3.51951e-04 DIIS
   @DF-RKS iter   4:  -158.45256637506984   -6.94331e-04   1.04645e-04 DIIS
   @DF-RKS iter   5:  -158.45261888352454   -5.25085e-05   4.52309e-05 DIIS
   @DF-RKS iter   6:  -158.45263016605395   -1.12825e-05   5.75715e-06 DIIS
   @DF-RKS iter   7:  -158.45263036819233   -2.02138e-07   9.25105e-07 DIIS
   @DF-RKS iter   8:  -158.45263037398092   -5.78859e-09   1.31095e-07 DIIS
   @DF-RKS iter   9:  -158.45263037409723   -1.16302e-10   2.54827e-08 DIIS
   @DF-RKS iter  10:  -158.45263037410115   -3.92220e-12   4.91772e-09 DIIS

  ==> Post-Iterations <==

    Orbital Energies (a.u.)
    -----------------------

    Doubly Occupied:                                                      

       1A    -10.177934     2A    -10.177781     3A    -10.174217  
       4A    -10.174192     5A     -0.788625     6A     -0.718530  
       7A     -0.628759     8A     -0.570477     9A     -0.458269  
      10A     -0.439284    11A     -0.417841    12A     -0.391429  
      13A     -0.364955    14A     -0.359772    15A     -0.327495  
      16A     -0.317989    17A     -0.315903  

    Virtual:                                                              

      18A      0.060186    19A      0.089279    20A      0.096067  
      21A      0.103379    22A      0.133904    23A      0.143308  
      24A      0.143452    25A      0.149161    26A      0.152026  
      27A      0.173459    28A      0.215203    29A      0.254140  
      30A      0.258164    31A      0.398479    32A      0.421779  
      33A      0.425978    34A      0.446255    35A      0.466759  
      36A      0.478509    37A      0.519622    38A      0.582109  
      39A      0.592455    40A      0.622730    41A      0.630973  
      42A      0.649206    43A      0.653106    44A      0.656668  
      45A      0.664674    46A      0.676203    47A      0.685006  
      48A      0.692959    49A      0.697284    50A      0.723442  
      51A      0.725594    52A      0.757106    53A      0.868536  
      54A      0.882903    55A      0.967189    56A      1.120794  
      57A      1.120866    58A      1.171728    59A      1.199092  
      60A      1.236318    61A      1.359720    62A      1.398725  
      63A      1.421943    64A      1.436378    65A      1.444390  
      66A      1.454496    67A      1.565882    68A      1.575220  
      69A      1.605890    70A      1.628333    71A      1.641904  
      72A      1.646749    73A      1.655338    74A      1.675762  
      75A      1.685545    76A      1.689060    77A      1.712619  
      78A      1.717494    79A      1.728319    80A      1.741974  
      81A      1.756155    82A      1.804762    83A      1.839172  
      84A      1.897022    85A      1.952988    86A      2.003898  
      87A      2.031599    88A      2.054835    89A      2.073598  
      90A      2.144322    91A      2.188176    92A      2.209215  
      93A      2.236417    94A      2.267244    95A      2.290307  
      96A      2.305447    97A      2.421137    98A      2.436880  
      99A      2.469319   100A      2.484747   101A      2.512097  
     102A      2.561611   103A      2.572750   104A      2.586026  
     105A      2.637147   106A      2.699890  

    Final Occupation by Irrep:
              A 
    DOCC [    17 ]

  Energy converged.

  @DF-RKS Final Energy:  -158.45263037410115

   => Energetics <=

    Nuclear Repulsion Energy =            130.7555881439087955
    One-Electron Energy =                -470.0023934837576007
    Two-Electron Energy =                 201.3904604772659468
    DFT Exchange-Correlation Energy =     -20.5962855115182712
    Empirical Dispersion Energy =           0.0000000000000000
    PCM Polarization Energy =               0.0000000000000000
    EFP Energy =                            0.0000000000000000
    Total Energy =                       -158.4526303741011475


  Saving occupied orbitals to File 180.

*** tstop() called on lski1497 at Tue Feb 21 17:47:48 2017
Module time:
	user time   =     107.66 seconds =       1.79 minutes
	system time =       1.13 seconds =       0.02 minutes
	total time  =        116 seconds =       1.93 minutes
Total time:
	user time   =     406.82 seconds =       6.78 minutes
	system time =       4.40 seconds =       0.07 minutes
	total time  =        459 seconds =       7.65 minutes


Properties will be evaluated at   0.000000,   0.000000,   0.000000 Bohr

Properties computed using the SCF density matrix

  Nuclear Dipole Moment: (a.u.)
     X:    -0.1997      Y:    -0.0470      Z:    -0.6235

  Electronic Dipole Moment: (a.u.)
     X:     0.2082      Y:     0.0490      Z:     0.6498

  Dipole Moment: (a.u.)
     X:     0.0085      Y:     0.0020      Z:     0.0263     Total:     0.0277

  Dipole Moment: (Debye)
     X:     0.0217      Y:     0.0051      Z:     0.0667     Total:     0.0704


*** tstart() called on lski1497
*** at Tue Feb 21 17:47:48 2017


         ------------------------------------------------------------
                                   SCF GRAD                          
                          Rob Parrish, Justin Turney,                
                       Andy Simmonett, and Alex Sokolov              
         ------------------------------------------------------------

  ==> Geometry <==

    Molecular point group: c1
    Full point group: C1

    Geometry (in Angstrom), charge = 0, multiplicity = 1:

       Center              X                  Y                   Z               Mass       
    ------------   -----------------  -----------------  -----------------  -----------------
           H         -2.237126252622     0.036974080669     0.742733789622     1.007825032070
           H         -2.126973384323     1.710278821908     0.147168361189     1.007825032070
           H         -1.810203968255     0.352029750589    -0.957020469855     1.007825032070
           C         -1.686286050102     0.708423833412     0.073162882989    12.000000000000
           H          0.332942831351     1.422011757237    -0.220054140662     1.007825032070
           H         -0.098248455808     1.107876463048     1.481545035772     1.007825032070
           C         -0.194018332679     0.735621536630     0.454415738050    12.000000000000
           H          0.992247449847    -0.895071175762     1.283014012700     1.007825032070
           H         -0.334219497114    -1.422836209347     0.215113663637     1.007825032070
           C          0.455050074251    -0.673442178813     0.352917573318    12.000000000000
           H          1.889570557297    -1.766411543217    -0.883195128941     1.007825032070
           H          2.250111312152    -0.033669099433    -0.702392453316     1.007825032070
           H          0.928906312466    -0.561365961677    -1.772033731653     1.007825032070
           C          1.443142622931    -0.766388541190    -0.824635723096    12.000000000000

  Nuclear repulsion =  130.755588143908795

  ==> Basis Set <==

  Basis Set: CC-PVDZ
    Number of shells: 54
    Number of basis function: 106
    Number of Cartesian functions: 110
    Spherical Harmonics?: true
    Max angular momentum: 2

  ==> DFJKGrad: Density-Fitted SCF Gradients <==

    Gradient:                    1
    J tasked:                  Yes
    K tasked:                  Yes
    wK tasked:                  No
    OpenMP threads:              1
    Integrals threads:           1
    Memory (MB):               715
    Schwarz Cutoff:          0E+00
    Fitting Condition:       1E-12

   => Auxiliary Basis Set <=

  Basis Set: 
    Number of shells: 186
    Number of basis function: 510
    Number of Cartesian functions: 574
    Spherical Harmonics?: true
    Max angular momentum: 3

  ==> DFT Potential <==

   => B3LYP Composite Functional <= 

    B3LYP Hybrid-GGA Exchange-Correlation Functional (VWN1-RPA)

    P.J. Stephens et. al., J. Phys. Chem., 98, 11623-11627, 1994

    Points   =           5000
    Deriv    =              1
    GGA      =           TRUE
    Meta     =          FALSE

    X_LRC        =          FALSE
    X_Hybrid     =           TRUE
    X_Alpha      =   2.000000E-01
    X_Omega      =   0.000000E+00
    C_LRC        =          FALSE
    C_Hybrid     =          FALSE
    C_Alpha      =   0.000000E+00
    C_Omega      =   0.000000E+00

   => Exchange Functionals <=

    0.8000    B3_X
    0.2000      HF 

   => Correlation Functionals <=

    0.1900 VWN3RPA_C
    0.8100   LYP_C

   => Molecular Quadrature <=

    Radial Scheme    =       TREUTLER
    Pruning Scheme   =           FLAT
    Nuclear Scheme   =       TREUTLER

    BS radius alpha  =              1
    Pruning alpha    =              1
    Radial Points    =             75
    Spherical Points =            302
    Total Points     =         312785
    Total Blocks     =            278
    Max Points       =           4888
    Max Functions    =            106


  -Total Gradient:
[...]

  ==> Basis Set <==

  Basis Set: CC-PVDZ
    Number of shells: 54
    Number of basis function: 106
    Number of Cartesian functions: 110
    Spherical Harmonics?: true
    Max angular momentum: 2

  ==> DFJKGrad: Density-Fitted SCF Gradients <==

    Gradient:                    1
    J tasked:                  Yes
    K tasked:                  Yes
    wK tasked:                  No
    OpenMP threads:              1
    Integrals threads:           1
    Memory (MB):               715
    Schwarz Cutoff:          0E+00
    Fitting Condition:       1E-12

   => Auxiliary Basis Set <=

  Basis Set: 
    Number of shells: 186
    Number of basis function: 510
    Number of Cartesian functions: 574
    Spherical Harmonics?: true
    Max angular momentum: 3

  ==> DFT Potential <==

   => B3LYP Composite Functional <= 

    B3LYP Hybrid-GGA Exchange-Correlation Functional (VWN1-RPA)

    P.J. Stephens et. al., J. Phys. Chem., 98, 11623-11627, 1994

    Points   =           5000
    Deriv    =              1
    GGA      =           TRUE
    Meta     =          FALSE

    X_LRC        =          FALSE
    X_Hybrid     =           TRUE
    X_Alpha      =   2.000000E-01
    X_Omega      =   0.000000E+00
    C_LRC        =          FALSE
    C_Hybrid     =          FALSE
    C_Alpha      =   0.000000E+00
    C_Omega      =   0.000000E+00

   => Exchange Functionals <=

    0.8000    B3_X
    0.2000      HF 

   => Correlation Functionals <=

    0.1900 VWN3RPA_C
    0.8100   LYP_C

   => Molecular Quadrature <=

    Radial Scheme    =       TREUTLER
    Pruning Scheme   =           FLAT
    Nuclear Scheme   =       TREUTLER

    BS radius alpha  =              1
    Pruning alpha    =              1
    Radial Points    =             75
    Spherical Points =            302
    Total Points     =         312788
    Total Blocks     =            280
    Max Points       =           4900
    Max Functions    =            106


  -Total Gradient:
     Atom            X                  Y                   Z
    ------   -----------------  -----------------  -----------------
       1       -0.000017606404    -0.000005849581    -0.000001456502
       2       -0.000010636510     0.000009213870     0.000002365984
       3        0.000003611394     0.000001066965    -0.000007890781
       4       -0.000314358492    -0.000295265700     0.001435789087
       5        0.000010746102     0.000003967002    -0.000001565834
       6        0.000001243523    -0.000000912085    -0.000013071986
       7        0.000892398444     0.000613675291    -0.001620696441
       8       -0.000008558446    -0.000000892791    -0.000009754786
       9       -0.000009644941    -0.000003661470     0.000005635535
      10       -0.001640311689    -0.000790515806    -0.000695771143
      11        0.000010662780    -0.000009933939    -0.000003065613
      12        0.000012821398     0.000004277053    -0.000011911209
      13       -0.000007302854    -0.000002387729    -0.000003290249
      14        0.001077485649     0.000477348362     0.000926386256


*** tstop() called on lski1497 at Tue Feb 21 17:59:19 2017
Module time:
	user time   =      42.11 seconds =       0.70 minutes
	system time =       0.60 seconds =       0.01 minutes
	total time  =         48 seconds =       0.80 minutes
Total time:
	user time   =    1045.75 seconds =      17.43 minutes
	system time =      11.87 seconds =       0.20 minutes
	total time  =       1150 seconds =      19.17 minutes

			-----------------------------------------
			 OPTKING 2.0: for geometry optimizations 
			  - R.A. King,  Bethel University        
			-----------------------------------------

	Previous internal coordinate definitions found.
	---Fragment 1 Geometry and Gradient---
	 H          -4.2878383642        0.1076556725        1.4256072766
	 H          -4.0387488254        3.2610176700        0.2790418673
	 H          -3.4986814777        0.6674887698       -1.7931212605
	 C          -3.2045130662        1.3557710995        0.1543090036
	 H           0.6173355703        2.7342617599       -0.3597450311
	 H          -0.1978024306        2.0983162693        2.7995297716
	 C          -0.3955496279        1.3707081520        0.8544052348
	 H           1.8819456821       -1.6999951319        2.4182070701
	 H          -0.5892789027       -2.7276241285        0.4466783848
	 C           0.8790481556       -1.2563546684        0.6435499154
	 H           3.5876715375       -3.3677063601       -1.6765312393
	 H           4.3168229721       -0.1008122063       -1.3358160830
	 H           1.8287456010       -1.0624434613       -3.3806023075
	 C           2.7529146058       -1.4625792367       -1.5534341814
	            -0.0000176064       -0.0000058496       -0.0000014565
	            -0.0000106365        0.0000092139        0.0000023660
	             0.0000036114        0.0000010670       -0.0000078908
	            -0.0003143585       -0.0002952657        0.0014357891
	             0.0000107461        0.0000039670       -0.0000015658
	             0.0000012435       -0.0000009121       -0.0000130720
	             0.0008923984        0.0006136753       -0.0016206964
	            -0.0000085584       -0.0000008928       -0.0000097548
	            -0.0000096449       -0.0000036615        0.0000056355
	            -0.0016403117       -0.0007905158       -0.0006957711
	             0.0000106628       -0.0000099339       -0.0000030656
	             0.0000128214        0.0000042771       -0.0000119112
	            -0.0000073029       -0.0000023877       -0.0000032902
	             0.0010774856        0.0004773484        0.0009263863

	---Fragment 1 Intrafragment Coordinates---
	 - Coordinate -           - BOHR/RAD -       - ANG/DEG -
	 R(1,4)           =         2.085086	       1.103380
	 R(2,4)           =         2.083620	       1.102604
	 R(3,4)           =         2.086325	       1.104036
	 R(4,7)           =         2.894932	       1.531932
	 R(5,7)           =         2.087912	       1.104875
	 R(6,7)           =         2.086151	       1.103944
	 R(7,10)          =         2.927545	       1.549190
	 R(8,10)          =         2.086152	       1.103944
	 R(9,10)          =         2.087912	       1.104875
	 R(10,14)         =         2.894934	       1.531933
	 R(11,14)         =         2.083622	       1.102605
	 R(12,14)         =         2.085084	       1.103379
	 R(13,14)         =         2.086322	       1.104034
	 B(1,4,2)         =         1.878455	     107.627562
	 B(1,4,3)         =         1.873797	     107.360683
	 B(1,4,7)         =         1.938817	     111.086024
	 B(2,4,3)         =         1.876627	     107.522798
	 B(2,4,7)         =         1.949045	     111.672033
	 B(3,4,7)         =         1.943622	     111.361348
	 B(4,7,5)         =         1.910759	     109.478411
	 B(4,7,6)         =         1.895747	     108.618289
	 B(4,7,10)        =         1.982754	     113.603418
	 B(5,7,6)         =         1.842570	     105.571480
	 B(5,7,10)        =         1.910221	     109.447606
	 B(6,7,10)        =         1.916509	     109.807872
	 B(7,10,8)        =         1.916509	     109.807893
	 B(7,10,9)        =         1.910220	     109.447530
	 B(7,10,14)       =         1.982753	     113.603386
	 B(8,10,9)        =         1.842570	     105.571487
	 B(8,10,14)       =         1.895747	     108.618281
	 B(9,10,14)       =         1.910760	     109.478501
	 B(10,14,11)      =         1.949043	     111.671948
	 B(10,14,12)      =         1.938815	     111.085920
	 B(10,14,13)      =         1.943621	     111.361309
	 B(11,14,12)      =         1.878455	     107.627531
	 B(11,14,13)      =         1.876626	     107.522758
	 B(12,14,13)      =         1.873803	     107.361001
	 D(1,4,7,5)       =        -3.072794	    -176.058152
	 D(1,4,7,6)       =        -1.068974	     -61.247689
	 D(1,4,7,10)      =         1.069216	      61.261589
	 D(2,4,7,5)       =        -0.975540	     -55.894350
	 D(2,4,7,6)       =         1.028280	      58.916114
	 D(2,4,7,10)      =        -3.116715	    -178.574609
	 D(3,4,7,5)       =         1.122681	      64.324858
	 D(3,4,7,6)       =         3.126501	     179.135321
	 D(3,4,7,10)      =        -1.018494	     -58.355401
	 D(4,7,10,8)      =        -2.240859	    -128.391766
	 D(4,7,10,9)      =        -0.225836	     -12.939448
	 D(4,7,10,14)     =         1.915635	     109.757814
	 D(5,7,10,8)      =         1.900856	     108.911011
	 D(5,7,10,9)      =        -2.367307	    -135.636672
	 D(5,7,10,14)     =        -0.225835	     -12.939409
	 D(6,7,10,8)      =        -0.114168	      -6.541330
	 D(6,7,10,9)      =         1.900855	     108.910988
	 D(6,7,10,14)     =        -2.240859	    -128.391750
	 D(7,10,14,11)    =        -3.116709	    -178.574273
	 D(7,10,14,12)    =         1.069225	      61.262093
	 D(7,10,14,13)    =        -1.018490	     -58.355203
	 D(8,10,14,11)    =         1.028286	      58.916448
	 D(8,10,14,12)    =        -1.068965	     -61.247186
	 D(8,10,14,13)    =         3.126505	     179.135519
	 D(9,10,14,11)    =        -0.975535	     -55.894067
	 D(9,10,14,12)    =        -3.072787	    -176.057701
	 D(9,10,14,13)    =         1.122683	      64.325004

	Current energy   :      -158.4537064107

	Energy change for the previous step:
		Projected    :         0.0000025722
		Actual       :         0.0000005259

	Performing BFGS update.
	Previous computed or guess Hessian on step 1.
	Steps to be used in Hessian update: 6 5
	Adding user-defined constraint: Fragment 1; Coordinate 49:
		Value =     1.915635; Fixed value    =     1.919860
		Force =     0.002746; Force constant =     0.650000
	Removing off-diagonal coupling between coordinate 49 and others.
	Taking RFO optimization step.
	Going to follow RFO solution 1.
	Using RFO vector 1.
	Norm of target step-size    0.00865
	Projected energy change by RFO approximation:        -0.0000014931

	Back-transformation to cartesian coordinates...
	Successfully converged to displaced geometry.

	--- Internal Coordinate Step in ANG or DEG, aJ/ANG or AJ/DEG ---
	 ---------------------------------------------------------------------------
	   Coordinate                Previous        Force       Change         New 
	   ----------                --------       ------       ------       ------
	    1 R(1,4)          =      1.103380    -0.000097     0.000034     1.103414
	    2 R(2,4)          =      1.102604    -0.000105     0.000038     1.102642
	    3 R(3,4)          =      1.104036    -0.000055     0.000041     1.104076
	    4 R(4,7)          =      1.531932     0.000122     0.000018     1.531950
	    5 R(5,7)          =      1.104875    -0.000072    -0.000005     1.104870
	    6 R(6,7)          =      1.103944     0.000103    -0.000011     1.103933
	    7 R(7,10)         =      1.549190    -0.000257     0.000077     1.549267
	    8 R(8,10)         =      1.103944     0.000102    -0.000010     1.103934
	    9 R(9,10)         =      1.104875    -0.000073    -0.000005     1.104871
	   10 R(10,14)        =      1.531933     0.000118     0.000018     1.531951
	   11 R(11,14)        =      1.102605    -0.000111     0.000039     1.102644
	   12 R(12,14)        =      1.103379    -0.000092     0.000034     1.103413
	   13 R(13,14)        =      1.104034    -0.000048     0.000039     1.104073
	   14 B(1,4,2)        =    107.627562     0.000001    -0.000160   107.627402
	   15 B(1,4,3)        =    107.360683     0.000000     0.002684   107.363367
	   16 B(1,4,7)        =    111.086024    -0.000002    -0.003945   111.082079
	   17 B(2,4,3)        =    107.522798     0.000000    -0.000079   107.522719
	   18 B(2,4,7)        =    111.672033    -0.000000    -0.002932   111.669101
	   19 B(3,4,7)        =    111.361348     0.000001     0.004610   111.365958
	   20 B(4,7,5)        =    109.478411     0.000001    -0.012498   109.465913
	   21 B(4,7,6)        =    108.618289    -0.000002     0.006580   108.624869
	   22 B(4,7,10)       =    113.603418     0.000001     0.001055   113.604473
	   23 B(5,7,6)        =    105.571480     0.000000     0.015469   105.586949
	   24 B(5,7,10)       =    109.447606    -0.000000    -0.009842   109.437763
	   25 B(6,7,10)       =    109.807872    -0.000000     0.000409   109.808281
	   26 B(7,10,8)       =    109.807893    -0.000000     0.000318   109.808211
	   27 B(7,10,9)       =    109.447530    -0.000000    -0.009754   109.437776
	   28 B(7,10,14)      =    113.603386     0.000001     0.001122   113.604508
	   29 B(8,10,9)       =    105.571487     0.000000     0.015368   105.586855
	   30 B(8,10,14)      =    108.618281    -0.000002     0.006481   108.624762
	   31 B(9,10,14)      =    109.478501     0.000001    -0.012375   109.466126
	   32 B(10,14,11)     =    111.671948    -0.000000    -0.003036   111.668912
	   33 B(10,14,12)     =    111.085920    -0.000002    -0.004200   111.081719
	   34 B(10,14,13)     =    111.361309     0.000001     0.004570   111.365879
	   35 B(11,14,12)     =    107.627531     0.000001     0.000013   107.627544
	   36 B(11,14,13)     =    107.522758     0.000000     0.000193   107.522951
	   37 B(12,14,13)     =    107.361001     0.000000     0.002664   107.363665
	   38 D(1,4,7,5)      =   -176.058152     0.000000     0.105050  -175.953102
	   39 D(1,4,7,6)      =    -61.247689     0.000000     0.120331   -61.127358
	   40 D(1,4,7,10)     =     61.261589    -0.000000     0.126395    61.387983
	   41 D(2,4,7,5)      =    -55.894350     0.000000     0.100165   -55.794184
	   42 D(2,4,7,6)      =     58.916114     0.000000     0.115445    59.031559
	   43 D(2,4,7,10)     =   -178.574609    -0.000000     0.121509  -178.453099
	   44 D(3,4,7,5)      =     64.324858     0.000000     0.101229    64.426087
	   45 D(3,4,7,6)      =    179.135321     0.000000     0.116509   179.251831
	   46 D(3,4,7,10)     =    -58.355401    -0.000000     0.122573   -58.232828
	   47 D(4,7,10,8)     =   -128.391766     0.000000     0.017745  -128.374021
	   48 D(4,7,10,9)     =    -12.939448     0.000001     0.030874   -12.908574
	   49 D(4,7,10,14)    =    109.757814     0.000001     0.008343   109.766157
	   50 D(5,7,10,8)     =    108.911011     0.000000     0.040548   108.951559
	   51 D(5,7,10,9)     =   -135.636672     0.000000     0.053678  -135.582994
	   52 D(5,7,10,14)    =    -12.939409     0.000001     0.031147   -12.908263
	   53 D(6,7,10,8)     =     -6.541330    -0.000000     0.027297    -6.514033
	   54 D(6,7,10,9)     =    108.910988     0.000000     0.040426   108.951414
	   55 D(6,7,10,14)    =   -128.391750     0.000000     0.017895  -128.373855
	   56 D(7,10,14,11)   =   -178.574273    -0.000000     0.120272  -178.454001
	   57 D(7,10,14,12)   =     61.262093    -0.000000     0.125182    61.387274
	   58 D(7,10,14,13)   =    -58.355203    -0.000000     0.121584   -58.233619
	   59 D(8,10,14,11)   =     58.916448     0.000000     0.114353    59.030801
	   60 D(8,10,14,12)   =    -61.247186     0.000000     0.119263   -61.127923
	   61 D(8,10,14,13)   =    179.135519     0.000000     0.115665   179.251184
	   62 D(9,10,14,11)   =    -55.894067     0.000000     0.099181   -55.794886
	   63 D(9,10,14,12)   =   -176.057701     0.000000     0.104091  -175.953610
	   64 D(9,10,14,13)   =     64.325004     0.000000     0.100493    64.425497
	 ---------------------------------------------------------------------------
	 Forces used to impose fixed constraints are not included.
	  Forces zeroed: 49 

  ==> Convergence Check <==

  Measures of convergence in internal coordinates in au.
  Criteria marked as inactive (o), active & met (*), and active & unmet ( ).
  ---------------------------------------------------------------------------------------------
   Step     Total Energy     Delta E     MAX Force     RMS Force      MAX Disp      RMS Disp   
  ---------------------------------------------------------------------------------------------
    Convergence Criteria    1.00e-06 *    3.00e-04 *             o    1.20e-03 *             o
  ---------------------------------------------------------------------------------------------
      7    -158.45370641    5.26e-07 *    3.12e-05 *    1.25e-05 o    2.21e-03      1.08e-03 o  ~
  ---------------------------------------------------------------------------------------------


  **** Optimization is complete! (in 7 steps) ****

  ==> Optimization Summary <==

  Measures of convergence in internal coordinates in au.
  --------------------------------------------------------------------------------------------------------------- ~
   Step         Total Energy             Delta E       MAX Force       RMS Force        MAX Disp        RMS Disp  ~
  --------------------------------------------------------------------------------------------------------------- ~
      1    -158.443940888152   -158.443940888152      0.02355688      0.00966489      0.02908260      0.01250358  ~
      2    -158.449859191879     -0.005918303727      0.01222446      0.00526393      0.02374283      0.01251618  ~
      3    -158.452630374101     -0.002771182222      0.00397264      0.00199103      0.03211399      0.01250556  ~
      4    -158.453491159009     -0.000860784908      0.00139799      0.00060866      0.03358954      0.01251384  ~
      5    -158.453694799886     -0.000203640877      0.00077455      0.00016305      0.01448718      0.00614372  ~
      6    -158.453706936528     -0.000012136642      0.00012357      0.00003542      0.00294719      0.00139699  ~
      7    -158.453706410652      0.000000525876      0.00005343      0.00001420      0.00220600      0.00108144  ~
  --------------------------------------------------------------------------------------------------------------- ~

	Writing optimization data to binary file.
	Final energy is   -158.4537064106520
	Final (previous) structure:
	Cartesian Geometry (in Angstrom)
	    H    -2.2690263365   0.0569689283   0.7543988792
	    H    -2.1372138296   1.7256562278   0.1476625964
	    H    -1.8514224981   0.3532198440  -0.9488789033
	    C    -1.6957552792   0.7174431659   0.0816568078
	    H     0.3266799139   1.4469090056  -0.1903688714
	    H    -0.1046725381   1.1103811461   1.4814473499
	    C    -0.2093158479   0.7253475137   0.4521317772
	    H     0.9958827628  -0.8995986785   1.2796600672
	    H    -0.3118329648  -1.4433965224   0.2363720208
	    C     0.4651722492  -0.6648342564   0.3405519478
	    H     1.8985140096  -1.7821134510  -0.8871821213
	    H     2.2843643304  -0.0533475219  -0.7068834260
	    H     0.9677304924  -0.5622208651  -1.7889376924
	    C     1.4567796666  -0.7739635978  -0.8220419638
	Saving final (previous) structure.
			--------------------------
			 OPTKING Finished Execution 
			--------------------------

    Final optimized geometry and variables:
    Molecular point group: c1
    Full point group: C1

    Geometry (in Angstrom), charge = 0, multiplicity = 1:

    H           -2.269026336451     0.056968928284     0.754398879157
    H           -2.137213829617     1.725656227754     0.147662596425
    H           -1.851422498138     0.353219843980    -0.948878903284
    C           -1.695755279242     0.717443165899     0.081656807803
    H            0.326679913868     1.446909005633    -0.190368871385
    H           -0.104672538087     1.110381146118     1.481447349925
    C           -0.209315847928     0.725347513661     0.452131777177
    H            0.995882762774    -0.899598678502     1.279660067168
    H           -0.311832964837    -1.443396522421     0.236372020801
    C            0.465172249184    -0.664834256415     0.340551947812
    H            1.898514009558    -1.782113450965    -0.887182121309
    H            2.284364330369    -0.053347521905    -0.706883425965
    H            0.967730492373    -0.562220865129    -1.788937692440
    C            1.456779666609    -0.773963597816    -0.822041963839

	Cleaning optimization helper files.

*** Psi4 exiting successfully. Buy a developer a beer!
