    -----------------------------------------------------------------------
          Psi4: An Open-Source Ab Initio Electronic Structure Package
                              Psi4 1.0.0 Driver

                          Git: Rev {master} 6a9a71b 

    J. M. Turney, A. C. Simmonett, R. M. Parrish, E. G. Hohenstein,
    F. A. Evangelista, J. T. Fermann, B. J. Mintz, L. A. Burns, J. J. Wilke,
    M. L. Abrams, N. J. Russ, M. L. Leininger, C. L. Janssen, E. T. Seidl,
    W. D. Allen, H. F. Schaefer, R. A. King, E. F. Valeev, C. D. Sherrill,
    and T. D. Crawford, WIREs Comput. Mol. Sci. 2, 556-565 (2012)
    (doi: 10.1002/wcms.93)

                         Additional Contributions by
    A. E. DePrince, U. Bozkaya, A. Yu. Sokolov, D. G. A. Smith, R. Di Remigio,
    R. M. Richard, J. F. Gonthier, H. R. McAlexander, M. Saitow, and
    B. P. Pritchard
    -----------------------------------------------------------------------


    Psi4 started on: Thu Feb 16 15:15:38 2017

    Process ID:  95994
    PSI4DATADIR: /Users/sternc1/anaconda/share/psi4
    Memory level set to 256.000 MB

  ==> Input File <==

--------------------------------------------------------------------------

memory 1000 mb

molecule butane {
  symmetry C1
  0 1 
  H      1.604   0.760   -8.260
  H      1.745   2.388   -8.880
  H      2.043   1.024   -9.930
  C      2.142   1.395   -8.932
  H      4.169   2.051   -9.210
  H      3.731   1.788   -7.539
  C      3.631   1.416   -8.537
  H      5.109   -0.003   -9.180
  H      4.406   -0.367   -7.624
  C      4.203   -0.012   -8.612
  H      3.578   -1.932   -9.343
  H      2.976   -0.586   -10.279
  H      2.273   -0.950   -8.723
  C      3.180   -0.941   -9.291
  units Angstrom
}

dih_string = "4 7 10 14 10"
set optking fixed_dihedral = $dih_string

optimize('MP2/6-31G(d)')
--------------------------------------------------------------------------

  Memory set to 1000.000 MiB by Python script.
gradient() will perform analytic gradient computation.
    SCF Algorithm Type (re)set to DF.

*** tstart() called on lski1497
*** at Thu Feb 16 15:15:39 2017


         ---------------------------------------------------------
                                   SCF
            by Justin Turney, Rob Parrish, and Andy Simmonett
                              RHF Reference
                        1 Threads,   1000 MiB Core
         ---------------------------------------------------------

  ==> Geometry <==

    Molecular point group: c1
    Full point group: C1

    Geometry (in Angstrom), charge = 0, multiplicity = 1:

       Center              X                  Y                   Z               Mass       
    ------------   -----------------  -----------------  -----------------  -----------------
           H         -1.663204780046     0.303690560365     0.592335850585     1.007825032070
           H         -1.522204780046     1.931690560365    -0.027664149415     1.007825032070
           H         -1.224204780046     0.567690560365    -1.077664149415     1.007825032070
           C         -1.125204780046     0.938690560365    -0.079664149415    12.000000000000
           H          0.901795219954     1.594690560365    -0.357664149415     1.007825032070
           H          0.463795219954     1.331690560365     1.313335850585     1.007825032070
           C          0.363795219954     0.959690560365     0.315335850585    12.000000000000
           H          1.841795219954    -0.459309439635    -0.327664149415     1.007825032070
           H          1.138795219954    -0.823309439635     1.228335850585     1.007825032070
           C          0.935795219954    -0.468309439635     0.240335850585    12.000000000000
           H          0.310795219954    -2.388309439635    -0.490664149415     1.007825032070
           H         -0.291204780046    -1.042309439635    -1.426664149415     1.007825032070
           H         -0.994204780046    -1.406309439635     0.129335850585     1.007825032070
           C         -0.087204780046    -1.397309439635    -0.438664149415    12.000000000000

  Running in c1 symmetry.

  Rotational constants: A =      0.37833  B =      0.21012  C =      0.15021 [cm^-1]
  Rotational constants: A =  11341.96486  B =   6299.21102  C =   4503.17018 [MHz]
  Nuclear repulsion =  136.518515952497324

  Charge       = 0
  Multiplicity = 1
  Electrons    = 34
  Nalpha       = 17
  Nbeta        = 17

  ==> Algorithm <==

  SCF Algorithm Type is DF.
  DIIS enabled.
  MOM disabled.
  Fractional occupation disabled.
  Guess Type is SAD.
  Energy threshold   = 1.00e-10
  Density threshold  = 1.00e-10
  Integral threshold = 0.00e+00

  ==> Primary Basis <==

  Basis Set: 6-31G(D)
    Number of shells: 44
    Number of basis function: 80
    Number of Cartesian functions: 80
    Spherical Harmonics?: false
    Max angular momentum: 2

  ==> Pre-Iterations <==

   -------------------------------------------------------
    Irrep   Nso     Nmo     Nalpha   Nbeta   Ndocc  Nsocc
   -------------------------------------------------------
     A         80      80       0       0       0       0
   -------------------------------------------------------
    Total      80      80      17      17      17       0
   -------------------------------------------------------

  ==> Integral Setup <==

  ==> DFJK: Density-Fitted J/K Matrices <==

    J tasked:                  Yes
    K tasked:                  Yes
    wK tasked:                  No
    OpenMP threads:              1
    Integrals threads:           1
    Memory (MB):               715
    Algorithm:                Core
    Integral Cache:           NONE
    Schwarz Cutoff:          1E-12
    Fitting Condition:       1E-12

   => Auxiliary Basis Set <=

  Basis Set: 
    Number of shells: 186
    Number of basis function: 574
    Number of Cartesian functions: 574
    Spherical Harmonics?: false
    Max angular momentum: 3

  Minimum eigenvalue in the overlap matrix is 3.4006434632E-03.
  Using Symmetric Orthogonalization.
  SCF Guess: Superposition of Atomic Densities via on-the-fly atomic UHF.

  ==> Iterations <==

                           Total Energy        Delta E     RMS |[F,P]|

   @DF-RHF iter   0:  -158.93571455385020   -1.58936e+02   4.68666e-02 
   @DF-RHF iter   1:  -157.16883473229851    1.76688e+00   4.41809e-03 
   @DF-RHF iter   2:  -157.26194470034702   -9.31100e-02   1.37278e-03 DIIS
   @DF-RHF iter   3:  -157.27156787103340   -9.62317e-03   5.48106e-04 DIIS
   @DF-RHF iter   4:  -157.27300231197185   -1.43444e-03   8.62625e-05 DIIS
   @DF-RHF iter   5:  -157.27305710651044   -5.47945e-05   1.80699e-05 DIIS
   @DF-RHF iter   6:  -157.27305948493128   -2.37842e-06   4.54064e-06 DIIS
   @DF-RHF iter   7:  -157.27305959590970   -1.10978e-07   1.19023e-06 DIIS
   @DF-RHF iter   8:  -157.27305960568330   -9.77360e-09   2.78322e-07 DIIS
   @DF-RHF iter   9:  -157.27305960633058   -6.47276e-10   7.53443e-08 DIIS
   @DF-RHF iter  10:  -157.27305960637509   -4.45084e-11   2.11477e-08 DIIS
   @DF-RHF iter  11:  -157.27305960637747   -2.38742e-12   4.87714e-09 DIIS
   @DF-RHF iter  12:  -157.27305960637781   -3.41061e-13   1.09091e-09 DIIS
   @DF-RHF iter  13:  -157.27305960637776    5.68434e-14   1.81895e-10 DIIS
   @DF-RHF iter  14:  -157.27305960637759    1.70530e-13   4.09436e-11 DIIS

  ==> Post-Iterations <==

    Orbital Energies (a.u.)
    -----------------------

    Doubly Occupied:                                                      

       1A    -11.206567     2A    -11.205960     3A    -11.197793  
       4A    -11.197615     5A     -1.077930     6A     -0.966057  
       7A     -0.889860     8A     -0.769743     9A     -0.651123  
      10A     -0.627411    11A     -0.563308    12A     -0.540453  
      13A     -0.534553    14A     -0.511301    15A     -0.456042  
      16A     -0.453522    17A     -0.451194  

    Virtual:                                                              

      18A      0.229871    19A      0.273912    20A      0.280593  
      21A      0.305691    22A      0.308533    23A      0.315641  
      24A      0.356932    25A      0.361419    26A      0.382246  
      27A      0.383475    28A      0.430715    29A      0.447165  
      30A      0.488089    31A      0.705736    32A      0.735225  
      33A      0.760351    34A      0.772632    35A      0.799778  
      36A      0.802966    37A      0.861218    38A      0.931894  
      39A      0.932739    40A      1.009530    41A      1.130450  
      42A      1.153844    43A      1.162113    44A      1.192623  
      45A      1.197788    46A      1.213351    47A      1.216032  
      48A      1.217285    49A      1.238751    50A      1.273532  
      51A      1.280842    52A      1.287337    53A      1.337480  
      54A      1.624978    55A      1.683832    56A      1.707633  
      57A      1.755476    58A      1.937131    59A      2.111338  
      60A      2.178995    61A      2.197437    62A      2.286886  
      63A      2.295407    64A      2.331740    65A      2.376217  
      66A      2.434975    67A      2.548241    68A      2.577651  
      69A      2.653762    70A      2.706655    71A      2.730723  
      72A      2.756428    73A      2.835256    74A      2.909255  
      75A      2.992361    76A      3.102894    77A      4.593527  
      78A      4.717714    79A      4.783097    80A      5.029943  

    Final Occupation by Irrep:
              A 
    DOCC [    17 ]

  Energy converged.

  @DF-RHF Final Energy:  -157.27305960637759

   => Energetics <=

    Nuclear Repulsion Energy =            136.5185159524973244
    One-Electron Energy =                -480.9822895458022458
    Two-Electron Energy =                 187.1907139869273919
    DFT Exchange-Correlation Energy =       0.0000000000000000
    Empirical Dispersion Energy =           0.0000000000000000
    PCM Polarization Energy =               0.0000000000000000
    EFP Energy =                            0.0000000000000000
    Total Energy =                       -157.2730596063775579


  Saving occupied orbitals to File 180.

*** tstop() called on lski1497 at Thu Feb 16 15:15:42 2017
Module time:
	user time   =       2.98 seconds =       0.05 minutes
	system time =       0.14 seconds =       0.00 minutes
	total time  =          3 seconds =       0.05 minutes
Total time:
	user time   =       2.98 seconds =       0.05 minutes
	system time =       0.14 seconds =       0.00 minutes
	total time  =          3 seconds =       0.05 minutes


Properties will be evaluated at   0.000000,   0.000000,   0.000000 Bohr

Properties computed using the SCF density matrix

  Nuclear Dipole Moment: (a.u.)
     X:    -0.9731      Y:    -0.3657      Z:    -0.4168

  Electronic Dipole Moment: (a.u.)
     X:     1.0042      Y:     0.3765      Z:     0.4298

  Dipole Moment: (a.u.)
     X:     0.0310      Y:     0.0108      Z:     0.0129     Total:     0.0353

  Dipole Moment: (Debye)
     X:     0.0789      Y:     0.0275      Z:     0.0329     Total:     0.0898


  //>>>>>>>>>>>>>>>>>>>>>>>>>>>>>>>>>>>//
  //               DFMP2               //
  //<<<<<<<<<<<<<<<<<<<<<<<<<<<<<<<<<<<//


*** tstart() called on lski1497
*** at Thu Feb 16 15:15:42 2017


*** tstop() called on lski1497 at Thu Feb 16 15:15:42 2017
Module time:
	user time   =       0.29 seconds =       0.00 minutes
	system time =       0.00 seconds =       0.00 minutes
	total time  =          0 seconds =       0.00 minutes
Total time:
	user time   =       3.28 seconds =       0.05 minutes
	system time =       0.14 seconds =       0.00 minutes
	total time  =          3 seconds =       0.05 minutes
	 --------------------------------------------------------
	                          DF-MP2                         
	      2nd-Order Density-Fitted Moller-Plesset Theory     
	              RMP2 Wavefunction,   1 Threads             
	                                                         
	        Rob Parrish, Justin Turney, Andy Simmonett,      
	           Ed Hohenstein, and C. David Sherrill          
	 --------------------------------------------------------

   => Auxiliary Basis Set <=

  Basis Set: 
    Number of shells: 132
    Number of basis function: 364
    Number of Cartesian functions: 414
    Spherical Harmonics?: true
    Max angular momentum: 3

	 --------------------------------------------------------
	                 NBF =    80, NAUX =   364
	 --------------------------------------------------------
	   CLASS    FOCC     OCC    AOCC    AVIR     VIR    FVIR
	   PAIRS       0      17      17      63      63       0
	 --------------------------------------------------------

DGAS Warning! /src/lib/libfock/apps.cc:80 is not currently checking restricted

         ------------------------------------------------------------
                                     CPHF                           
                                  Rob Parrish                       
         ------------------------------------------------------------

  ==> Geometry <==

    Molecular point group: c1
    Full point group: C1

    Geometry (in Angstrom), charge = 0, multiplicity = 1:

       Center              X                  Y                   Z               Mass       
    ------------   -----------------  -----------------  -----------------  -----------------
           H         -1.663204780046     0.303690560365     0.592335850585     1.007825032070
           H         -1.522204780046     1.931690560365    -0.027664149415     1.007825032070
           H         -1.224204780046     0.567690560365    -1.077664149415     1.007825032070
           C         -1.125204780046     0.938690560365    -0.079664149415    12.000000000000
           H          0.901795219954     1.594690560365    -0.357664149415     1.007825032070
           H          0.463795219954     1.331690560365     1.313335850585     1.007825032070
           C          0.363795219954     0.959690560365     0.315335850585    12.000000000000
           H          1.841795219954    -0.459309439635    -0.327664149415     1.007825032070
           H          1.138795219954    -0.823309439635     1.228335850585     1.007825032070
           C          0.935795219954    -0.468309439635     0.240335850585    12.000000000000
           H          0.310795219954    -2.388309439635    -0.490664149415     1.007825032070
           H         -0.291204780046    -1.042309439635    -1.426664149415     1.007825032070
           H         -0.994204780046    -1.406309439635     0.129335850585     1.007825032070
           C         -0.087204780046    -1.397309439635    -0.438664149415    12.000000000000

  Nuclear repulsion =  136.518515952497324
  Reference energy  = -157.273059606377586

  ==> Basis Set <==

  Basis Set: 6-31G(D)
    Number of shells: 44
    Number of basis function: 80
    Number of Cartesian functions: 80
    Spherical Harmonics?: false
    Max angular momentum: 2

  ==> CGRSolver (by Rob Parrish) <==

   Number of roots    =         1
   Preconditioning    =    JACOBI
   Convergence cutoff =     1E-06
   Maximum iterations =       100

  ==> CPHFRHamiltonian (by Rob Parrish) <== 

  ==> DFJK: Density-Fitted J/K Matrices <==

    J tasked:                  Yes
    K tasked:                  Yes
    wK tasked:                  No
    OpenMP threads:              1
    Integrals threads:           1
    Memory (MB):               715
    Algorithm:                Core
    Integral Cache:           NONE
    Schwarz Cutoff:          1E-12
    Fitting Condition:       1E-12

   => Auxiliary Basis Set <=

  Basis Set: 
    Number of shells: 186
    Number of basis function: 574
    Number of Cartesian functions: 574
    Spherical Harmonics?: false
    Max angular momentum: 3

  ==> CPHF Iterations <==

  => Iterations <=

             Iter  Converged  Remaining    Residual
  CGR           1          0          1   7.620E-02
  CGR           2          0          1   8.697E-03
  CGR           3          0          1   2.112E-03
  CGR           4          0          1   4.196E-04
  CGR           5          0          1   7.832E-05
  CGR           6          0          1   1.383E-05
  CGR           7          0          1   1.866E-06
  CGR           8          1          0   4.919E-07

    CGRSolver converged.

  ==> DFCorrGrad: Density-Fitted Correlated Gradients <==

    OpenMP threads:              1
    Integrals threads:           1
    Memory (MB):               715
    Schwarz Cutoff:          0E+00
    Fitting Condition:       1E-12

   => Auxiliary Basis Set <=

  Basis Set: 
    Number of shells: 186
    Number of basis function: 510
    Number of Cartesian functions: 574
    Spherical Harmonics?: true
    Max angular momentum: 3

	-----------------------------------------------------------
	 ==================> DF-MP2 Energies <==================== 
	-----------------------------------------------------------
	 Reference Energy          =    -157.2730596063775863 [Eh]
	 Singles Energy            =      -0.0000000000000000 [Eh]
	 Same-Spin Energy          =      -0.1253916325606152 [Eh]
	 Opposite-Spin Energy      =      -0.4216448993835457 [Eh]
	 Correlation Energy        =      -0.5470365319441609 [Eh]
	 Total Energy              =    -157.8200961383217589 [Eh]
	-----------------------------------------------------------
	 ================> DF-SCS-MP2 Energies <================== 
	-----------------------------------------------------------
	 SCS Same-Spin Scale       =       0.3333333333333333 [-]
	 SCS Opposite-Spin Scale   =       1.2000000000000000 [-]
	 SCS Same-Spin Energy      =      -0.0417972108535384 [Eh]
	 SCS Opposite-Spin Energy  =      -0.5059738792602547 [Eh]
	 SCS Correlation Energy    =      -0.5477710901137931 [Eh]
	 SCS Total Energy          =    -157.8208306964913845 [Eh]
	-----------------------------------------------------------


  -Total Gradient:
     Atom            X                  Y                   Z
    ------   -----------------  -----------------  -----------------
       1        0.012380469457     0.003015386460    -0.008296851264
       2        0.008910085718    -0.014596566998    -0.000318254534
       3        0.007460447461    -0.000997494224     0.011154372202
       4       -0.022003030557    -0.018895761595    -0.010549969394
       5       -0.007478838160    -0.013196578785     0.007919893052
       6       -0.002964518183    -0.010745800593    -0.013713517832
       7        0.018938003886     0.020936153474     0.008659386294
       8       -0.016760766412     0.003357300955     0.005581251445
       9       -0.006305495522     0.008253360990    -0.014531353968
      10        0.027194249143    -0.004029413879     0.011473425842
      11       -0.004359747235     0.017518158667     0.002459944924
      12        0.002548785635     0.002593982641     0.014936987580
      13        0.009782744963     0.007845939789    -0.003302283817
      14       -0.027342390195    -0.001058666902    -0.011473030529


			-----------------------------------------
			 OPTKING 2.0: for geometry optimizations 
			  - R.A. King,  Bethel University        
			-----------------------------------------

	Previous internal coordinate definitions found.
	---Fragment 1 Geometry and Gradient---
	 H          -3.1430015372        0.5738919882        1.1193525363
	 H          -2.8765501525        3.6503661326       -0.0522776661
	 H          -2.3134117649        1.0727796873       -2.0364901056
	 C          -2.1263288777        1.7738680826       -0.1505434250
	 H           1.7041459937        3.0135284258       -0.6758872899
	 H           0.8764459475        2.5165304528        2.4818450781
	 C           0.6874733342        1.8135523314        0.5958983975
	 H           3.4804885586       -0.8679690512       -0.6191955060
	 H           2.1520110872       -1.5558293635        2.3212183568
	 C           1.7683966822       -0.8849765864        0.4541689375
	 H           0.5873178491       -4.5132507615       -0.9272208656
	 H          -0.5502972829       -1.9696793866       -2.6960045260
	 H          -1.8787747543       -2.6575396990        0.2444093368
	 C          -0.1647931518       -2.6405321638       -0.8289551067
	             0.0123804695        0.0030153865       -0.0082968513
	             0.0089100857       -0.0145965670       -0.0003182545
	             0.0074604475       -0.0009974942        0.0111543722
	            -0.0220030306       -0.0188957616       -0.0105499694
	            -0.0074788382       -0.0131965788        0.0079198931
	            -0.0029645182       -0.0107458006       -0.0137135178
	             0.0189380039        0.0209361535        0.0086593863
	            -0.0167607664        0.0033573010        0.0055812514
	            -0.0063054955        0.0082533610       -0.0145313540
	             0.0271942491       -0.0040294139        0.0114734258
	            -0.0043597472        0.0175181587        0.0024599449
	             0.0025487856        0.0025939826        0.0149369876
	             0.0097827450        0.0078459398       -0.0033022838
	            -0.0273423902       -0.0010586669       -0.0114730305

	Previous optimization step data not found.  Starting new optimization.

	---Fragment 1 Intrafragment Coordinates---
	 - Coordinate -           - BOHR/RAD -       - ANG/DEG -
	 R(1,4)           =         2.021436	       1.069698
	 R(2,4)           =         2.023298	       1.070683
	 R(3,4)           =         2.020723	       1.069320
	 R(4,7)           =         2.911397	       1.540645
	 R(5,7)           =         2.022623	       1.070326
	 R(6,7)           =         2.021555	       1.069761
	 R(7,10)          =         2.910419	       1.540128
	 R(8,10)          =         2.020807	       1.069365
	 R(9,10)          =         2.020663	       1.069289
	 R(10,14)         =         2.909571	       1.539679
	 R(11,14)         =         2.020495	       1.069200
	 R(12,14)         =         2.021022	       1.069479
	 R(13,14)         =         2.022408	       1.070212
	 B(1,4,2)         =         1.910870	     109.484805
	 B(1,4,3)         =         1.911121	     109.499161
	 B(1,4,7)         =         1.910399	     109.457783
	 B(2,4,3)         =         1.910042	     109.437340
	 B(2,4,7)         =         1.910564	     109.467262
	 B(3,4,7)         =         1.910803	     109.480971
	 B(4,7,5)         =         1.909937	     109.431343
	 B(4,7,6)         =         1.911630	     109.528316
	 B(4,7,10)        =         1.911154	     109.501062
	 B(5,7,6)         =         1.910605	     109.469614
	 B(5,7,10)        =         1.910047	     109.437654
	 B(6,7,10)        =         1.910425	     109.459295
	 B(7,10,8)        =         1.909985	     109.434102
	 B(7,10,9)        =         1.910639	     109.471555
	 B(7,10,14)       =         1.911504	     109.521127
	 B(8,10,9)        =         1.909991	     109.434438
	 B(8,10,14)       =         1.911085	     109.497093
	 B(9,10,14)       =         1.910594	     109.468969
	 B(10,14,11)      =         1.910666	     109.473117
	 B(10,14,12)      =         1.911190	     109.503123
	 B(10,14,13)      =         1.911463	     109.518767
	 B(11,14,12)      =         1.911059	     109.495599
	 B(11,14,13)      =         1.910799	     109.480745
	 B(12,14,13)      =         1.908621	     109.355934
	 D(1,4,7,5)       =         3.140997	     179.965873
	 D(1,4,7,6)       =        -1.047644	     -60.025575
	 D(1,4,7,10)      =         1.047427	      60.013132
	 D(2,4,7,5)       =        -1.047689	     -60.028143
	 D(2,4,7,6)       =         1.046856	      59.980409
	 D(2,4,7,10)      =        -3.141259	    -179.980883
	 D(3,4,7,5)       =         1.046044	      59.933911
	 D(3,4,7,6)       =         3.140588	     179.942463
	 D(3,4,7,10)      =        -1.047526	     -60.018830
	 D(4,7,10,8)      =         2.269371	     130.025401
	 D(4,7,10,9)      =        -1.920598	    -110.042135
	 D(4,7,10,14)     =         0.174287	       9.985896
	 D(5,7,10,8)      =         0.175869	      10.076526
	 D(5,7,10,9)      =         2.269085	     130.008989
	 D(5,7,10,14)     =        -1.919216	    -109.962980
	 D(6,7,10,8)      =        -1.918006	    -109.893673
	 D(6,7,10,9)      =         0.175210	      10.038791
	 D(6,7,10,14)     =         2.270094	     130.066822
	 D(7,10,14,11)    =         3.141218	     179.978536
	 D(7,10,14,12)    =         1.045940	      59.927955
	 D(7,10,14,13)    =        -1.046840	     -59.979490
	 D(8,10,14,11)    =         1.046806	      59.977561
	 D(8,10,14,12)    =        -1.048472	     -60.073021
	 D(8,10,14,13)    =        -3.141252	    -179.980465
	 D(9,10,14,11)    =        -1.047055	     -59.991852
	 D(9,10,14,12)    =         3.140852	     179.957567
	 D(9,10,14,13)    =         1.048072	      60.050123

	Current energy   :      -157.8200961383

	Generating empirical Hessian (Schlegel '84) for each fragment.
	Adding user-defined constraint: Fragment 1; Coordinate 49:
		Value =     0.174287; Fixed value    =     0.174530
		Force =     0.000122; Force constant =     0.500000
	Removing off-diagonal coupling between coordinate 49 and others.
	Taking RFO optimization step.
	Going to follow RFO solution 1.
	Using RFO vector 1.

	Determining step-restricting scale parameter for RS-RFO.
	Maximum step size allowed    0.10000

	 Iter      |step|        alpha        rfo_root  
	------------------------------------------------
	    0     0.51816       1.00000           1
	    1     0.33825       4.22343           1
	    2     0.22322      12.96567           1
	    3     0.15554      30.94485           1
	    4     0.11928      56.59674           1
	    5     0.10379      77.03853           1
	    6     0.10020      83.22655           1
	    7     0.10000      83.59336           1
	------------------------------------------------
	Norm of target step-size    0.10000
	Projected energy change by RFO approximation:        -0.0136702387

	Back-transformation to cartesian coordinates...
	Could not converge backtransformation.
	Using first guess instead.

	--- Internal Coordinate Step in ANG or DEG, aJ/ANG or AJ/DEG ---
	 ---------------------------------------------------------------------------
	   Coordinate                Previous        Force       Change         New 
	   ----------                --------       ------       ------       ------
	    1 R(1,4)          =      1.069698     0.108989     0.005117     1.074815
	    2 R(2,4)          =      1.070683     0.138878     0.007293     1.077976
	    3 R(3,4)          =      1.069320     0.088608     0.004589     1.073910
	    4 R(4,7)          =      1.540645     0.033275     0.003571     1.544216
	    5 R(5,7)          =      1.070326     0.136502     0.005793     1.076119
	    6 R(6,7)          =      1.069761     0.138472     0.005975     1.075735
	    7 R(7,10)         =      1.540128     0.312099     0.013905     1.554032
	    8 R(8,10)         =      1.069365     0.141183     0.006087     1.075451
	    9 R(9,10)         =      1.069289     0.143056     0.006064     1.075352
	   10 R(10,14)        =      1.539679     0.037208     0.003746     1.543425
	   11 R(11,14)        =      1.069200     0.148127     0.007670     1.076870
	   12 R(12,14)        =      1.069479     0.110598     0.005185     1.074664
	   13 R(13,14)        =      1.070212     0.083289     0.004370     1.074582
	   14 B(1,4,2)        =    109.484805    -0.000436    -0.229553   109.255252
	   15 B(1,4,3)        =    109.499161    -0.000305    -0.266344   109.232817
	   16 B(1,4,7)        =    109.457783     0.000522     0.308748   109.766531
	   17 B(2,4,3)        =    109.437340    -0.000454    -0.236118   109.201222
	   18 B(2,4,7)        =    109.467262    -0.000002     0.006955   109.474217
	   19 B(3,4,7)        =    109.480971     0.000676     0.412850   109.893821
	   20 B(4,7,5)        =    109.431343    -0.001520    -0.834749   108.596594
	   21 B(4,7,6)        =    109.528316    -0.001725    -0.924303   108.604013
	   22 B(4,7,10)       =    109.501062     0.005469     3.001479   112.502542
	   23 B(5,7,6)        =    109.469614     0.000680     0.298238   109.767852
	   24 B(5,7,10)       =    109.437654    -0.001469    -0.781807   108.655848
	   25 B(6,7,10)       =    109.459295    -0.001436    -0.767457   108.691837
	   26 B(7,10,8)       =    109.434102    -0.001434    -0.766148   108.667954
	   27 B(7,10,9)       =    109.471555    -0.001475    -0.784942   108.686613
	   28 B(7,10,14)      =    109.521127     0.005468     3.000271   112.521398
	   29 B(8,10,9)       =    109.434438     0.000682     0.299367   109.733805
	   30 B(8,10,14)      =    109.497093    -0.001720    -0.921482   108.575610
	   31 B(9,10,14)      =    109.468969    -0.001524    -0.837255   108.631714
	   32 B(10,14,11)     =    109.473117     0.000003     0.010536   109.483653
	   33 B(10,14,12)     =    109.503123     0.000512     0.303008   109.806131
	   34 B(10,14,13)     =    109.518767     0.000670     0.410278   109.929045
	   35 B(11,14,12)     =    109.495599    -0.000435    -0.229481   109.266118
	   36 B(11,14,13)     =    109.480745    -0.000459    -0.239984   109.240762
	   37 B(12,14,13)     =    109.355934    -0.000291    -0.258173   109.097761
	   38 D(1,4,7,5)      =    179.965873     0.000180     0.416570   180.382443
	   39 D(1,4,7,6)      =    -60.025575    -0.000085    -0.266039   -60.291614
	   40 D(1,4,7,10)     =     60.013132     0.000039     0.057352    60.070484
	   41 D(2,4,7,5)      =    -60.028143     0.000130     0.328806   -59.699337
	   42 D(2,4,7,6)      =     59.980409    -0.000135    -0.353803    59.626606
	   43 D(2,4,7,10)     =   -179.980883    -0.000011    -0.030413  -180.011296
	   44 D(3,4,7,5)      =     59.933911     0.000097     0.296959    60.230869
	   45 D(3,4,7,6)      =    179.942463    -0.000168    -0.385651   179.556812
	   46 D(3,4,7,10)     =    -60.018830    -0.000044    -0.062260   -60.081090
	   47 D(4,7,10,8)     =    130.025401     0.000142     0.349359   130.374761
	   48 D(4,7,10,9)     =   -110.042135    -0.000074    -0.209330  -110.251465
	   49 D(4,7,10,14)    =      9.985896     0.000059     0.117269    10.103166
	   50 D(5,7,10,8)     =     10.076526     0.000008     0.020460    10.096986
	   51 D(5,7,10,9)     =    130.008989    -0.000208    -0.538229   129.470760
	   52 D(5,7,10,14)    =   -109.962980    -0.000075    -0.211630  -110.174610
	   53 D(6,7,10,8)     =   -109.893673     0.000224     0.579887  -109.313786
	   54 D(6,7,10,9)     =     10.038791     0.000008     0.021198    10.059989
	   55 D(6,7,10,14)    =    130.066822     0.000141     0.347798   130.414619
	   56 D(7,10,14,11)   =    179.978536    -0.000010    -0.028547   179.949989
	   57 D(7,10,14,12)   =     59.927955     0.000040     0.060261    59.988216
	   58 D(7,10,14,13)   =    -59.979490    -0.000044    -0.064086   -60.043576
	   59 D(8,10,14,11)   =     59.977561    -0.000134    -0.352420    59.625141
	   60 D(8,10,14,12)   =    -60.073021    -0.000084    -0.263611   -60.336632
	   61 D(8,10,14,13)   =   -179.980465    -0.000168    -0.387959  -180.368424
	   62 D(9,10,14,11)   =    -59.991852     0.000130     0.328107   -59.663745
	   63 D(9,10,14,12)   =    179.957567     0.000180     0.416915   180.374482
	   64 D(9,10,14,13)   =     60.050123     0.000096     0.292567    60.342690
	 ---------------------------------------------------------------------------
	 Forces used to impose fixed constraints are not included.
	  Forces zeroed: 49 

  ==> Convergence Check <==

  Measures of convergence in internal coordinates in au.
  Criteria marked as inactive (o), active & met (*), and active & unmet ( ).
  --------------------------------------------------------------------------------------------- ~
   Step     Total Energy     Delta E     MAX Force     RMS Force      MAX Disp      RMS Disp    ~
  --------------------------------------------------------------------------------------------- ~
    Convergence Criteria    1.00e-06 *    3.00e-04 *             o    1.20e-03 *             o  ~
  --------------------------------------------------------------------------------------------- ~
      1    -157.82009614   -1.58e+02      7.19e-02      1.73e-02 o    5.24e-02      1.27e-02 o  ~
  ---------------------------------------------------------------------------------------------

	Writing optimization data to binary file.
	Structure for next step:
	Cartesian Geometry (in Angstrom)
	    H    -1.7203426082   0.3969226619   0.6005071352
	    H    -1.5018839010   2.0339616185   0.0056844349
	    H    -1.2862211324   0.6690543194  -1.0747336307
	    C    -1.1513317125   1.0172308142  -0.0678273655
	    H     0.8945747439   1.5912405229  -0.3632857173
	    H     0.4565030627   1.3194235293   1.3197128096
	    C     0.3442893548   0.9595958299   0.3121718319
	    H     1.8352844154  -0.4521637331  -0.3400407289
	    H     1.1295763774  -0.8259886927   1.2271821132
	    C     0.9237758991  -0.4800092691   0.2300228279
	    H     0.4008936475  -2.4491479204  -0.4768174046
	    H    -0.2618926242  -1.1460303909  -1.4467914431
	    H    -0.9659093674  -1.5205190202   0.1118661100
	    C    -0.0481830758  -1.4709024247  -0.4449490644
			--------------------------
			 OPTKING Finished Execution 
			--------------------------

    Structure for next step:
    Molecular point group: c1
    Full point group: C1

    Geometry (in Angstrom), charge = 0, multiplicity = 1:

    H           -1.716816524537     0.398218613857     0.602007092263
    H           -1.498357817271     2.035257570425     0.007184391940
    H           -1.282695048650     0.670350271379    -1.073233673626
    C           -1.147805628816     1.018526766153    -0.066327408442
    H            0.898100827619     1.592536474878    -0.361785760279
    H            0.460029146377     1.320719481273     1.321212766630
    C            0.347815438540     0.960891781882     0.313671788946
    H            1.838810499137    -0.450867781132    -0.338540771839
    H            1.133102461087    -0.824692740772     1.228682070313
    C            0.927301982830    -0.478713317112     0.231522784993
    H            0.404419731248    -2.447851968466    -0.475317447539
    H           -0.258366540494    -1.144734438905    -1.445291486020
    H           -0.962383283647    -1.519223068211     0.113366067106
    C           -0.044656992079    -1.469606472764    -0.443449107318

gradient() will perform analytic gradient computation.
    SCF Algorithm Type (re)set to DF.

*** tstart() called on lski1497
*** at Thu Feb 16 15:15:52 2017


         ---------------------------------------------------------
                                   SCF
            by Justin Turney, Rob Parrish, and Andy Simmonett
                              RHF Reference
                        1 Threads,   1000 MiB Core
         ---------------------------------------------------------

  ==> Geometry <==

    Molecular point group: c1
    Full point group: C1

    Geometry (in Angstrom), charge = 0, multiplicity = 1:

       Center              X                  Y                   Z               Mass       
    ------------   -----------------  -----------------  -----------------  -----------------
           H         -1.716816524537     0.398218613857     0.602007092263     1.007825032070
           H         -1.498357817271     2.035257570425     0.007184391940     1.007825032070
           H         -1.282695048650     0.670350271379    -1.073233673626     1.007825032070
           C         -1.147805628816     1.018526766153    -0.066327408442    12.000000000000
           H          0.898100827619     1.592536474878    -0.361785760279     1.007825032070
           H          0.460029146377     1.320719481273     1.321212766630     1.007825032070
           C          0.347815438540     0.960891781882     0.313671788946    12.000000000000
           H          1.838810499137    -0.450867781132    -0.338540771839     1.007825032070
           H          1.133102461087    -0.824692740772     1.228682070313     1.007825032070
           C          0.927301982830    -0.478713317112     0.231522784993    12.000000000000
           H          0.404419731248    -2.447851968466    -0.475317447539     1.007825032070
           H         -0.258366540494    -1.144734438905    -1.445291486020     1.007825032070
           H         -0.962383283647    -1.519223068211     0.113366067106     1.007825032070
           C         -0.044656992079    -1.469606472764    -0.443449107318    12.000000000000

  Running in c1 symmetry.

  Rotational constants: A =      0.38633  B =      0.19245  C =      0.14218 [cm^-1]
  Rotational constants: A =  11582.01867  B =   5769.51587  C =   4262.41762 [MHz]
  Nuclear repulsion =  134.502274499173495

  Charge       = 0
  Multiplicity = 1
  Electrons    = 34
  Nalpha       = 17
  Nbeta        = 17

  ==> Algorithm <==

  SCF Algorithm Type is DF.
  DIIS enabled.
  MOM disabled.
  Fractional occupation disabled.
  Guess Type is READ.
  Energy threshold   = 1.00e-10
  Density threshold  = 1.00e-10
  Integral threshold = 0.00e+00

  ==> Primary Basis <==

  Basis Set: 6-31G(D)
    Number of shells: 44
    Number of basis function: 80
    Number of Cartesian functions: 80
    Spherical Harmonics?: false
    Max angular momentum: 2

  ==> Pre-Iterations <==

   -------------------------------------------------------
    Irrep   Nso     Nmo     Nalpha   Nbeta   Ndocc  Nsocc
   -------------------------------------------------------
     A         80      80       0       0       0       0
   -------------------------------------------------------
    Total      80      80      17      17      17       0
   -------------------------------------------------------

  ==> Integral Setup <==

  ==> DFJK: Density-Fitted J/K Matrices <==

    J tasked:                  Yes
    K tasked:                  Yes
    wK tasked:                  No
    OpenMP threads:              1
    Integrals threads:           1
    Memory (MB):               715
    Algorithm:                Core
    Integral Cache:           NONE
    Schwarz Cutoff:          1E-12
    Fitting Condition:       1E-12

   => Auxiliary Basis Set <=

  Basis Set: 
    Number of shells: 186
    Number of basis function: 574
    Number of Cartesian functions: 574
    Spherical Harmonics?: false
    Max angular momentum: 3

  Minimum eigenvalue in the overlap matrix is 3.7730171265E-03.
  Using Symmetric Orthogonalization.
  SCF Guess was Projection but file not found.
  Switching over to SAD guess.

  SCF Guess: Superposition of Atomic Densities via on-the-fly atomic UHF.

  ==> Iterations <==

                           Total Energy        Delta E     RMS |[F,P]|

   @DF-RHF iter   0:  -158.80493856339626   -1.58805e+02   4.59327e-02 
   @DF-RHF iter   1:  -157.17882656799168    1.62611e+00   4.41555e-03 
   @DF-RHF iter   2:  -157.27207175636295   -9.32452e-02   1.40255e-03 DIIS
   @DF-RHF iter   3:  -157.28186545550682   -9.79370e-03   5.59169e-04 DIIS
   @DF-RHF iter   4:  -157.28338521548125   -1.51976e-03   8.41833e-05 DIIS
   @DF-RHF iter   5:  -157.28343791617652   -5.27007e-05   1.69203e-05 DIIS
   @DF-RHF iter   6:  -157.28344000713253   -2.09096e-06   4.12968e-06 DIIS
   @DF-RHF iter   7:  -157.28344009410921   -8.69767e-08   1.06782e-06 DIIS
   @DF-RHF iter   8:  -157.28344010167655   -7.56734e-09   2.42931e-07 DIIS
   @DF-RHF iter   9:  -157.28344010215716   -4.80611e-10   6.78295e-08 DIIS
   @DF-RHF iter  10:  -157.28344010219359   -3.64366e-11   1.91855e-08 DIIS
   @DF-RHF iter  11:  -157.28344010219558   -1.98952e-12   4.38148e-09 DIIS
   @DF-RHF iter  12:  -157.28344010219581   -2.27374e-13   9.66850e-10 DIIS
   @DF-RHF iter  13:  -157.28344010219553    2.84217e-13   1.86028e-10 DIIS
   @DF-RHF iter  14:  -157.28344010219564   -1.13687e-13   6.41826e-11 DIIS

  ==> Post-Iterations <==

    Orbital Energies (a.u.)
    -----------------------

    Doubly Occupied:                                                      

       1A    -11.210070     2A    -11.209512     3A    -11.202113  
       4A    -11.201980     5A     -1.068893     6A     -0.969886  
       7A     -0.883202     8A     -0.769619     9A     -0.645205  
      10A     -0.618308    11A     -0.567441    12A     -0.533573  
      13A     -0.527278    14A     -0.520707    15A     -0.455734  
      16A     -0.453281    17A     -0.452372  

    Virtual:                                                              

      18A      0.226551    19A      0.276040    20A      0.281544  
      21A      0.301257    22A      0.305875    23A      0.314011  
      24A      0.352579    25A      0.361755    26A      0.370792  
      27A      0.379157    28A      0.426857    29A      0.431529  
      30A      0.487080    31A      0.707414    32A      0.733011  
      33A      0.743603    34A      0.780311    35A      0.794096  
      36A      0.805119    37A      0.858928    38A      0.919036  
      39A      0.935320    40A      1.008387    41A      1.121575  
      42A      1.145214    43A      1.158854    44A      1.171346  
      45A      1.185125    46A      1.199173    47A      1.206340  
      48A      1.215937    49A      1.221250    50A      1.266223  
      51A      1.269424    52A      1.282361    53A      1.324502  
      54A      1.613782    55A      1.677013    56A      1.711876  
      57A      1.715824    58A      1.933942    59A      2.088504  
      60A      2.146803    61A      2.174213    62A      2.269250  
      63A      2.286742    64A      2.324831    65A      2.367956  
      66A      2.428040    67A      2.545890    68A      2.579406  
      69A      2.649447    70A      2.692655    71A      2.712652  
      72A      2.742523    73A      2.813381    74A      2.899267  
      75A      2.985317    76A      3.089186    77A      4.564968  
      78A      4.718598    79A      4.770809    80A      5.013291  

    Final Occupation by Irrep:
              A 
    DOCC [    17 ]

  Energy converged.

  @DF-RHF Final Energy:  -157.28344010219564

   => Energetics <=

    Nuclear Repulsion Energy =            134.5022744991734953
    One-Electron Energy =                -476.9930817452308247
    Two-Electron Energy =                 185.2073671438615747
    DFT Exchange-Correlation Energy =       0.0000000000000000
    Empirical Dispersion Energy =           0.0000000000000000
    PCM Polarization Energy =               0.0000000000000000
    EFP Energy =                            0.0000000000000000
    Total Energy =                       -157.2834401021957547


  Saving occupied orbitals to File 180.

*** tstop() called on lski1497 at Thu Feb 16 15:15:55 2017
Module time:
	user time   =       3.03 seconds =       0.05 minutes
	system time =       0.12 seconds =       0.00 minutes
	total time  =          3 seconds =       0.05 minutes
Total time:
	user time   =      16.54 seconds =       0.28 minutes
	system time =       0.64 seconds =       0.01 minutes
	total time  =         16 seconds =       0.27 minutes


Properties will be evaluated at   0.000000,   0.000000,   0.000000 Bohr

Properties computed using the SCF density matrix

  Nuclear Dipole Moment: (a.u.)
     X:    -0.9226      Y:    -0.3471      Z:    -0.3953

  Electronic Dipole Moment: (a.u.)
     X:     0.9518      Y:     0.3575      Z:     0.4076

  Dipole Moment: (a.u.)
     X:     0.0292      Y:     0.0104      Z:     0.0122     Total:     0.0333

  Dipole Moment: (Debye)
     X:     0.0742      Y:     0.0264      Z:     0.0310     Total:     0.0846


  //>>>>>>>>>>>>>>>>>>>>>>>>>>>>>>>>>>>//
  //               DFMP2               //
  //<<<<<<<<<<<<<<<<<<<<<<<<<<<<<<<<<<<//


*** tstart() called on lski1497
*** at Thu Feb 16 15:15:55 2017


*** tstop() called on lski1497 at Thu Feb 16 15:15:55 2017
Module time:
	user time   =       0.26 seconds =       0.00 minutes
	system time =       0.00 seconds =       0.00 minutes
	total time  =          0 seconds =       0.00 minutes
Total time:
	user time   =      16.81 seconds =       0.28 minutes
	system time =       0.64 seconds =       0.01 minutes
	total time  =         16 seconds =       0.27 minutes
	 --------------------------------------------------------
	                          DF-MP2                         
	      2nd-Order Density-Fitted Moller-Plesset Theory     
	              RMP2 Wavefunction,   1 Threads             
	                                                         
	        Rob Parrish, Justin Turney, Andy Simmonett,      
	           Ed Hohenstein, and C. David Sherrill          
	 --------------------------------------------------------

   => Auxiliary Basis Set <=

  Basis Set: 
    Number of shells: 132
    Number of basis function: 364
    Number of Cartesian functions: 414
    Spherical Harmonics?: true
    Max angular momentum: 3

	 --------------------------------------------------------
	                 NBF =    80, NAUX =   364
	 --------------------------------------------------------
	   CLASS    FOCC     OCC    AOCC    AVIR     VIR    FVIR
	   PAIRS       0      17      17      63      63       0
	 --------------------------------------------------------

DGAS Warning! /src/lib/libfock/apps.cc:80 is not currently checking restricted

         ------------------------------------------------------------
                                     CPHF                           
                                  Rob Parrish                       
         ------------------------------------------------------------

  ==> Geometry <==

    Molecular point group: c1
    Full point group: C1

    Geometry (in Angstrom), charge = 0, multiplicity = 1:

       Center              X                  Y                   Z               Mass       
    ------------   -----------------  -----------------  -----------------  -----------------
           H         -1.716816524537     0.398218613857     0.602007092263     1.007825032070
           H         -1.498357817271     2.035257570425     0.007184391940     1.007825032070
           H         -1.282695048650     0.670350271379    -1.073233673626     1.007825032070
           C         -1.147805628816     1.018526766153    -0.066327408442    12.000000000000
           H          0.898100827619     1.592536474878    -0.361785760279     1.007825032070
           H          0.460029146377     1.320719481273     1.321212766630     1.007825032070
           C          0.347815438540     0.960891781882     0.313671788946    12.000000000000
           H          1.838810499137    -0.450867781132    -0.338540771839     1.007825032070
           H          1.133102461087    -0.824692740772     1.228682070313     1.007825032070
           C          0.927301982830    -0.478713317112     0.231522784993    12.000000000000
           H          0.404419731248    -2.447851968466    -0.475317447539     1.007825032070
           H         -0.258366540494    -1.144734438905    -1.445291486020     1.007825032070
           H         -0.962383283647    -1.519223068211     0.113366067106     1.007825032070
           C         -0.044656992079    -1.469606472764    -0.443449107318    12.000000000000

  Nuclear repulsion =  134.502274499173495
  Reference energy  = -157.283440102195641

  ==> Basis Set <==

  Basis Set: 6-31G(D)
    Number of shells: 44
    Number of basis function: 80
    Number of Cartesian functions: 80
    Spherical Harmonics?: false
    Max angular momentum: 2

  ==> CGRSolver (by Rob Parrish) <==

   Number of roots    =         1
   Preconditioning    =    JACOBI
   Convergence cutoff =     1E-06
   Maximum iterations =       100

  ==> CPHFRHamiltonian (by Rob Parrish) <== 

  ==> DFJK: Density-Fitted J/K Matrices <==

    J tasked:                  Yes
    K tasked:                  Yes
    wK tasked:                  No
    OpenMP threads:              1
    Integrals threads:           1
    Memory (MB):               715
    Algorithm:                Core
    Integral Cache:           NONE
    Schwarz Cutoff:          1E-12
    Fitting Condition:       1E-12

   => Auxiliary Basis Set <=

  Basis Set: 
    Number of shells: 186
    Number of basis function: 574
    Number of Cartesian functions: 574
    Spherical Harmonics?: false
    Max angular momentum: 3

  ==> CPHF Iterations <==

  => Iterations <=

             Iter  Converged  Remaining    Residual
  CGR           1          0          1   7.477E-02
  CGR           2          0          1   8.577E-03
  CGR           3          0          1   2.142E-03
  CGR           4          0          1   4.245E-04
  CGR           5          0          1   7.481E-05
  CGR           6          0          1   1.331E-05
  CGR           7          0          1   1.675E-06
  CGR           8          1          0   4.203E-07

    CGRSolver converged.

  ==> DFCorrGrad: Density-Fitted Correlated Gradients <==

    OpenMP threads:              1
    Integrals threads:           1
    Memory (MB):               715
    Schwarz Cutoff:          0E+00
    Fitting Condition:       1E-12

   => Auxiliary Basis Set <=

  Basis Set: 
    Number of shells: 186
    Number of basis function: 510
    Number of Cartesian functions: 574
    Spherical Harmonics?: true
    Max angular momentum: 3

	-----------------------------------------------------------
	 ==================> DF-MP2 Energies <==================== 
	-----------------------------------------------------------
	 Reference Energy          =    -157.2834401021956410 [Eh]
	 Singles Energy            =      -0.0000000000000000 [Eh]
	 Same-Spin Energy          =      -0.1246186306556917 [Eh]
	 Opposite-Spin Energy      =      -0.4215588823778242 [Eh]
	 Correlation Energy        =      -0.5461775130335159 [Eh]
	 Total Energy              =    -157.8296176152291537 [Eh]
	-----------------------------------------------------------
	 ================> DF-SCS-MP2 Energies <================== 
	-----------------------------------------------------------
	 SCS Same-Spin Scale       =       0.3333333333333333 [-]
	 SCS Opposite-Spin Scale   =       1.2000000000000000 [-]
	 SCS Same-Spin Energy      =      -0.0415395435518972 [Eh]
	 SCS Opposite-Spin Energy  =      -0.5058706588533890 [Eh]
	 SCS Correlation Energy    =      -0.5474102024052863 [Eh]
	 SCS Total Energy          =    -157.8308503046009150 [Eh]
	-----------------------------------------------------------


  -Total Gradient:
     Atom            X                  Y                   Z
    ------   -----------------  -----------------  -----------------
       1        0.009782979152     0.003965713044    -0.006299334949
       2        0.005727900631    -0.009412905853    -0.000286522390
       3        0.005368826688     0.001227648171     0.010212934392
       4       -0.022664636657    -0.006908398533    -0.008583126634
       5       -0.006202543461    -0.010829850307     0.004263542865
       6       -0.003940159796    -0.009130975705    -0.009414841610
       7        0.016496453007     0.020381575185     0.008914299415
       8       -0.013484642325     0.002586213548     0.002179415002
       9       -0.006621726684     0.006157206393    -0.010272524405
      10        0.025739238492    -0.004795651358     0.009460818837
      11       -0.002927825396     0.011326850286     0.001616142134
      12        0.003050473235     0.000872379575     0.011997487880
      13        0.009530587797     0.004647294479    -0.003526390883
      14       -0.019854924681    -0.010087098926    -0.010261899654


			-----------------------------------------
			 OPTKING 2.0: for geometry optimizations 
			  - R.A. King,  Bethel University        
			-----------------------------------------

	Previous internal coordinate definitions found.
	---Fragment 1 Geometry and Gradient---
	 H          -3.2443130518        0.7525241212        1.1376285344
	 H          -2.8314859237        3.8460794180        0.0135765332
	 H          -2.4239423540        1.2667784260       -2.0281177197
	 C          -2.1690382922        1.9247366470       -0.1253406371
	 H           1.6971646039        3.0094577942       -0.6836760057
	 H           0.8693290998        2.4957981180        2.4967302922
	 C           0.6572759236        1.8158223111        0.5927537767
	 H           3.4748482536       -0.8520166285       -0.6397493436
	 H           2.1412533320       -1.5584434238        2.3218726173
	 C           1.7523467900       -0.9046370655        0.4375146572
	 H           0.7642425348       -4.6257698342       -0.8982198020
	 H          -0.4882420034       -2.1632345844       -2.7312050908
	 H          -1.8186408410       -2.8709155337        0.2142308196
	 C          -0.0843894849       -2.7771537566       -0.8379973667
	             0.0097829792        0.0039657130       -0.0062993349
	             0.0057279006       -0.0094129059       -0.0002865224
	             0.0053688267        0.0012276482        0.0102129344
	            -0.0226646367       -0.0069083985       -0.0085831266
	            -0.0062025435       -0.0108298503        0.0042635429
	            -0.0039401598       -0.0091309757       -0.0094148416
	             0.0164964530        0.0203815752        0.0089142994
	            -0.0134846423        0.0025862135        0.0021794150
	            -0.0066217267        0.0061572064       -0.0102725244
	             0.0257392385       -0.0047956514        0.0094608188
	            -0.0029278254        0.0113268503        0.0016161421
	             0.0030504732        0.0008723796        0.0119974879
	             0.0095305878        0.0046472945       -0.0035263909
	            -0.0198549247       -0.0100870989       -0.0102618997

	---Fragment 1 Intrafragment Coordinates---
	 - Coordinate -           - BOHR/RAD -       - ANG/DEG -
	 R(1,4)           =         2.031105	       1.074815
	 R(2,4)           =         2.037079	       1.077976
	 R(3,4)           =         2.029395	       1.073910
	 R(4,7)           =         2.918146	       1.544216
	 R(5,7)           =         2.033570	       1.076119
	 R(6,7)           =         2.032845	       1.075735
	 R(7,10)          =         2.936695	       1.554032
	 R(8,10)          =         2.032309	       1.075451
	 R(9,10)          =         2.032121	       1.075352
	 R(10,14)         =         2.916650	       1.543425
	 R(11,14)         =         2.034990	       1.076870
	 R(12,14)         =         2.030820	       1.074664
	 R(13,14)         =         2.030666	       1.074582
	 B(1,4,2)         =         1.906864	     109.255252
	 B(1,4,3)         =         1.906472	     109.232817
	 B(1,4,7)         =         1.915787	     109.766531
	 B(2,4,3)         =         1.905921	     109.201222
	 B(2,4,7)         =         1.910686	     109.474217
	 B(3,4,7)         =         1.918009	     109.893821
	 B(4,7,5)         =         1.895368	     108.596594
	 B(4,7,6)         =         1.895498	     108.604013
	 B(4,7,10)        =         1.963540	     112.502542
	 B(5,7,6)         =         1.915810	     109.767852
	 B(5,7,10)        =         1.896402	     108.655848
	 B(6,7,10)        =         1.897030	     108.691837
	 B(7,10,8)        =         1.896614	     108.667954
	 B(7,10,9)        =         1.896939	     108.686613
	 B(7,10,14)       =         1.963869	     112.521398
	 B(8,10,9)        =         1.915216	     109.733805
	 B(8,10,14)       =         1.895002	     108.575610
	 B(9,10,14)       =         1.895981	     108.631714
	 B(10,14,11)      =         1.910850	     109.483653
	 B(10,14,12)      =         1.916479	     109.806131
	 B(10,14,13)      =         1.918624	     109.929045
	 B(11,14,12)      =         1.907054	     109.266118
	 B(11,14,13)      =         1.906611	     109.240762
	 B(12,14,13)      =         1.904115	     109.097761
	 D(1,4,7,5)       =        -3.134918	    -179.617557
	 D(1,4,7,6)       =        -1.052287	     -60.291614
	 D(1,4,7,10)      =         1.048428	      60.070484
	 D(2,4,7,5)       =        -1.041950	     -59.699337
	 D(2,4,7,6)       =         1.040681	      59.626606
	 D(2,4,7,10)      =         3.141396	     179.988704
	 D(3,4,7,5)       =         1.051227	      60.230869
	 D(3,4,7,6)       =         3.133858	     179.556812
	 D(3,4,7,10)      =        -1.048613	     -60.081090
	 D(4,7,10,8)      =         2.275469	     130.374761
	 D(4,7,10,9)      =        -1.924251	    -110.251465
	 D(4,7,10,14)     =         0.176334	      10.103166
	 D(5,7,10,8)      =         0.176226	      10.096986
	 D(5,7,10,9)      =         2.259691	     129.470760
	 D(5,7,10,14)     =        -1.922910	    -110.174610
	 D(6,7,10,8)      =        -1.907885	    -109.313786
	 D(6,7,10,9)      =         0.175580	      10.059989
	 D(6,7,10,14)     =         2.276165	     130.414619
	 D(7,10,14,11)    =         3.140720	     179.949989
	 D(7,10,14,12)    =         1.046992	      59.988216
	 D(7,10,14,13)    =        -1.047958	     -60.043576
	 D(8,10,14,11)    =         1.040655	      59.625141
	 D(8,10,14,12)    =        -1.053073	     -60.336632
	 D(8,10,14,13)    =         3.135162	     179.631576
	 D(9,10,14,11)    =        -1.041329	     -59.663745
	 D(9,10,14,12)    =        -3.135057	    -179.625518
	 D(9,10,14,13)    =         1.053179	      60.342690

	Current energy   :      -157.8296176152

	Energy change for the previous step:
		Projected    :        -0.0136702387
		Actual       :        -0.0095214769

	Performing BFGS update.
	Previous computed or guess Hessian on step 1.
	Steps to be used in Hessian update: 1
	Adding user-defined constraint: Fragment 1; Coordinate 49:
		Value =     0.176334; Fixed value    =     0.174530
		Force =    -0.000947; Force constant =     0.525000
	Removing off-diagonal coupling between coordinate 49 and others.
	Taking RFO optimization step.
	Going to follow RFO solution 1.
	Using RFO vector 1.

	Determining step-restricting scale parameter for RS-RFO.
	Maximum step size allowed    0.10000

	 Iter      |step|        alpha        rfo_root  
	------------------------------------------------
	    0     0.19753       1.00000           1
	    1     0.15061       6.30989           1
	    2     0.12025      16.77108           1
	    3     0.10486      27.71961           1
	    4     0.10039      32.20083           1
	    5     0.10000      32.61884           1
	------------------------------------------------
	Norm of target step-size    0.10000
	Projected energy change by RFO approximation:        -0.0055900736

	Back-transformation to cartesian coordinates...
	Successfully converged to displaced geometry.

	--- Internal Coordinate Step in ANG or DEG, aJ/ANG or AJ/DEG ---
	 ---------------------------------------------------------------------------
	   Coordinate                Previous        Force       Change         New 
	   ----------                --------       ------       ------       ------
	    1 R(1,4)          =      1.074815     0.093797     0.012554     1.087369
	    2 R(2,4)          =      1.077976     0.088651     0.010875     1.088851
	    3 R(3,4)          =      1.073910     0.087727     0.012470     1.086380
	    4 R(4,7)          =      1.544216    -0.020869    -0.005281     1.538935
	    5 R(5,7)          =      1.076119     0.100551     0.012392     1.088511
	    6 R(6,7)          =      1.075735     0.101198     0.012467     1.088202
	    7 R(7,10)         =      1.554032     0.096274     0.003637     1.557669
	    8 R(8,10)         =      1.075451     0.103127     0.012691     1.088143
	    9 R(9,10)         =      1.075352     0.105240     0.012939     1.088291
	   10 R(10,14)        =      1.543425    -0.017806    -0.004828     1.538597
	   11 R(11,14)        =      1.076870     0.095225     0.011644     1.088514
	   12 R(12,14)        =      1.074664     0.094971     0.012693     1.087357
	   13 R(13,14)        =      1.074582     0.083881     0.012022     1.086604
	   14 B(1,4,2)        =    109.255252    -0.000298    -0.591826   108.663426
	   15 B(1,4,3)        =    109.232817    -0.000256    -0.627191   108.605626
	   16 B(1,4,7)        =    109.766531     0.000366     0.765895   110.532425
	   17 B(2,4,3)        =    109.201222    -0.000286    -0.529244   108.671978
	   18 B(2,4,7)        =    109.474217     0.000074     0.244075   109.718292
	   19 B(3,4,7)        =    109.893821     0.000391     0.704419   110.598240
	   20 B(4,7,5)        =    108.596594    -0.000553    -0.407235   108.189359
	   21 B(4,7,6)        =    108.604013    -0.000608    -0.408238   108.195775
	   22 B(4,7,10)       =    112.502542     0.001979     1.461615   113.964157
	   23 B(5,7,6)        =    109.767852     0.000078    -0.476919   109.290933
	   24 B(5,7,10)       =    108.655848    -0.000458    -0.088675   108.567172
	   25 B(6,7,10)       =    108.691837    -0.000455    -0.129932   108.561906
	   26 B(7,10,8)       =    108.667954    -0.000454    -0.117558   108.550396
	   27 B(7,10,9)       =    108.686613    -0.000461    -0.103331   108.583282
	   28 B(7,10,14)      =    112.521398     0.001978     1.457007   113.978405
	   29 B(8,10,9)       =    109.733805     0.000080    -0.471752   109.262053
	   30 B(8,10,14)      =    108.575610    -0.000605    -0.404269   108.171341
	   31 B(9,10,14)      =    108.631714    -0.000555    -0.410056   108.221658
	   32 B(10,14,11)     =    109.483653     0.000079     0.249752   109.733404
	   33 B(10,14,12)     =    109.806131     0.000356     0.738121   110.544252
	   34 B(10,14,13)     =    109.929045     0.000385     0.690456   110.619501
	   35 B(11,14,12)     =    109.266118    -0.000297    -0.586704   108.679415
	   36 B(11,14,13)     =    109.240762    -0.000289    -0.538298   108.702464
	   37 B(12,14,13)     =    109.097761    -0.000242    -0.587459   108.510302
	   38 D(1,4,7,5)      =   -179.617557     0.000087     0.618588  -178.998969
	   39 D(1,4,7,6)      =    -60.291614    -0.000045    -0.409862   -60.701476
	   40 D(1,4,7,10)     =     60.070484     0.000017     0.078235    60.148719
	   41 D(2,4,7,5)      =    -59.699337     0.000065     0.517775   -59.181561
	   42 D(2,4,7,6)      =     59.626606    -0.000066    -0.510674    59.115932
	   43 D(2,4,7,10)     =    179.988704    -0.000004    -0.022577   179.966127
	   44 D(3,4,7,5)      =     60.230869     0.000050     0.456937    60.687806
	   45 D(3,4,7,6)      =    179.556812    -0.000081    -0.571512   178.985300
	   46 D(3,4,7,10)     =    -60.081090    -0.000019    -0.083415   -60.164505
	   47 D(4,7,10,8)     =    130.374761     0.000066     0.508802   130.883563
	   48 D(4,7,10,9)     =   -110.251465    -0.000033    -0.183963  -110.435428
	   49 D(4,7,10,14)    =     10.103166     0.000023     0.164756    10.267922
	   50 D(5,7,10,8)     =     10.096986     0.000009     0.145277    10.242263
	   51 D(5,7,10,9)     =    129.470760    -0.000091    -0.547487   128.923273
	   52 D(5,7,10,14)    =   -110.174610    -0.000034    -0.198768  -110.373378
	   53 D(6,7,10,8)     =   -109.313786     0.000108     0.843059  -108.470727
	   54 D(6,7,10,9)     =     10.059989     0.000009     0.150294    10.210283
	   55 D(6,7,10,14)    =    130.414619     0.000065     0.499013   130.913632
	   56 D(7,10,14,11)   =    179.949989    -0.000004    -0.007569   179.942420
	   57 D(7,10,14,12)   =     59.988216     0.000018     0.099922    60.088138
	   58 D(7,10,14,13)   =    -60.043576    -0.000019    -0.083765   -60.127341
	   59 D(8,10,14,11)   =     59.625141    -0.000066    -0.510066    59.115075
	   60 D(8,10,14,12)   =    -60.336632    -0.000044    -0.402574   -60.739206
	   61 D(8,10,14,13)   =    179.631576    -0.000082    -0.586261   179.045315
	   62 D(9,10,14,11)   =    -59.663745     0.000065     0.511308   -59.152437
	   63 D(9,10,14,12)   =   -179.625518     0.000087     0.618799  -179.006719
	   64 D(9,10,14,13)   =     60.342690     0.000049     0.435112    60.777802
	 ---------------------------------------------------------------------------
	 Forces used to impose fixed constraints are not included.
	  Forces zeroed: 49 

  ==> Convergence Check <==

  Measures of convergence in internal coordinates in au.
  Criteria marked as inactive (o), active & met (*), and active & unmet ( ).
  ---------------------------------------------------------------------------------------------
   Step     Total Energy     Delta E     MAX Force     RMS Force      MAX Disp      RMS Disp   
  ---------------------------------------------------------------------------------------------
    Convergence Criteria    1.00e-06 *    3.00e-04 *             o    1.20e-03 *             o
  ---------------------------------------------------------------------------------------------
      2    -157.82961762   -9.52e-03      2.60e-02      7.60e-03 o    2.55e-02      1.25e-02 o  ~
  ---------------------------------------------------------------------------------------------

	Writing optimization data to binary file.
	Structure for next step:
	Cartesian Geometry (in Angstrom)
	    H    -1.7353688365   0.4463122640   0.6503686857
	    H    -1.4876692550   2.0868489935   0.0396155376
	    H    -1.3459866589   0.7043011287  -1.0520430544
	    C    -1.1554522959   1.0530522830  -0.0409592008
	    H     0.8858940526   1.5956183711  -0.4118049631
	    H     0.4935440864   1.3369350923   1.3001624589
	    C     0.3449149727   0.9625870170   0.2892438419
	    H     1.8354409540  -0.4528930172  -0.3916404932
	    H     1.1657365514  -0.8172332573   1.2110146137
	    C     0.9255082073  -0.4803453628   0.2044491706
	    H     0.4405514685  -2.4835538998  -0.4551572895
	    H    -0.2844377512  -1.2117696094  -1.4462759007
	    H    -0.9514500675  -1.5753999346   0.1462474976
	    C    -0.0327271765  -1.5036488959  -0.4295195971
			--------------------------
			 OPTKING Finished Execution 
			--------------------------

    Structure for next step:
    Molecular point group: c1
    Full point group: C1

    Geometry (in Angstrom), charge = 0, multiplicity = 1:

    H           -1.735291031057     0.446208871729     0.652678445047
    H           -1.487591449582     2.086745601234     0.041925297024
    H           -1.345908853459     0.704197736457    -1.049733295057
    C           -1.155374490416     1.052948890785    -0.038649441429
    H            0.885971858057     1.595514978865    -0.409495203729
    H            0.493621891848     1.336831700119     1.302472218308
    C            0.344992778127     0.962483624732     0.291553601311
    H            1.835518759407    -0.452996409395    -0.389330733819
    H            1.165814356896    -0.817336649498     1.213324373086
    C            0.925586012746    -0.480448755071     0.206758929993
    H            0.440629273986    -2.483657292071    -0.452847530161
    H           -0.284359945798    -1.211873001661    -1.443966141284
    H           -0.951372262074    -1.575503326803     0.148557256956
    C           -0.032649371022    -1.503752288079    -0.427209837720

gradient() will perform analytic gradient computation.
    SCF Algorithm Type (re)set to DF.

*** tstart() called on lski1497
*** at Thu Feb 16 15:16:05 2017


         ---------------------------------------------------------
                                   SCF
            by Justin Turney, Rob Parrish, and Andy Simmonett
                              RHF Reference
                        1 Threads,   1000 MiB Core
         ---------------------------------------------------------

  ==> Geometry <==

    Molecular point group: c1
    Full point group: C1

    Geometry (in Angstrom), charge = 0, multiplicity = 1:

       Center              X                  Y                   Z               Mass       
    ------------   -----------------  -----------------  -----------------  -----------------
           H         -1.735291031057     0.446208871729     0.652678445047     1.007825032070
           H         -1.487591449582     2.086745601234     0.041925297024     1.007825032070
           H         -1.345908853459     0.704197736457    -1.049733295057     1.007825032070
           C         -1.155374490416     1.052948890785    -0.038649441429    12.000000000000
           H          0.885971858057     1.595514978865    -0.409495203729     1.007825032070
           H          0.493621891848     1.336831700119     1.302472218308     1.007825032070
           C          0.344992778127     0.962483624732     0.291553601311    12.000000000000
           H          1.835518759407    -0.452996409395    -0.389330733819     1.007825032070
           H          1.165814356896    -0.817336649498     1.213324373086     1.007825032070
           C          0.925586012746    -0.480448755071     0.206758929993    12.000000000000
           H          0.440629273986    -2.483657292071    -0.452847530161     1.007825032070
           H         -0.284359945798    -1.211873001661    -1.443966141284     1.007825032070
           H         -0.951372262074    -1.575503326803     0.148557256956     1.007825032070
           C         -0.032649371022    -1.503752288079    -0.427209837720    12.000000000000

  Running in c1 symmetry.

  Rotational constants: A =      0.39089  B =      0.18501  C =      0.13888 [cm^-1]
  Rotational constants: A =  11718.63261  B =   5546.50622  C =   4163.64792 [MHz]
  Nuclear repulsion =  133.434549440699641

  Charge       = 0
  Multiplicity = 1
  Electrons    = 34
  Nalpha       = 17
  Nbeta        = 17

  ==> Algorithm <==

  SCF Algorithm Type is DF.
  DIIS enabled.
  MOM disabled.
  Fractional occupation disabled.
  Guess Type is READ.
  Energy threshold   = 1.00e-10
  Density threshold  = 1.00e-10
  Integral threshold = 0.00e+00

  ==> Primary Basis <==

  Basis Set: 6-31G(D)
    Number of shells: 44
    Number of basis function: 80
    Number of Cartesian functions: 80
    Spherical Harmonics?: false
    Max angular momentum: 2

  ==> Pre-Iterations <==

   -------------------------------------------------------
    Irrep   Nso     Nmo     Nalpha   Nbeta   Ndocc  Nsocc
   -------------------------------------------------------
     A         80      80       0       0       0       0
   -------------------------------------------------------
    Total      80      80      17      17      17       0
   -------------------------------------------------------

  ==> Integral Setup <==

  ==> DFJK: Density-Fitted J/K Matrices <==

    J tasked:                  Yes
    K tasked:                  Yes
    wK tasked:                  No
    OpenMP threads:              1
    Integrals threads:           1
    Memory (MB):               715
    Algorithm:                Core
    Integral Cache:           NONE
    Schwarz Cutoff:          1E-12
    Fitting Condition:       1E-12

   => Auxiliary Basis Set <=

  Basis Set: 
    Number of shells: 186
    Number of basis function: 574
    Number of Cartesian functions: 574
    Spherical Harmonics?: false
    Max angular momentum: 3

  Minimum eigenvalue in the overlap matrix is 3.9422478457E-03.
  Using Symmetric Orthogonalization.
  SCF Guess was Projection but file not found.
  Switching over to SAD guess.

  SCF Guess: Superposition of Atomic Densities via on-the-fly atomic UHF.

  ==> Iterations <==

                           Total Energy        Delta E     RMS |[F,P]|

   @DF-RHF iter   0:  -158.69864601753858   -1.58699e+02   4.51014e-02 
   @DF-RHF iter   1:  -157.18065003629710    1.51800e+00   4.42512e-03 
   @DF-RHF iter   2:  -157.27482741409085   -9.41774e-02   1.43806e-03 DIIS
   @DF-RHF iter   3:  -157.28491573250102   -1.00883e-02   5.75437e-04 DIIS
   @DF-RHF iter   4:  -157.28654904630702   -1.63331e-03   8.41354e-05 DIIS
   @DF-RHF iter   5:  -157.28660192994386   -5.28836e-05   1.67178e-05 DIIS
   @DF-RHF iter   6:  -157.28660399542122   -2.06548e-06   4.01045e-06 DIIS
   @DF-RHF iter   7:  -157.28660407677916   -8.13579e-08   1.04479e-06 DIIS
   @DF-RHF iter   8:  -157.28660408382609   -7.04694e-09   2.34165e-07 DIIS
   @DF-RHF iter   9:  -157.28660408426362   -4.37524e-10   6.65542e-08 DIIS
   @DF-RHF iter  10:  -157.28660408429829   -3.46745e-11   1.91056e-08 DIIS
   @DF-RHF iter  11:  -157.28660408430034   -2.04636e-12   4.25244e-09 DIIS
   @DF-RHF iter  12:  -157.28660408430051   -1.70530e-13   9.22577e-10 DIIS
   @DF-RHF iter  13:  -157.28660408430045    5.68434e-14   1.84063e-10 DIIS
   @DF-RHF iter  14:  -157.28660408430056   -1.13687e-13   6.45996e-11 DIIS

  ==> Post-Iterations <==

    Orbital Energies (a.u.)
    -----------------------

    Doubly Occupied:                                                      

       1A    -11.214499     2A    -11.213974     3A    -11.207126  
       4A    -11.207081     5A     -1.065587     6A     -0.970313  
       7A     -0.877987     8A     -0.766415     9A     -0.640140  
      10A     -0.613806    11A     -0.565644    12A     -0.533660  
      13A     -0.523196    14A     -0.518343    15A     -0.455204  
      16A     -0.453951    17A     -0.450831  

    Virtual:                                                              

      18A      0.223451    19A      0.273785    20A      0.277968  
      21A      0.298246    22A      0.303126    23A      0.312202  
      24A      0.348051    25A      0.362981    26A      0.363472  
      27A      0.373169    28A      0.422806    29A      0.425926  
      30A      0.489729    31A      0.706882    32A      0.732972  
      33A      0.734081    34A      0.786922    35A      0.801611  
      36A      0.807606    37A      0.862292    38A      0.915233  
      39A      0.938239    40A      1.008040    41A      1.119393  
      42A      1.133105    43A      1.147317    44A      1.161147  
      45A      1.169968    46A      1.180217    47A      1.192754  
      48A      1.204151    49A      1.215050    50A      1.251860  
      51A      1.255151    52A      1.278636    53A      1.309314  
      54A      1.606726    55A      1.658743    56A      1.704815  
      57A      1.717618    58A      1.935681    59A      2.079272  
      60A      2.120482    61A      2.168302    62A      2.259364  
      63A      2.281055    64A      2.323080    65A      2.363192  
      66A      2.418041    67A      2.530347    68A      2.567668  
      69A      2.637701    70A      2.669585    71A      2.709155  
      72A      2.731968    73A      2.791852    74A      2.894796  
      75A      2.985372    76A      3.085663    77A      4.549808  
      78A      4.711947    79A      4.762439    80A      5.004680  

    Final Occupation by Irrep:
              A 
    DOCC [    17 ]

  Energy converged.

  @DF-RHF Final Energy:  -157.28660408430056

   => Energetics <=

    Nuclear Repulsion Energy =            133.4345494406996409
    One-Electron Energy =                -474.8867921671591148
    Two-Electron Energy =                 184.1656386421587968
    DFT Exchange-Correlation Energy =       0.0000000000000000
    Empirical Dispersion Energy =           0.0000000000000000
    PCM Polarization Energy =               0.0000000000000000
    EFP Energy =                            0.0000000000000000
    Total Energy =                       -157.2866040843006772


  Saving occupied orbitals to File 180.

*** tstop() called on lski1497 at Thu Feb 16 15:16:08 2017
Module time:
	user time   =       2.93 seconds =       0.05 minutes
	system time =       0.11 seconds =       0.00 minutes
	total time  =          3 seconds =       0.05 minutes
Total time:
	user time   =      29.78 seconds =       0.50 minutes
	system time =       1.10 seconds =       0.02 minutes
	total time  =         29 seconds =       0.48 minutes


Properties will be evaluated at   0.000000,   0.000000,   0.000000 Bohr

Properties computed using the SCF density matrix

  Nuclear Dipole Moment: (a.u.)
     X:    -0.9215      Y:    -0.3486      Z:    -0.3623

  Electronic Dipole Moment: (a.u.)
     X:     0.9487      Y:     0.3589      Z:     0.3728

  Dipole Moment: (a.u.)
     X:     0.0272      Y:     0.0102      Z:     0.0106     Total:     0.0310

  Dipole Moment: (Debye)
     X:     0.0692      Y:     0.0260      Z:     0.0269     Total:     0.0787


  //>>>>>>>>>>>>>>>>>>>>>>>>>>>>>>>>>>>//
  //               DFMP2               //
  //<<<<<<<<<<<<<<<<<<<<<<<<<<<<<<<<<<<//


*** tstart() called on lski1497
*** at Thu Feb 16 15:16:08 2017


*** tstop() called on lski1497 at Thu Feb 16 15:16:08 2017
Module time:
	user time   =       0.26 seconds =       0.00 minutes
	system time =       0.00 seconds =       0.00 minutes
	total time  =          0 seconds =       0.00 minutes
Total time:
	user time   =      30.05 seconds =       0.50 minutes
	system time =       1.10 seconds =       0.02 minutes
	total time  =         29 seconds =       0.48 minutes
	 --------------------------------------------------------
	                          DF-MP2                         
	      2nd-Order Density-Fitted Moller-Plesset Theory     
	              RMP2 Wavefunction,   1 Threads             
	                                                         
	        Rob Parrish, Justin Turney, Andy Simmonett,      
	           Ed Hohenstein, and C. David Sherrill          
	 --------------------------------------------------------

   => Auxiliary Basis Set <=

  Basis Set: 
    Number of shells: 132
    Number of basis function: 364
    Number of Cartesian functions: 414
    Spherical Harmonics?: true
    Max angular momentum: 3

	 --------------------------------------------------------
	                 NBF =    80, NAUX =   364
	 --------------------------------------------------------
	   CLASS    FOCC     OCC    AOCC    AVIR     VIR    FVIR
	   PAIRS       0      17      17      63      63       0
	 --------------------------------------------------------

DGAS Warning! /src/lib/libfock/apps.cc:80 is not currently checking restricted

         ------------------------------------------------------------
                                     CPHF                           
                                  Rob Parrish                       
         ------------------------------------------------------------

  ==> Geometry <==

    Molecular point group: c1
    Full point group: C1

    Geometry (in Angstrom), charge = 0, multiplicity = 1:

       Center              X                  Y                   Z               Mass       
    ------------   -----------------  -----------------  -----------------  -----------------
           H         -1.735291031057     0.446208871729     0.652678445047     1.007825032070
           H         -1.487591449582     2.086745601234     0.041925297024     1.007825032070
           H         -1.345908853459     0.704197736457    -1.049733295057     1.007825032070
           C         -1.155374490416     1.052948890785    -0.038649441429    12.000000000000
           H          0.885971858057     1.595514978865    -0.409495203729     1.007825032070
           H          0.493621891848     1.336831700119     1.302472218308     1.007825032070
           C          0.344992778127     0.962483624732     0.291553601311    12.000000000000
           H          1.835518759407    -0.452996409395    -0.389330733819     1.007825032070
           H          1.165814356896    -0.817336649498     1.213324373086     1.007825032070
           C          0.925586012746    -0.480448755071     0.206758929993    12.000000000000
           H          0.440629273986    -2.483657292071    -0.452847530161     1.007825032070
           H         -0.284359945798    -1.211873001661    -1.443966141284     1.007825032070
           H         -0.951372262074    -1.575503326803     0.148557256956     1.007825032070
           C         -0.032649371022    -1.503752288079    -0.427209837720    12.000000000000

  Nuclear repulsion =  133.434549440699641
  Reference energy  = -157.286604084300563

  ==> Basis Set <==

  Basis Set: 6-31G(D)
    Number of shells: 44
    Number of basis function: 80
    Number of Cartesian functions: 80
    Spherical Harmonics?: false
    Max angular momentum: 2

  ==> CGRSolver (by Rob Parrish) <==

[...]
      10        0.015516009826    -0.003198429381     0.004357908763
      11       -0.000159705231     0.003491933151     0.000863316797
      12        0.001078881483     0.001948830618     0.003671863853
      13        0.002645436662     0.002814151457    -0.000381701961
      14       -0.009680036847    -0.006003581632    -0.004035138435


			-----------------------------------------
			 OPTKING 2.0: for geometry optimizations 
			  - R.A. King,  Bethel University        
			-----------------------------------------

	Previous internal coordinate definitions found.
	---Fragment 1 Geometry and Gradient---
	 H          -3.2792248095        0.8432125656        1.2333835140
	 H          -2.8111404373        3.9433776953        0.0792273294
	 H          -2.5433991329        1.3307408653       -1.9837084402
	 C          -2.1833413678        1.9897850355       -0.0730368595
	 H           1.6742441732        3.0150863510       -0.7738337878
	 H           0.9328101888        2.5262457990        2.4613157883
	 C           0.6519418685        1.8188304581        0.5509564595
	 H           3.4686277671       -0.8560391529       -0.7357284620
	 H           2.2030698563       -1.5445424259        2.2928507755
	 C           1.7491040765       -0.9079165680        0.3907177532
	 H           0.8326686540       -4.6934320900       -0.8557578120
	 H          -0.5373624207       -2.2901080810       -2.7287005522
	 H          -1.7978330257       -2.9772698091        0.2807325307
	 C          -0.0616983696       -2.8416799962       -0.8073095946
	             0.0039685216        0.0000075621       -0.0015910523
	             0.0023995604       -0.0024119806        0.0000402068
	             0.0029341862       -0.0005814829        0.0026102307
	            -0.0113540367       -0.0023151839       -0.0044140990
	            -0.0022616642       -0.0052532339       -0.0009548978
	            -0.0035085725       -0.0056173626       -0.0012440594
	             0.0092499965        0.0125087173        0.0054984352
	            -0.0059872567        0.0020117165       -0.0024261591
	            -0.0048413203        0.0025983438       -0.0019948542
	             0.0155160098       -0.0031984294        0.0043579088
	            -0.0001597052        0.0034919332        0.0008633168
	             0.0010788815        0.0019488306        0.0036718639
	             0.0026454367        0.0028141515       -0.0003817020
	            -0.0096800368       -0.0060035816       -0.0040351384

	---Fragment 1 Intrafragment Coordinates---
	 - Coordinate -           - BOHR/RAD -       - ANG/DEG -
	 R(1,4)           =         2.054829	       1.087369
	 R(2,4)           =         2.057630	       1.088851
	 R(3,4)           =         2.052960	       1.086380
	 R(4,7)           =         2.908165	       1.538935
	 R(5,7)           =         2.056988	       1.088511
	 R(6,7)           =         2.056404	       1.088202
	 R(7,10)          =         2.943568	       1.557669
	 R(8,10)          =         2.056291	       1.088143
	 R(9,10)          =         2.056572	       1.088291
	 R(10,14)         =         2.907527	       1.538597
	 R(11,14)         =         2.056994	       1.088514
	 R(12,14)         =         2.054807	       1.087357
	 R(13,14)         =         2.053384	       1.086604
	 B(1,4,2)         =         1.896535	     108.663426
	 B(1,4,3)         =         1.895526	     108.605626
	 B(1,4,7)         =         1.929155	     110.532425
	 B(2,4,3)         =         1.896684	     108.671978
	 B(2,4,7)         =         1.914945	     109.718292
	 B(3,4,7)         =         1.930303	     110.598240
	 B(4,7,5)         =         1.888261	     108.189359
	 B(4,7,6)         =         1.888373	     108.195775
	 B(4,7,10)        =         1.989050	     113.964157
	 B(5,7,6)         =         1.907487	     109.290933
	 B(5,7,10)        =         1.894855	     108.567172
	 B(6,7,10)        =         1.894763	     108.561906
	 B(7,10,8)        =         1.894562	     108.550396
	 B(7,10,9)        =         1.895136	     108.583282
	 B(7,10,14)       =         1.989298	     113.978405
	 B(8,10,9)        =         1.906983	     109.262053
	 B(8,10,14)       =         1.887946	     108.171341
	 B(9,10,14)       =         1.888824	     108.221658
	 B(10,14,11)      =         1.915209	     109.733404
	 B(10,14,12)      =         1.929361	     110.544252
	 B(10,14,13)      =         1.930675	     110.619501
	 B(11,14,12)      =         1.896814	     108.679415
	 B(11,14,13)      =         1.897216	     108.702464
	 B(12,14,13)      =         1.893862	     108.510302
	 D(1,4,7,5)       =        -3.124121	    -178.998969
	 D(1,4,7,6)       =        -1.059441	     -60.701476
	 D(1,4,7,10)      =         1.049793	      60.148719
	 D(2,4,7,5)       =        -1.032913	     -59.181561
	 D(2,4,7,6)       =         1.031768	      59.115932
	 D(2,4,7,10)      =         3.141001	     179.966127
	 D(3,4,7,5)       =         1.059202	      60.687806
	 D(3,4,7,6)       =         3.123883	     178.985300
	 D(3,4,7,10)      =        -1.050069	     -60.164505
	 D(4,7,10,8)      =         2.284349	     130.883563
	 D(4,7,10,9)      =        -1.927462	    -110.435428
	 D(4,7,10,14)     =         0.179209	      10.267922
	 D(5,7,10,8)      =         0.178761	      10.242263
	 D(5,7,10,9)      =         2.250136	     128.923273
	 D(5,7,10,14)     =        -1.926379	    -110.373378
	 D(6,7,10,8)      =        -1.893171	    -108.470727
	 D(6,7,10,9)      =         0.178203	      10.210283
	 D(6,7,10,14)     =         2.284874	     130.913632
	 D(7,10,14,11)    =         3.140588	     179.942420
	 D(7,10,14,12)    =         1.048736	      60.088138
	 D(7,10,14,13)    =        -1.049420	     -60.127341
	 D(8,10,14,11)    =         1.031753	      59.115075
	 D(8,10,14,12)    =        -1.060099	     -60.739206
	 D(8,10,14,13)    =         3.124930	     179.045315
	 D(9,10,14,11)    =        -1.032405	     -59.152437
	 D(9,10,14,12)    =        -3.124257	    -179.006719
	 D(9,10,14,13)    =         1.060773	      60.777802

	Current energy   :      -157.8335212547

	Energy change for the previous step:
		Projected    :        -0.0055900736
		Actual       :        -0.0039036395

	Performing BFGS update.
	Previous computed or guess Hessian on step 1.
	Steps to be used in Hessian update: 2 1
	Adding user-defined constraint: Fragment 1; Coordinate 49:
		Value =     0.179209; Fixed value    =     0.174530
		Force =    -0.002573; Force constant =     0.550000
	Removing off-diagonal coupling between coordinate 49 and others.
	Taking RFO optimization step.
	Going to follow RFO solution 1.
	Using RFO vector 1.

	Determining step-restricting scale parameter for RS-RFO.
	Maximum step size allowed    0.10000

	 Iter      |step|        alpha        rfo_root  
	------------------------------------------------
	    0     0.18674       1.00000           1
	    1     0.14151       7.85986           1
	    2     0.11359      18.33294           1
	    3     0.10226      25.71522           1
	    4     0.10008      27.47469           1
	    5     0.10000      27.54321           1
	------------------------------------------------
	Norm of target step-size    0.10000
	Projected energy change by RFO approximation:        -0.0015766592

	Back-transformation to cartesian coordinates...
	Successfully converged to displaced geometry.

	--- Internal Coordinate Step in ANG or DEG, aJ/ANG or AJ/DEG ---
	 ---------------------------------------------------------------------------
	   Coordinate                Previous        Force       Change         New 
	   ----------                --------       ------       ------       ------
	    1 R(1,4)          =      1.087369     0.025806     0.004355     1.091724
	    2 R(2,4)          =      1.088851     0.024874     0.003185     1.092036
	    3 R(3,4)          =      1.086380     0.022716     0.004321     1.090701
	    4 R(4,7)          =      1.538935    -0.019843    -0.006653     1.532282
	    5 R(5,7)          =      1.088511     0.029364     0.004230     1.092741
	    6 R(6,7)          =      1.088202     0.029390     0.004206     1.092408
	    7 R(7,10)         =      1.557669     0.032365    -0.002378     1.555291
	    8 R(8,10)         =      1.088143     0.029881     0.004267     1.092409
	    9 R(9,10)         =      1.088291     0.030632     0.004395     1.092685
	   10 R(10,14)        =      1.538597    -0.018641    -0.006409     1.532188
	   11 R(11,14)        =      1.088514     0.026638     0.003415     1.091930
	   12 R(12,14)        =      1.087357     0.026035     0.004381     1.091738
	   13 R(13,14)        =      1.086604     0.021625     0.004175     1.090779
	   14 B(1,4,2)        =    108.663426    -0.000190    -0.695445   107.967981
	   15 B(1,4,3)        =    108.605626    -0.000161    -0.547463   108.058163
	   16 B(1,4,7)        =    110.532425     0.000225     0.804588   111.337013
	   17 B(2,4,3)        =    108.671978    -0.000182    -0.619924   108.052055
	   18 B(2,4,7)        =    109.718292     0.000053     0.217505   109.935797
	   19 B(3,4,7)        =    110.598240     0.000239     0.764909   111.363150
	   20 B(4,7,5)        =    108.189359    -0.000274    -0.229491   107.959868
	   21 B(4,7,6)        =    108.195775    -0.000264     0.035216   108.230991
	   22 B(4,7,10)       =    113.964157     0.000969     1.052860   115.017016
	   23 B(5,7,6)        =    109.290933    -0.000066    -1.467069   107.823864
	   24 B(5,7,10)       =    108.567172    -0.000194     0.239439   108.806611
	   25 B(6,7,10)       =    108.561906    -0.000198     0.220765   108.782671
	   26 B(7,10,8)       =    108.550396    -0.000197     0.243589   108.793985
	   27 B(7,10,9)       =    108.583282    -0.000194     0.222339   108.805621
	   28 B(7,10,14)      =    113.978405     0.000967     1.039854   115.018259
	   29 B(8,10,9)       =    109.262053    -0.000065    -1.458836   107.803217
	   30 B(8,10,14)      =    108.171341    -0.000261     0.040975   108.212316
	   31 B(9,10,14)      =    108.221658    -0.000276    -0.235842   107.985817
	   32 B(10,14,11)     =    109.733404     0.000054     0.215316   109.948720
	   33 B(10,14,12)     =    110.544252     0.000220     0.787328   111.331580
	   34 B(10,14,13)     =    110.619501     0.000235     0.748694   111.368196
	   35 B(11,14,12)     =    108.679415    -0.000190    -0.703670   107.975745
	   36 B(11,14,13)     =    108.702464    -0.000183    -0.629285   108.073179
	   37 B(12,14,13)     =    108.510302    -0.000152    -0.493415   108.016886
	   38 D(1,4,7,5)      =   -178.998969     0.000056     1.111039  -177.887930
	   39 D(1,4,7,6)      =    -60.701476    -0.000030    -0.728283   -61.429759
	   40 D(1,4,7,10)     =     60.148719     0.000013     0.278809    60.427528
	   41 D(2,4,7,5)      =    -59.181561     0.000042     0.896078   -58.285484
	   42 D(2,4,7,6)      =     59.115932    -0.000044    -0.943245    58.172688
	   43 D(2,4,7,10)     =    179.966127    -0.000001     0.063847   180.029974
	   44 D(3,4,7,5)      =     60.687806     0.000032     0.750973    61.438780
	   45 D(3,4,7,6)      =    178.985300    -0.000053    -1.088349   177.896951
	   46 D(3,4,7,10)     =    -60.164505    -0.000010    -0.081257   -60.245762
	   47 D(4,7,10,8)     =    130.883563     0.000042     1.010435   131.893997
	   48 D(4,7,10,9)     =   -110.435428    -0.000026    -0.472376  -110.907804
	   49 D(4,7,10,14)    =     10.267922     0.000006     0.082546    10.350468
	   50 D(5,7,10,8)     =     10.242263     0.000009     0.427219    10.669481
	   51 D(5,7,10,9)     =    128.923273    -0.000060    -1.055593   127.867680
	   52 D(5,7,10,14)    =   -110.373378    -0.000027    -0.500670  -110.874048
	   53 D(6,7,10,8)     =   -108.470727     0.000078     1.923106  -106.547621
	   54 D(6,7,10,9)     =     10.210283     0.000009     0.440295    10.650578
	   55 D(6,7,10,14)    =    130.913632     0.000042     0.995218   131.908850
	   56 D(7,10,14,11)   =    179.942420    -0.000001     0.084030   180.026450
	   57 D(7,10,14,12)   =     60.088138     0.000014     0.321169    60.409307
	   58 D(7,10,14,13)   =    -60.127341    -0.000011    -0.083785   -60.211126
	   59 D(8,10,14,11)   =     59.115075    -0.000044    -0.947324    58.167752
	   60 D(8,10,14,12)   =    -60.739206    -0.000029    -0.710185   -61.449392
	   61 D(8,10,14,13)   =    179.045315    -0.000054    -1.115138   177.930176
	   62 D(9,10,14,11)   =    -59.152437     0.000042     0.882413   -58.270024
	   63 D(9,10,14,12)   =   -179.006719     0.000056     1.119551  -177.887167
	   64 D(9,10,14,13)   =     60.777802     0.000031     0.714598    61.492400
	 ---------------------------------------------------------------------------
	 Forces used to impose fixed constraints are not included.
	  Forces zeroed: 49 

  ==> Convergence Check <==

  Measures of convergence in internal coordinates in au.
  Criteria marked as inactive (o), active & met (*), and active & unmet ( ).
  ---------------------------------------------------------------------------------------------
   Step     Total Energy     Delta E     MAX Force     RMS Force      MAX Disp      RMS Disp   
  ---------------------------------------------------------------------------------------------
    Convergence Criteria    1.00e-06 *    3.00e-04 *             o    1.20e-03 *             o
  ---------------------------------------------------------------------------------------------
      3    -157.83352125   -3.90e-03      1.27e-02      3.38e-03 o    3.36e-02      1.25e-02 o  ~
  ---------------------------------------------------------------------------------------------

	Writing optimization data to binary file.
	Structure for next step:
	Cartesian Geometry (in Angstrom)
	    H    -1.7452899729   0.4868038578   0.6887688530
	    H    -1.4745499843   2.1166877711   0.0641595739
	    H    -1.3954791852   0.7286450834  -1.0255400476
	    C    -1.1578016107   1.0749069441  -0.0189415158
	    H     0.8729537708   1.5964517138  -0.4415419899
	    H     0.5278216429   1.3537333333   1.2731544933
	    C     0.3424061031   0.9602421027   0.2710865508
	    H     1.8305608749  -0.4589981296  -0.4204126421
	    H     1.1951486539  -0.8115963731   1.1886758483
	    C     0.9208669496  -0.4808450003   0.1840194253
	    H     0.4596831388  -2.5016467358  -0.4366220272
	    H    -0.3077644275  -1.2654933134  -1.4380957860
	    H    -0.9416450885  -1.6149584011   0.1726211613
	    C    -0.0273233373  -1.5245691715  -0.4152939588
			--------------------------
			 OPTKING Finished Execution 
			--------------------------

    Structure for next step:
    Molecular point group: c1
    Full point group: C1

    Geometry (in Angstrom), charge = 0, multiplicity = 1:

    H           -1.744455915549     0.487087111206     0.690961061290
    H           -1.473715926994     2.116971024487     0.066351782149
    H           -1.394645127841     0.728928336772    -1.023347839256
    C           -1.156967553378     1.075190197452    -0.016749307548
    H            0.873787828127     1.596734967244    -0.439349781626
    H            0.528655700259     1.354016586667     1.275346701601
    C            0.343240160399     0.960525356089     0.273278759097
    H            1.831394932249    -0.458714876174    -0.418220433813
    H            1.195982711194    -0.811313119670     1.190868056616
    C            0.921701006874    -0.480561746948     0.186211633599
    H            0.460517196163    -2.501363482389    -0.434429818890
    H           -0.306930370208    -1.265210059989    -1.435903577684
    H           -0.940811031145    -1.614675147674     0.174813369597
    C           -0.026489280030    -1.524285918149    -0.413101750494

gradient() will perform analytic gradient computation.
    SCF Algorithm Type (re)set to DF.

*** tstart() called on lski1497
*** at Thu Feb 16 15:16:18 2017


         ---------------------------------------------------------
                                   SCF
            by Justin Turney, Rob Parrish, and Andy Simmonett
                              RHF Reference
                        1 Threads,   1000 MiB Core
         ---------------------------------------------------------

  ==> Geometry <==

    Molecular point group: c1
    Full point group: C1

    Geometry (in Angstrom), charge = 0, multiplicity = 1:

       Center              X                  Y                   Z               Mass       
    ------------   -----------------  -----------------  -----------------  -----------------
           H         -1.744455915549     0.487087111206     0.690961061290     1.007825032070
           H         -1.473715926994     2.116971024487     0.066351782149     1.007825032070
           H         -1.394645127841     0.728928336772    -1.023347839256     1.007825032070
           C         -1.156967553378     1.075190197452    -0.016749307548    12.000000000000
           H          0.873787828127     1.596734967244    -0.439349781626     1.007825032070
           H          0.528655700259     1.354016586667     1.275346701601     1.007825032070
           C          0.343240160399     0.960525356089     0.273278759097    12.000000000000
           H          1.831394932249    -0.458714876174    -0.418220433813     1.007825032070
           H          1.195982711194    -0.811313119670     1.190868056616     1.007825032070
           C          0.921701006874    -0.480561746948     0.186211633599    12.000000000000
           H          0.460517196163    -2.501363482389    -0.434429818890     1.007825032070
           H         -0.306930370208    -1.265210059989    -1.435903577684     1.007825032070
           H         -0.940811031145    -1.614675147674     0.174813369597     1.007825032070
           C         -0.026489280030    -1.524285918149    -0.413101750494    12.000000000000

  Running in c1 symmetry.

  Rotational constants: A =      0.39591  B =      0.18095  C =      0.13712 [cm^-1]
  Rotational constants: A =  11869.05101  B =   5424.83706  C =   4110.84545 [MHz]
  Nuclear repulsion =  133.044454060189310

  Charge       = 0
  Multiplicity = 1
  Electrons    = 34
  Nalpha       = 17
  Nbeta        = 17

  ==> Algorithm <==

  SCF Algorithm Type is DF.
  DIIS enabled.
  MOM disabled.
  Fractional occupation disabled.
  Guess Type is READ.
  Energy threshold   = 1.00e-10
  Density threshold  = 1.00e-10
  Integral threshold = 0.00e+00

  ==> Primary Basis <==

  Basis Set: 6-31G(D)
    Number of shells: 44
    Number of basis function: 80
    Number of Cartesian functions: 80
    Spherical Harmonics?: false
    Max angular momentum: 2

  ==> Pre-Iterations <==

   -------------------------------------------------------
    Irrep   Nso     Nmo     Nalpha   Nbeta   Ndocc  Nsocc
   -------------------------------------------------------
     A         80      80       0       0       0       0
   -------------------------------------------------------
    Total      80      80      17      17      17       0
   -------------------------------------------------------

  ==> Integral Setup <==

  ==> DFJK: Density-Fitted J/K Matrices <==

    J tasked:                  Yes
    K tasked:                  Yes
    wK tasked:                  No
    OpenMP threads:              1
    Integrals threads:           1
    Memory (MB):               715
    Algorithm:                Core
    Integral Cache:           NONE
    Schwarz Cutoff:          1E-12
    Fitting Condition:       1E-12

   => Auxiliary Basis Set <=

  Basis Set: 
    Number of shells: 186
    Number of basis function: 574
    Number of Cartesian functions: 574
    Spherical Harmonics?: false
    Max angular momentum: 3

  Minimum eigenvalue in the overlap matrix is 4.0380929372E-03.
  Using Symmetric Orthogonalization.
  SCF Guess was Projection but file not found.
  Switching over to SAD guess.

  SCF Guess: Superposition of Atomic Densities via on-the-fly atomic UHF.

