    -----------------------------------------------------------------------
          Psi4: An Open-Source Ab Initio Electronic Structure Package
                              Psi4 1.0.0 Driver

                          Git: Rev {master} 6a9a71b 

    J. M. Turney, A. C. Simmonett, R. M. Parrish, E. G. Hohenstein,
    F. A. Evangelista, J. T. Fermann, B. J. Mintz, L. A. Burns, J. J. Wilke,
    M. L. Abrams, N. J. Russ, M. L. Leininger, C. L. Janssen, E. T. Seidl,
    W. D. Allen, H. F. Schaefer, R. A. King, E. F. Valeev, C. D. Sherrill,
    and T. D. Crawford, WIREs Comput. Mol. Sci. 2, 556-565 (2012)
    (doi: 10.1002/wcms.93)

                         Additional Contributions by
    A. E. DePrince, U. Bozkaya, A. Yu. Sokolov, D. G. A. Smith, R. Di Remigio,
    R. M. Richard, J. F. Gonthier, H. R. McAlexander, M. Saitow, and
    B. P. Pritchard
    -----------------------------------------------------------------------


    Psi4 started on: Tue Feb 21 18:35:59 2017

    Process ID:  39210
    PSI4DATADIR: /Users/sternc1/anaconda/share/psi4
    Memory level set to 256.000 MB

  ==> Input File <==

--------------------------------------------------------------------------

memory 1000 mb

molecule butane {
  symmetry C1
  0 1 
  H      1.604   0.760   -8.260
  H      1.745   2.388   -8.880
  H      2.043   1.024   -9.930
  C      2.142   1.395   -8.932
  H      4.169   2.051   -9.210
  H      3.731   1.788   -7.539
  C      3.631   1.416   -8.537
  H      4.105   -0.383   -9.610
  H      5.237   0.003   -8.338
  C      4.203   -0.012   -8.612
  H      3.827   -1.919   -7.698
  H      2.395   -0.942   -7.919
  H      3.528   -0.556   -6.646
  C      3.429   -0.927   -7.645
  units Angstrom
}

dih_string = "4 7 10 14 300"
set optking fixed_dihedral = $dih_string

optimize('B3LYP/cc-PVDZ')
--------------------------------------------------------------------------

  Memory set to 1000.000 MiB by Python script.
gradient() will perform analytic gradient computation.

*** tstart() called on lski1497
*** at Tue Feb 21 18:36:01 2017


         ---------------------------------------------------------
                                   SCF
            by Justin Turney, Rob Parrish, and Andy Simmonett
                              RKS Reference
                        1 Threads,   1000 MiB Core
         ---------------------------------------------------------

  ==> Geometry <==

    Molecular point group: c1
    Full point group: C1

    Geometry (in Angstrom), charge = 0, multiplicity = 1:

       Center              X                  Y                   Z               Mass       
    ------------   -----------------  -----------------  -----------------  -----------------
           H         -1.727667272517     0.300086443072     0.166554428593     1.007825032070
           H         -1.586667272517     1.928086443072    -0.453445571407     1.007825032070
           H         -1.288667272517     0.564086443072    -1.503445571407     1.007825032070
           C         -1.189667272517     0.935086443072    -0.505445571407    12.000000000000
           H          0.837332727483     1.591086443072    -0.783445571407     1.007825032070
           H          0.399332727483     1.328086443072     0.887554428593     1.007825032070
           C          0.299332727483     0.956086443072    -0.110445571407    12.000000000000
           H          0.773332727483    -0.842913556928    -1.183445571407     1.007825032070
           H          1.905332727483    -0.456913556928     0.088554428593     1.007825032070
           C          0.871332727483    -0.471913556928    -0.185445571407    12.000000000000
           H          0.495332727483    -2.378913556928     0.728554428593     1.007825032070
           H         -0.936667272517    -1.401913556928     0.507554428593     1.007825032070
           H          0.196332727483    -1.015913556928     1.780554428593     1.007825032070
           C          0.097332727483    -1.386913556928     0.781554428593    12.000000000000

  Running in c1 symmetry.

  Rotational constants: A =      0.41855  B =      0.17558  C =      0.14457 [cm^-1]
  Rotational constants: A =  12547.80849  B =   5263.80251  C =   4334.13135 [MHz]
  Nuclear repulsion =  134.726867068292563

  Charge       = 0
  Multiplicity = 1
  Electrons    = 34
  Nalpha       = 17
  Nbeta        = 17

  ==> Algorithm <==

  SCF Algorithm Type is DF.
  DIIS enabled.
  MOM disabled.
  Fractional occupation disabled.
  Guess Type is SAD.
  Energy threshold   = 1.00e-08
  Density threshold  = 1.00e-08
  Integral threshold = 0.00e+00

  ==> Primary Basis <==

  Basis Set: CC-PVDZ
    Number of shells: 54
    Number of basis function: 106
    Number of Cartesian functions: 110
    Spherical Harmonics?: true
    Max angular momentum: 2

  ==> DFT Potential <==

   => B3LYP Composite Functional <= 

    B3LYP Hybrid-GGA Exchange-Correlation Functional (VWN1-RPA)

    P.J. Stephens et. al., J. Phys. Chem., 98, 11623-11627, 1994

    Points   =           5000
    Deriv    =              1
    GGA      =           TRUE
    Meta     =          FALSE

    X_LRC        =          FALSE
    X_Hybrid     =           TRUE
    X_Alpha      =   2.000000E-01
    X_Omega      =   0.000000E+00
    C_LRC        =          FALSE
    C_Hybrid     =          FALSE
    C_Alpha      =   0.000000E+00
    C_Omega      =   0.000000E+00

   => Exchange Functionals <=

    0.8000    B3_X
    0.2000      HF 

   => Correlation Functionals <=

    0.1900 VWN3RPA_C
    0.8100   LYP_C

   => Molecular Quadrature <=

    Radial Scheme    =       TREUTLER
    Pruning Scheme   =           FLAT
    Nuclear Scheme   =       TREUTLER

    BS radius alpha  =              1
    Pruning alpha    =              1
    Radial Points    =             75
    Spherical Points =            302
    Total Points     =         312722
    Total Blocks     =            270
    Max Points       =           4942
    Max Functions    =            106

  ==> Pre-Iterations <==

   -------------------------------------------------------
    Irrep   Nso     Nmo     Nalpha   Nbeta   Ndocc  Nsocc
   -------------------------------------------------------
     A        106     106       0       0       0       0
   -------------------------------------------------------
    Total     106     106      17      17      17       0
   -------------------------------------------------------

  ==> Integral Setup <==

  ==> DFJK: Density-Fitted J/K Matrices <==

    J tasked:                  Yes
    K tasked:                  Yes
    wK tasked:                  No
    OpenMP threads:              1
    Integrals threads:           1
    Memory (MB):               715
    Algorithm:                Core
    Integral Cache:           NONE
    Schwarz Cutoff:          1E-12
    Fitting Condition:       1E-12

   => Auxiliary Basis Set <=

  Basis Set: 
    Number of shells: 186
    Number of basis function: 510
    Number of Cartesian functions: 574
    Spherical Harmonics?: true
    Max angular momentum: 3

  Minimum eigenvalue in the overlap matrix is 4.8395299987E-03.
  Using Symmetric Orthogonalization.
  SCF Guess: Superposition of Atomic Densities via on-the-fly atomic UHF.

  ==> Iterations <==

                           Total Energy        Delta E     RMS |[F,P]|

   @DF-RKS iter   0:  -159.02256322393839   -1.59023e+02   3.36350e-02 
   @DF-RKS iter   1:  -158.26743584517732    7.55127e-01   5.29249e-03 
   @DF-RKS iter   2:  -158.19754957085533    6.98863e-02   6.35332e-03 DIIS
   @DF-RKS iter   3:  -158.44506036586151   -2.47511e-01   3.92858e-04 DIIS
   @DF-RKS iter   4:  -158.44592811982926   -8.67754e-04   1.18782e-04 DIIS
   @DF-RKS iter   5:  -158.44599713174000   -6.90119e-05   4.76020e-05 DIIS
   @DF-RKS iter   6:  -158.44600938719609   -1.22555e-05   7.21893e-06 DIIS
   @DF-RKS iter   7:  -158.44600971031460   -3.23119e-07   1.05462e-06 DIIS
   @DF-RKS iter   8:  -158.44600971786750   -7.55290e-09   1.35140e-07 DIIS
   @DF-RKS iter   9:  -158.44600971795870   -9.12053e-11   7.29467e-08 DIIS
   @DF-RKS iter  10:  -158.44600971798778   -2.90754e-11   1.55110e-08 DIIS
   @DF-RKS iter  11:  -158.44600971798931   -1.53477e-12   1.67353e-09 DIIS

  ==> Post-Iterations <==

    Orbital Energies (a.u.)
    -----------------------

    Doubly Occupied:                                                      

       1A    -10.170329     2A    -10.170107     3A    -10.163473  
       4A    -10.163457     5A     -0.797108     6A     -0.717274  
       7A     -0.643203     8A     -0.569193     9A     -0.460959  
      10A     -0.459743    11A     -0.418052    12A     -0.384775  
      13A     -0.378134    14A     -0.358429    15A     -0.330669  
      16A     -0.318882    17A     -0.317350  

    Virtual:                                                              

      18A      0.064656    19A      0.098437    20A      0.101155  
      21A      0.108753    22A      0.136576    23A      0.144652  
      24A      0.158613    25A      0.165641    26A      0.166516  
      27A      0.189683    28A      0.226318    29A      0.234284  
      30A      0.256164    31A      0.412871    32A      0.421905  
      33A      0.433650    34A      0.434190    35A      0.446851  
      36A      0.469248    37A      0.529006    38A      0.594533  
      39A      0.602310    40A      0.623210    41A      0.637129  
      42A      0.651561    43A      0.664344    44A      0.682615  
      45A      0.684477    46A      0.690061    47A      0.691907  
      48A      0.713318    49A      0.723525    50A      0.739645  
      51A      0.770998    52A      0.823315    53A      0.896667  
      54A      0.920778    55A      0.966424    56A      1.098874  
      57A      1.128780    58A      1.183830    59A      1.225533  
      60A      1.290939    61A      1.339081    62A      1.390501  
      63A      1.406676    64A      1.457037    65A      1.468229  
      66A      1.497732    67A      1.577628    68A      1.594988  
      69A      1.611397    70A      1.646744    71A      1.647625  
      72A      1.662320    73A      1.674984    74A      1.690179  
      75A      1.706103    76A      1.717364    77A      1.719636  
      78A      1.722711    79A      1.744450    80A      1.766102  
      81A      1.818848    82A      1.823353    83A      1.899447  
      84A      1.902205    85A      1.997750    86A      2.003355  
      87A      2.035539    88A      2.054396    89A      2.120437  
      90A      2.146162    91A      2.234981    92A      2.284310  
      93A      2.291983    94A      2.322698    95A      2.354056  
      96A      2.365013    97A      2.501451    98A      2.503219  
      99A      2.511855   100A      2.539450   101A      2.544477  
     102A      2.581827   103A      2.658048   104A      2.683091  
     105A      2.739364   106A      2.779156  

    Final Occupation by Irrep:
              A 
    DOCC [    17 ]

  Energy converged.

  @DF-RKS Final Energy:  -158.44600971798931

   => Energetics <=

    Nuclear Repulsion Energy =            134.7268670682925631
    One-Electron Energy =                -477.8359503058200062
    Two-Electron Energy =                 205.3469152418325052
    DFT Exchange-Correlation Energy =     -20.6838417222943711
    Empirical Dispersion Energy =           0.0000000000000000
    PCM Polarization Energy =               0.0000000000000000
    EFP Energy =                            0.0000000000000000
    Total Energy =                       -158.4460097179893125


  Saving occupied orbitals to File 180.

*** tstop() called on lski1497 at Tue Feb 21 18:38:22 2017
Module time:
	user time   =     122.11 seconds =       2.04 minutes
	system time =       1.67 seconds =       0.03 minutes
	total time  =        141 seconds =       2.35 minutes
Total time:
	user time   =     122.11 seconds =       2.04 minutes
	system time =       1.67 seconds =       0.03 minutes
	total time  =        141 seconds =       2.35 minutes


Properties will be evaluated at   0.000000,   0.000000,   0.000000 Bohr

Properties computed using the SCF density matrix

  Nuclear Dipole Moment: (a.u.)
     X:    -0.8744      Y:    -0.3611      Z:     0.2208

  Electronic Dipole Moment: (a.u.)
     X:     0.8962      Y:     0.3697      Z:    -0.2268

  Dipole Moment: (a.u.)
     X:     0.0218      Y:     0.0086      Z:    -0.0060     Total:     0.0242

  Dipole Moment: (Debye)
     X:     0.0555      Y:     0.0219      Z:    -0.0152     Total:     0.0616


*** tstart() called on lski1497
*** at Tue Feb 21 18:38:22 2017


         ------------------------------------------------------------
                                   SCF GRAD                          
                          Rob Parrish, Justin Turney,                
                       Andy Simmonett, and Alex Sokolov              
         ------------------------------------------------------------

  ==> Geometry <==

    Molecular point group: c1
    Full point group: C1

    Geometry (in Angstrom), charge = 0, multiplicity = 1:

       Center              X                  Y                   Z               Mass       
    ------------   -----------------  -----------------  -----------------  -----------------
           H         -1.727667272517     0.300086443072     0.166554428593     1.007825032070
           H         -1.586667272517     1.928086443072    -0.453445571407     1.007825032070
           H         -1.288667272517     0.564086443072    -1.503445571407     1.007825032070
           C         -1.189667272517     0.935086443072    -0.505445571407    12.000000000000
           H          0.837332727483     1.591086443072    -0.783445571407     1.007825032070
           H          0.399332727483     1.328086443072     0.887554428593     1.007825032070
           C          0.299332727483     0.956086443072    -0.110445571407    12.000000000000
           H          0.773332727483    -0.842913556928    -1.183445571407     1.007825032070
           H          1.905332727483    -0.456913556928     0.088554428593     1.007825032070
           C          0.871332727483    -0.471913556928    -0.185445571407    12.000000000000
           H          0.495332727483    -2.378913556928     0.728554428593     1.007825032070
           H         -0.936667272517    -1.401913556928     0.507554428593     1.007825032070
           H          0.196332727483    -1.015913556928     1.780554428593     1.007825032070
           C          0.097332727483    -1.386913556928     0.781554428593    12.000000000000

  Nuclear repulsion =  134.726867068292563

  ==> Basis Set <==

  Basis Set: CC-PVDZ
    Number of shells: 54
    Number of basis function: 106
    Number of Cartesian functions: 110
    Spherical Harmonics?: true
    Max angular momentum: 2

  ==> DFJKGrad: Density-Fitted SCF Gradients <==

    Gradient:                    1
    J tasked:                  Yes
    K tasked:                  Yes
    wK tasked:                  No
    OpenMP threads:              1
    Integrals threads:           1
    Memory (MB):               715
    Schwarz Cutoff:          0E+00
    Fitting Condition:       1E-12

   => Auxiliary Basis Set <=

  Basis Set: 
    Number of shells: 186
    Number of basis function: 510
    Number of Cartesian functions: 574
    Spherical Harmonics?: true
    Max angular momentum: 3

  ==> DFT Potential <==

   => B3LYP Composite Functional <= 

    B3LYP Hybrid-GGA Exchange-Correlation Functional (VWN1-RPA)

    P.J. Stephens et. al., J. Phys. Chem., 98, 11623-11627, 1994

    Points   =           5000
    Deriv    =              1
    GGA      =           TRUE
    Meta     =          FALSE

    X_LRC        =          FALSE
    X_Hybrid     =           TRUE
    X_Alpha      =   2.000000E-01
    X_Omega      =   0.000000E+00
    C_LRC        =          FALSE
    C_Hybrid     =          FALSE
    C_Alpha      =   0.000000E+00
    C_Omega      =   0.000000E+00

   => Exchange Functionals <=

    0.8000    B3_X
    0.2000      HF 

   => Correlation Functionals <=

    0.1900 VWN3RPA_C
    0.8100   LYP_C

   => Molecular Quadrature <=

    Radial Scheme    =       TREUTLER
    Pruning Scheme   =           FLAT
    Nuclear Scheme   =       TREUTLER

    BS radius alpha  =              1
    Pruning alpha    =              1
    Radial Points    =             75
    Spherical Points =            302
    Total Points     =         312722
    Total Blocks     =            270
    Max Points       =           4942
    Max Functions    =            106


  -Total Gradient:
     Atom            X                  Y                   Z
    ------   -----------------  -----------------  -----------------
       1        0.015050178827     0.008747209809    -0.010545443620
       2        0.012004523460    -0.018800213320     0.000380933852
       3        0.005317285655     0.007857127286     0.021641189513
       4       -0.028007061385    -0.009639280599    -0.009691101025
       5       -0.012096763070    -0.015944455018     0.011758673203
       6       -0.004242981755    -0.010184944253    -0.021247871067
       7        0.017534038151     0.029135191681     0.015662455206
       8       -0.000665329432     0.008232106400     0.022926861121
       9       -0.023355644217     0.001358964609    -0.003055017624
      10        0.024292744387    -0.012240615780    -0.026181215804
      11       -0.005414243063     0.021952597523    -0.002122608904
      12        0.019423226392     0.005550022725     0.001795679350
      13       -0.000268017401    -0.005503856176    -0.022262987223
      14       -0.019595613984    -0.010529127373     0.020946191663


*** tstop() called on lski1497 at Tue Feb 21 18:39:10 2017
Module time:
	user time   =      41.66 seconds =       0.69 minutes
	system time =       0.67 seconds =       0.01 minutes
	total time  =         48 seconds =       0.80 minutes
Total time:
	user time   =     163.79 seconds =       2.73 minutes
	system time =       2.34 seconds =       0.04 minutes
	total time  =        189 seconds =       3.15 minutes

			-----------------------------------------
			 OPTKING 2.0: for geometry optimizations 
			  - R.A. King,  Bethel University        
			-----------------------------------------

	Internal coordinates to be generated automatically.
	Detected frag 1 with atoms:  1 2 3 4 5 6 7 8 9 10 11 12 13 14
	---Fragment 1 Bond Connectivity---
	 1 : 4
	 2 : 4
	 3 : 4
	 4 : 1 2 3 7
	 5 : 7
	 6 : 7
	 7 : 4 5 6 10
	 8 : 10
	 9 : 10
	 10 : 7 8 9 14
	 11 : 14
	 12 : 14
	 13 : 14
	 14 : 10 11 12 13

	Assuming in current code that numbering for constraints corresponds to unified fragment.
	Fixed dihedral atom list: 
	     4     7    10    14
	---Fragment 1 Geometry and Gradient---
	 H          -3.2648179938        0.5670811936        0.3147422563
	 H          -2.9983666091        3.6435553379       -0.8568879461
	 H          -2.4352282215        1.0659688927       -2.8411003857
	 C          -2.2481453343        1.7670572880       -0.9551537050
	 H           1.5823295370        3.0067176312       -1.4804975700
	 H           0.7546294908        2.5097196582        1.6772347981
	 C           0.5656568776        1.8067415368       -0.2087118825
	 H           1.4613870645       -1.5928757763       -2.2363880231
	 H           3.6005570470       -0.8634414890        0.1673436179
	 C           1.6465802256       -0.8917873810       -0.3504413425
	 H           0.9360431996       -4.4954951164        1.3767683429
	 H          -1.7700446227       -2.6492326846        0.9591388676
	 H           0.3710150859       -1.9197983973        3.3647602347
	 C           0.1839321987       -2.6208867926        1.4769238280
	             0.0150501788        0.0087472098       -0.0105454436
	             0.0120045235       -0.0188002133        0.0003809339
	             0.0053172857        0.0078571273        0.0216411895
	            -0.0280070614       -0.0096392806       -0.0096911010
	            -0.0120967631       -0.0159444550        0.0117586732
	            -0.0042429818       -0.0101849443       -0.0212478711
	             0.0175340382        0.0291351917        0.0156624552
	            -0.0006653294        0.0082321064        0.0229268611
	            -0.0233556442        0.0013589646       -0.0030550176
	             0.0242927444       -0.0122406158       -0.0261812158
	            -0.0054142431        0.0219525975       -0.0021226089
	             0.0194232264        0.0055500227        0.0017956794
	            -0.0002680174       -0.0055038562       -0.0222629872
	            -0.0195956140       -0.0105291274        0.0209461917

	Previous optimization step data not found.  Starting new optimization.

	---Fragment 1 Intrafragment Coordinates---
	 - Coordinate -           - BOHR/RAD -       - ANG/DEG -
	 R(1,4)           =         2.021436	       1.069698
	 R(2,4)           =         2.023298	       1.070683
	 R(3,4)           =         2.020723	       1.069320
	 R(4,7)           =         2.911397	       1.540645
	 R(5,7)           =         2.022623	       1.070326
	 R(6,7)           =         2.021555	       1.069761
	 R(7,10)          =         2.910419	       1.540128
	 R(8,10)          =         2.020549	       1.069228
	 R(9,10)          =         2.021616	       1.069793
	 R(10,14)         =         2.910049	       1.539932
	 R(11,14)         =         2.022340	       1.070176
	 R(12,14)         =         2.021616	       1.069793
	 R(13,14)         =         2.022486	       1.070254
	 B(1,4,2)         =         1.910870	     109.484805
	 B(1,4,3)         =         1.911121	     109.499161
	 B(1,4,7)         =         1.910399	     109.457783
	 B(2,4,3)         =         1.910042	     109.437340
	 B(2,4,7)         =         1.910564	     109.467262
	 B(3,4,7)         =         1.910803	     109.480971
	 B(4,7,5)         =         1.909937	     109.431343
	 B(4,7,6)         =         1.911630	     109.528316
	 B(4,7,10)        =         1.911154	     109.501062
	 B(5,7,6)         =         1.910605	     109.469614
	 B(5,7,10)        =         1.910047	     109.437654
	 B(6,7,10)        =         1.910425	     109.459295
	 B(7,10,8)        =         1.910418	     109.458897
	 B(7,10,9)        =         1.910808	     109.481258
	 B(7,10,14)       =         1.910992	     109.491802
	 B(8,10,9)        =         1.909766	     109.421538
	 B(8,10,14)       =         1.911215	     109.504546
	 B(9,10,14)       =         1.910599	     109.469263
	 B(10,14,11)      =         1.910018	     109.435980
	 B(10,14,12)      =         1.910599	     109.469263
	 B(10,14,13)      =         1.911000	     109.492218
	 B(11,14,12)      =         1.911104	     109.498172
	 B(11,14,13)      =         1.910439	     109.460096
	 B(12,14,13)      =         1.910640	     109.471594
	 D(1,4,7,5)       =         3.140997	     179.965873
	 D(1,4,7,6)       =        -1.047644	     -60.025575
	 D(1,4,7,10)      =         1.047427	      60.013132
	 D(2,4,7,5)       =        -1.047689	     -60.028143
	 D(2,4,7,6)       =         1.046856	      59.980409
	 D(2,4,7,10)      =        -3.141259	    -179.980883
	 D(3,4,7,5)       =         1.046044	      59.933911
	 D(3,4,7,6)       =         3.140588	     179.942463
	 D(3,4,7,10)      =        -1.047526	     -60.018830
	 D(4,7,10,8)      =         1.047939	      60.042468
	 D(4,7,10,9)      =         3.141248	     179.980229
	 D(4,7,10,14)     =        -1.047257	     -60.003409
	 D(5,7,10,8)      =        -1.045564	     -59.906408
	 D(5,7,10,9)      =         1.047745	      60.031353
	 D(5,7,10,14)     =        -3.140760	    -179.952285
	 D(6,7,10,8)      =        -3.139439	    -179.876606
	 D(6,7,10,9)      =        -1.046130	     -59.938846
	 D(6,7,10,14)     =         1.048550	      60.077516
	 D(7,10,14,11)    =         3.141358	     179.986527
	 D(7,10,14,12)    =         1.046784	      59.976297
	 D(7,10,14,13)    =        -1.047823	     -60.035823
	 D(8,10,14,11)    =         1.046649	      59.968584
	 D(8,10,14,12)    =        -1.047924	     -60.041646
	 D(8,10,14,13)    =         3.140654	     179.946234
	 D(9,10,14,11)    =        -1.047019	     -59.989770
	 D(9,10,14,12)    =         3.141593	     180.000000
	 D(9,10,14,13)    =         1.046986	      59.987880

	Current energy   :      -158.4460097180

	Generating empirical Hessian (Schlegel '84) for each fragment.
	Adding user-defined constraint: Fragment 1; Coordinate 49:
		Value =    -1.047257; Fixed value    =    -1.047198
		Force =     0.000030; Force constant =     0.500000
	Removing off-diagonal coupling between coordinate 49 and others.
	Taking RFO optimization step.
	Going to follow RFO solution 1.
	Using RFO vector 1.

	Determining step-restricting scale parameter for RS-RFO.
	Maximum step size allowed    0.10000

	 Iter      |step|        alpha        rfo_root  
	------------------------------------------------
	    0     0.32008       1.00000           1
	    1     0.23158       4.76135           1
	    2     0.16514      15.81489           1
	    3     0.12528      35.34532           1
	    4     0.10615      54.81664           1
	    5     0.10053      62.99672           1
	    6     0.10000      63.83014           1
	------------------------------------------------
	Norm of target step-size    0.10000
	Projected energy change by RFO approximation:        -0.0081741141

	Back-transformation to cartesian coordinates...
	Could not converge backtransformation.
	Using first guess instead.

	--- Internal Coordinate Step in ANG or DEG, aJ/ANG or AJ/DEG ---
	 ---------------------------------------------------------------------------
	   Coordinate                Previous        Force       Change         New 
	   ----------                --------       ------       ------       ------
	    1 R(1,4)          =      1.069698     0.159735     0.011894     1.081591
	    2 R(2,4)          =      1.070683     0.180172     0.013069     1.083752
	    3 R(3,4)          =      1.069320     0.192919     0.013719     1.083039
	    4 R(4,7)          =      1.540645     0.037249     0.003418     1.544063
	    5 R(5,7)          =      1.070326     0.188931     0.013516     1.083842
	    6 R(6,7)          =      1.069761     0.195759     0.013889     1.083650
	    7 R(7,10)         =      1.540128     0.081266     0.006530     1.546657
	    8 R(8,10)         =      1.069228     0.199335     0.014131     1.083360
	    9 R(9,10)         =      1.069793     0.192260     0.013743     1.083536
	   10 R(10,14)        =      1.539932     0.040457     0.003672     1.543603
	   11 R(11,14)        =      1.070176     0.183372     0.013285     1.083461
	   12 R(12,14)        =      1.069793     0.159112     0.011854     1.081647
	   13 R(13,14)        =      1.070254     0.187130     0.013326     1.083580
	   14 B(1,4,2)        =    109.484805    -0.000435    -0.465506   109.019298
	   15 B(1,4,3)        =    109.499161    -0.000305    -0.345514   109.153648
	   16 B(1,4,7)        =    109.457783     0.000527     0.573837   110.031620
	   17 B(2,4,3)        =    109.437340    -0.000291    -0.308356   109.128984
	   18 B(2,4,7)        =    109.467262     0.000316     0.350450   109.817712
	   19 B(3,4,7)        =    109.480971     0.000189     0.187590   109.668562
	   20 B(4,7,5)        =    109.431343    -0.000570    -0.544296   108.887046
	   21 B(4,7,6)        =    109.528316    -0.000415    -0.418410   109.109907
	   22 B(4,7,10)       =    109.501062     0.001813     1.835654   111.336717
	   23 B(5,7,6)        =    109.469614     0.000153     0.062962   109.532575
	   24 B(5,7,10)       =    109.437654    -0.000494    -0.476154   108.961500
	   25 B(6,7,10)       =    109.459295    -0.000488    -0.466234   108.993061
	   26 B(7,10,8)       =    109.458897    -0.000491    -0.469496   108.989401
	   27 B(7,10,9)       =    109.481258    -0.000502    -0.483932   108.997325
	   28 B(7,10,14)      =    109.491802     0.001822     1.844370   111.336172
	   29 B(8,10,9)       =    109.421538     0.000158     0.068241   109.489780
	   30 B(8,10,14)      =    109.504546    -0.000415    -0.417579   109.086967
	   31 B(9,10,14)      =    109.469263    -0.000574    -0.549105   108.920157
	   32 B(10,14,11)     =    109.435980     0.000326     0.361662   109.797641
	   33 B(10,14,12)     =    109.469263     0.000525     0.571852   110.041115
	   34 B(10,14,13)     =    109.492218     0.000189     0.187704   109.679922
	   35 B(11,14,12)     =    109.498172    -0.000439    -0.469296   109.028876
	   36 B(11,14,13)     =    109.460096    -0.000297    -0.314509   109.145588
	   37 B(12,14,13)     =    109.471594    -0.000305    -0.344904   109.126690
	   38 D(1,4,7,5)      =    179.965873     0.000058     0.302104   180.267977
	   39 D(1,4,7,6)      =    -60.025575    -0.000037    -0.200432   -60.226007
	   40 D(1,4,7,10)     =     60.013132     0.000023     0.100225    60.113357
	   41 D(2,4,7,5)      =    -60.028143     0.000055     0.302541   -59.725601
	   42 D(2,4,7,6)      =     59.980409    -0.000041    -0.199995    59.780415
	   43 D(2,4,7,10)     =   -179.980883     0.000019     0.100662  -179.880221
	   44 D(3,4,7,5)      =     59.933911     0.000044     0.255560    60.189471
	   45 D(3,4,7,6)      =    179.942463    -0.000052    -0.246976   179.695487
	   46 D(3,4,7,10)     =    -60.018830     0.000008     0.053681   -59.965149
	   47 D(4,7,10,8)     =     60.042468     0.000030     0.189231    60.231699
	   48 D(4,7,10,9)     =    179.980229    -0.000065    -0.300233   179.679995
	   49 D(4,7,10,14)    =    -60.003409    -0.000041    -0.141832   -60.145241
	   50 D(5,7,10,8)     =    -59.906408     0.000005     0.027465   -59.878943
	   51 D(5,7,10,9)     =     60.031353    -0.000090    -0.462000    59.569353
	   52 D(5,7,10,14)    =   -179.952285    -0.000066    -0.303599  -180.255884
	   53 D(6,7,10,8)     =   -179.876606     0.000099     0.516518  -179.360088
	   54 D(6,7,10,9)     =    -59.938846     0.000005     0.027053   -59.911792
	   55 D(6,7,10,14)    =     60.077516     0.000029     0.185454    60.262971
	   56 D(7,10,14,11)   =    179.986527     0.000020     0.103319   180.089846
	   57 D(7,10,14,12)   =     59.976297     0.000023     0.101977    60.078274
	   58 D(7,10,14,13)   =    -60.035823     0.000009     0.055790   -59.980033
	   59 D(8,10,14,11)   =     59.968584    -0.000040    -0.198175    59.770409
	   60 D(8,10,14,12)   =    -60.041646    -0.000037    -0.199517   -60.241163
	   61 D(8,10,14,13)   =    179.946234    -0.000052    -0.245704   179.700530
	   62 D(9,10,14,11)   =    -59.989770     0.000054     0.299931   -59.689839
	   63 D(9,10,14,12)   =    180.000000     0.000058     0.298589   180.298589
	   64 D(9,10,14,13)   =     59.987880     0.000043     0.252401    60.240282
	 ---------------------------------------------------------------------------
	 Forces used to impose fixed constraints are not included.
	  Forces zeroed: 49 

  ==> Convergence Check <==

  Measures of convergence in internal coordinates in au.
  Criteria marked as inactive (o), active & met (*), and active & unmet ( ).
  --------------------------------------------------------------------------------------------- ~
   Step     Total Energy     Delta E     MAX Force     RMS Force      MAX Disp      RMS Disp    ~
  --------------------------------------------------------------------------------------------- ~
    Convergence Criteria    1.00e-06 *    3.00e-04 *             o    1.20e-03 *             o  ~
  --------------------------------------------------------------------------------------------- ~
      1    -158.44600972   -1.58e+02      2.42e-02      1.05e-02 o    3.22e-02      1.26e-02 o  ~
  ---------------------------------------------------------------------------------------------

	Writing optimization data to binary file.
	Structure for next step:
	Cartesian Geometry (in Angstrom)
	    H    -1.7756205081   0.3535049359   0.1589726725
	    H    -1.5834406636   1.9876840081  -0.4741757458
	    H    -1.3159981838   0.5957828063  -1.5267156392
	    C    -1.2036799666   0.9735913574  -0.5179445846
	    H     0.8421329147   1.5853504049  -0.8055091100
	    H     0.3904398746   1.3400182349   0.8886489280
	    C     0.2879243829   0.9555260557  -0.1192963958
	    H     0.7751759778  -0.8575467686  -1.1830719603
	    H     1.9136086138  -0.4455577718   0.1073715693
	    C     0.8674001838  -0.4774767179  -0.1727701753
	    H     0.5456848627  -2.4166176496   0.7359298816
	    H    -0.9275399887  -1.4715080574   0.5251634284
	    H     0.2100915863  -1.0534473565   1.8070328220
	    C     0.1194790988  -1.4220932783   0.7921263095
			--------------------------
			 OPTKING Finished Execution 
			--------------------------

    Structure for next step:
    Molecular point group: c1
    Full point group: C1

    Geometry (in Angstrom), charge = 0, multiplicity = 1:

    H           -1.774256435897     0.354034566340     0.158613553793
    H           -1.582076591433     1.988213638582    -0.474534864460
    H           -1.314634111631     0.596312436826    -1.527074757921
    C           -1.202315894416     0.974120987864    -0.518303703316
    H            0.843496986864     1.585880035378    -0.805868228705
    H            0.391803946796     1.340547865359     0.888289809321
    C            0.289288455073     0.956055686220    -0.119655514483
    H            0.776540050003    -0.857017138133    -1.183431078974
    H            1.914972685926    -0.445028141347     0.107012450631
    C            0.868764255950    -0.476947087406    -0.173129294019
    H            0.547048934806    -2.416088019091     0.735570762857
    H           -0.926175916542    -1.470978426924     0.524804309675
    H            0.211455658427    -1.052917725990     1.806673703279
    C            0.120843170971    -1.421563647828     0.791767190784

gradient() will perform analytic gradient computation.

*** tstart() called on lski1497
*** at Tue Feb 21 18:39:11 2017


         ---------------------------------------------------------
                                   SCF
            by Justin Turney, Rob Parrish, and Andy Simmonett
                              RKS Reference
                        1 Threads,   1000 MiB Core
         ---------------------------------------------------------

  ==> Geometry <==

    Molecular point group: c1
    Full point group: C1

    Geometry (in Angstrom), charge = 0, multiplicity = 1:

       Center              X                  Y                   Z               Mass       
    ------------   -----------------  -----------------  -----------------  -----------------
           H         -1.774256435897     0.354034566340     0.158613553793     1.007825032070
           H         -1.582076591433     1.988213638582    -0.474534864460     1.007825032070
           H         -1.314634111631     0.596312436826    -1.527074757921     1.007825032070
           C         -1.202315894416     0.974120987864    -0.518303703316    12.000000000000
           H          0.843496986864     1.585880035378    -0.805868228705     1.007825032070
           H          0.391803946796     1.340547865359     0.888289809321     1.007825032070
           C          0.289288455073     0.956055686220    -0.119655514483    12.000000000000
           H          0.776540050003    -0.857017138133    -1.183431078974     1.007825032070
           H          1.914972685926    -0.445028141347     0.107012450631     1.007825032070
           C          0.868764255950    -0.476947087406    -0.173129294019    12.000000000000
           H          0.547048934806    -2.416088019091     0.735570762857     1.007825032070
           H         -0.926175916542    -1.470978426924     0.524804309675     1.007825032070
           H          0.211455658427    -1.052917725990     1.806673703279     1.007825032070
           C          0.120843170971    -1.421563647828     0.791767190784    12.000000000000

  Running in c1 symmetry.

  Rotational constants: A =      0.42216  B =      0.16792  C =      0.13959 [cm^-1]
  Rotational constants: A =  12656.00816  B =   5034.21541  C =   4184.79717 [MHz]
  Nuclear repulsion =  133.254267052718205

  Charge       = 0
  Multiplicity = 1
  Electrons    = 34
  Nalpha       = 17
  Nbeta        = 17

  ==> Algorithm <==

  SCF Algorithm Type is DF.
  DIIS enabled.
  MOM disabled.
  Fractional occupation disabled.
  Guess Type is READ.
  Energy threshold   = 1.00e-08
  Density threshold  = 1.00e-08
  Integral threshold = 0.00e+00

  ==> Primary Basis <==

  Basis Set: CC-PVDZ
    Number of shells: 54
    Number of basis function: 106
    Number of Cartesian functions: 110
    Spherical Harmonics?: true
    Max angular momentum: 2

  ==> DFT Potential <==

   => B3LYP Composite Functional <= 

    B3LYP Hybrid-GGA Exchange-Correlation Functional (VWN1-RPA)

    P.J. Stephens et. al., J. Phys. Chem., 98, 11623-11627, 1994

    Points   =           5000
    Deriv    =              1
    GGA      =           TRUE
    Meta     =          FALSE

    X_LRC        =          FALSE
    X_Hybrid     =           TRUE
    X_Alpha      =   2.000000E-01
    X_Omega      =   0.000000E+00
    C_LRC        =          FALSE
    C_Hybrid     =          FALSE
    C_Alpha      =   0.000000E+00
    C_Omega      =   0.000000E+00

   => Exchange Functionals <=

    0.8000    B3_X
    0.2000      HF 

   => Correlation Functionals <=

    0.1900 VWN3RPA_C
    0.8100   LYP_C

   => Molecular Quadrature <=

    Radial Scheme    =       TREUTLER
    Pruning Scheme   =           FLAT
    Nuclear Scheme   =       TREUTLER

    BS radius alpha  =              1
    Pruning alpha    =              1
    Radial Points    =             75
    Spherical Points =            302
    Total Points     =         312758
    Total Blocks     =            272
    Max Points       =           4861
    Max Functions    =            106

  ==> Pre-Iterations <==

   -------------------------------------------------------
    Irrep   Nso     Nmo     Nalpha   Nbeta   Ndocc  Nsocc
   -------------------------------------------------------
     A        106     106       0       0       0       0
   -------------------------------------------------------
    Total     106     106      17      17      17       0
   -------------------------------------------------------

  ==> Integral Setup <==

  ==> DFJK: Density-Fitted J/K Matrices <==

    J tasked:                  Yes
    K tasked:                  Yes
    wK tasked:                  No
    OpenMP threads:              1
    Integrals threads:           1
    Memory (MB):               715
    Algorithm:                Core
    Integral Cache:           NONE
    Schwarz Cutoff:          1E-12
    Fitting Condition:       1E-12

   => Auxiliary Basis Set <=

  Basis Set: 
    Number of shells: 186
    Number of basis function: 510
    Number of Cartesian functions: 574
    Spherical Harmonics?: true
    Max angular momentum: 3

  Minimum eigenvalue in the overlap matrix is 4.9455526616E-03.
  Using Symmetric Orthogonalization.
  SCF Guess was Projection but file not found.
  Switching over to SAD guess.

  SCF Guess: Superposition of Atomic Densities via on-the-fly atomic UHF.

  ==> Iterations <==

                           Total Energy        Delta E     RMS |[F,P]|

   @DF-RKS iter   0:  -158.94276949870846   -1.58943e+02   3.27890e-02 
   @DF-RKS iter   1:  -158.27812559168939    6.64644e-01   5.21234e-03 
   @DF-RKS iter   2:  -158.20529293750263    7.28327e-02   6.30906e-03 DIIS
   @DF-RKS iter   3:  -158.45167304363773   -2.46380e-01   3.83421e-04 DIIS
   @DF-RKS iter   4:  -158.45251062711156   -8.37583e-04   1.18990e-04 DIIS
   @DF-RKS iter   5:  -158.45258024761364   -6.96205e-05   4.83604e-05 DIIS
   @DF-RKS iter   6:  -158.45259296083421   -1.27132e-05   7.22029e-06 DIIS
   @DF-RKS iter   7:  -158.45259328529150   -3.24457e-07   1.04980e-06 DIIS
   @DF-RKS iter   8:  -158.45259329279332   -7.50182e-09   1.48052e-07 DIIS
   @DF-RKS iter   9:  -158.45259329289655   -1.03228e-10   8.34218e-08 DIIS
   @DF-RKS iter  10:  -158.45259329293461   -3.80567e-11   1.51716e-08 DIIS
   @DF-RKS iter  11:  -158.45259329293606   -1.44951e-12   1.82404e-09 DIIS

  ==> Post-Iterations <==

    Orbital Energies (a.u.)
    -----------------------

    Doubly Occupied:                                                      

       1A    -10.174896     2A    -10.174713     3A    -10.168602  
       4A    -10.168588     5A     -0.792359     6A     -0.716141  
       7A     -0.640014     8A     -0.565349     9A     -0.458471  
      10A     -0.454629    11A     -0.416014    12A     -0.381701  
      13A     -0.378491    14A     -0.357646    15A     -0.327751  
      16A     -0.319303    17A     -0.318115  

    Virtual:                                                              

      18A      0.061397    19A      0.096357    20A      0.099260  
      21A      0.106735    22A      0.134482    23A      0.141932  
      24A      0.154691    25A      0.161652    26A      0.162505  
      27A      0.185697    28A      0.223650    29A      0.226077  
      30A      0.258536    31A      0.409505    32A      0.413029  
      33A      0.434239    34A      0.435876    35A      0.444353  
      36A      0.472704    37A      0.527918    38A      0.588240  
      39A      0.599843    40A      0.622997    41A      0.627319  
      42A      0.648362    43A      0.657062    44A      0.675229  
      45A      0.676672    46A      0.680548    47A      0.685741  
      48A      0.705428    49A      0.710169    50A      0.726785  
      51A      0.764715    52A      0.814616    53A      0.896777  
      54A      0.911494    55A      0.965943    56A      1.097088  
      57A      1.131685    58A      1.181535    59A      1.212312  
      60A      1.273148    61A      1.334010    62A      1.386079  
      63A      1.404326    64A      1.445857    65A      1.450695  
      66A      1.489435    67A      1.575373    68A      1.586768  
      69A      1.600902    70A      1.638631    71A      1.640267  
      72A      1.650107    73A      1.664045    74A      1.682507  
      75A      1.694327    76A      1.700324    77A      1.711586  
      78A      1.712709    79A      1.734472    80A      1.742386  
      81A      1.805592    82A      1.806752    83A      1.880895  
      84A      1.887886    85A      1.983399    86A      1.988394  
      87A      2.036646    88A      2.037943    89A      2.103708  
      90A      2.131188    91A      2.216011    92A      2.262620  
      93A      2.270580    94A      2.290665    95A      2.329412  
      96A      2.329731    97A      2.461386    98A      2.475653  
      99A      2.480574   100A      2.508426   101A      2.516150  
     102A      2.548159   103A      2.632340   104A      2.651528  
     105A      2.715540   106A      2.742821  

    Final Occupation by Irrep:
              A 
    DOCC [    17 ]

  Energy converged.

  @DF-RKS Final Energy:  -158.45259329293606

   => Energetics <=

    Nuclear Repulsion Energy =            133.2542670527182054
    One-Electron Energy =                -474.9524657238287091
    Two-Electron Energy =                 203.8833395424278478
    DFT Exchange-Correlation Energy =     -20.6377341642533949
    Empirical Dispersion Energy =           0.0000000000000000
    PCM Polarization Energy =               0.0000000000000000
    EFP Energy =                            0.0000000000000000
    Total Energy =                       -158.4525932929360579


  Saving occupied orbitals to File 180.

*** tstop() called on lski1497 at Tue Feb 21 18:41:43 2017
Module time:
	user time   =     127.50 seconds =       2.12 minutes
	system time =       1.74 seconds =       0.03 minutes
	total time  =        152 seconds =       2.53 minutes
Total time:
	user time   =     292.03 seconds =       4.87 minutes
	system time =       4.12 seconds =       0.07 minutes
	total time  =        342 seconds =       5.70 minutes


Properties will be evaluated at   0.000000,   0.000000,   0.000000 Bohr

Properties computed using the SCF density matrix

  Nuclear Dipole Moment: (a.u.)
     X:    -0.8548      Y:    -0.3535      Z:     0.2157

  Electronic Dipole Moment: (a.u.)
     X:     0.8750      Y:     0.3616      Z:    -0.2211

  Dipole Moment: (a.u.)
     X:     0.0202      Y:     0.0081      Z:    -0.0054     Total:     0.0224

  Dipole Moment: (Debye)
     X:     0.0513      Y:     0.0206      Z:    -0.0138     Total:     0.0570


*** tstart() called on lski1497
*** at Tue Feb 21 18:41:43 2017


         ------------------------------------------------------------
                                   SCF GRAD                          
                          Rob Parrish, Justin Turney,                
                       Andy Simmonett, and Alex Sokolov              
         ------------------------------------------------------------

  ==> Geometry <==

    Molecular point group: c1
    Full point group: C1

    Geometry (in Angstrom), charge = 0, multiplicity = 1:

       Center              X                  Y                   Z               Mass       
    ------------   -----------------  -----------------  -----------------  -----------------
           H         -1.774256435897     0.354034566340     0.158613553793     1.007825032070
           H         -1.582076591433     1.988213638582    -0.474534864460     1.007825032070
           H         -1.314634111631     0.596312436826    -1.527074757921     1.007825032070
           C         -1.202315894416     0.974120987864    -0.518303703316    12.000000000000
           H          0.843496986864     1.585880035378    -0.805868228705     1.007825032070
           H          0.391803946796     1.340547865359     0.888289809321     1.007825032070
           C          0.289288455073     0.956055686220    -0.119655514483    12.000000000000
           H          0.776540050003    -0.857017138133    -1.183431078974     1.007825032070
           H          1.914972685926    -0.445028141347     0.107012450631     1.007825032070
           C          0.868764255950    -0.476947087406    -0.173129294019    12.000000000000
           H          0.547048934806    -2.416088019091     0.735570762857     1.007825032070
           H         -0.926175916542    -1.470978426924     0.524804309675     1.007825032070
           H          0.211455658427    -1.052917725990     1.806673703279     1.007825032070
           C          0.120843170971    -1.421563647828     0.791767190784    12.000000000000

  Nuclear repulsion =  133.254267052718205

  ==> Basis Set <==

  Basis Set: CC-PVDZ
    Number of shells: 54
    Number of basis function: 106
    Number of Cartesian functions: 110
    Spherical Harmonics?: true
    Max angular momentum: 2

  ==> DFJKGrad: Density-Fitted SCF Gradients <==

    Gradient:                    1
    J tasked:                  Yes
    K tasked:                  Yes
    wK tasked:                  No
    OpenMP threads:              1
    Integrals threads:           1
    Memory (MB):               715
    Schwarz Cutoff:          0E+00
    Fitting Condition:       1E-12

   => Auxiliary Basis Set <=

  Basis Set: 
    Number of shells: 186
    Number of basis function: 510
    Number of Cartesian functions: 574
    Spherical Harmonics?: true
    Max angular momentum: 3

  ==> DFT Potential <==

   => B3LYP Composite Functional <= 

    B3LYP Hybrid-GGA Exchange-Correlation Functional (VWN1-RPA)

    P.J. Stephens et. al., J. Phys. Chem., 98, 11623-11627, 1994

    Points   =           5000
    Deriv    =              1
    GGA      =           TRUE
    Meta     =          FALSE

    X_LRC        =          FALSE
    X_Hybrid     =           TRUE
    X_Alpha      =   2.000000E-01
    X_Omega      =   0.000000E+00
    C_LRC        =          FALSE
    C_Hybrid     =          FALSE
    C_Alpha      =   0.000000E+00
    C_Omega      =   0.000000E+00

   => Exchange Functionals <=

    0.8000    B3_X
    0.2000      HF 

   => Correlation Functionals <=

    0.1900 VWN3RPA_C
    0.8100   LYP_C

   => Molecular Quadrature <=

    Radial Scheme    =       TREUTLER
    Pruning Scheme   =           FLAT
    Nuclear Scheme   =       TREUTLER

    BS radius alpha  =              1
    Pruning alpha    =              1
    Radial Points    =             75
    Spherical Points =            302
    Total Points     =         312758
    Total Blocks     =            272
    Max Points       =           4861
    Max Functions    =            106


  -Total Gradient:
     Atom            X                  Y                   Z
    ------   -----------------  -----------------  -----------------
       1        0.010011197066     0.005007022095    -0.006051491879
       2        0.007079783833    -0.010329497357     0.000654176914
       3        0.004238039072     0.004373125768     0.012317470889
       4       -0.021606324662    -0.005147400888    -0.006304364711
       5       -0.007830579377    -0.009839549472     0.005105530719
       6       -0.003632250365    -0.007370748303    -0.011654968231
       7        0.013284571100     0.021806416674     0.009882059628
       8       -0.002362793448     0.004918611742     0.013406336621
       9       -0.013714959318     0.000946811313     0.000176416535
      10        0.018969050698    -0.008664908092    -0.017947726948
      11       -0.002855200215     0.012304051668    -0.001771731768
      12        0.011988294496     0.004116533612     0.000485209300
      13        0.000509459566    -0.002258761631    -0.013174592392
      14       -0.014103981239    -0.009872082448     0.014884005157


*** tstop() called on lski1497 at Tue Feb 21 18:42:30 2017
Module time:
	user time   =      40.88 seconds =       0.68 minutes
	system time =       0.65 seconds =       0.01 minutes
	total time  =         47 seconds =       0.78 minutes
Total time:
	user time   =     332.94 seconds =       5.55 minutes
	system time =       4.77 seconds =       0.08 minutes
	total time  =        389 seconds =       6.48 minutes

			-----------------------------------------
			 OPTKING 2.0: for geometry optimizations 
			  - R.A. King,  Bethel University        
			-----------------------------------------

	Previous internal coordinate definitions found.
	---Fragment 1 Geometry and Gradient---
	 H          -3.3528587534        0.6690283720        0.2997361776
	 H          -2.9896914791        3.7571792706       -0.8967409343
	 H          -2.4842984359        1.1268671952       -2.8857530769
	 C          -2.2720477657        1.8408218874       -0.9794520529
	 H           1.5939782991        2.9968789465       -1.5228702514
	 H           0.7404021572        2.5332683336        1.6786244662
	 C           0.5466759535        1.8066834147       -0.2261161527
	 H           1.4674480257       -1.6195276823       -2.2363606364
	 H           3.6187739284       -0.8409813086        0.2022242245
	 C           1.6417265178       -0.9012993751       -0.3271669513
	 H           1.0337726681       -4.5657446690        1.3900272932
	 H          -1.7502188331       -2.7797463743        0.9917364186
	 H           0.3995932837       -1.9897261426        3.4141185107
	 C           0.2283604982       -2.6863659749        1.4962231516
	             0.0100111971        0.0050070221       -0.0060514919
	             0.0070797838       -0.0103294974        0.0006541769
	             0.0042380391        0.0043731258        0.0123174709
	            -0.0216063247       -0.0051474009       -0.0063043647
	            -0.0078305794       -0.0098395495        0.0051055307
	            -0.0036322504       -0.0073707483       -0.0116549682
	             0.0132845711        0.0218064167        0.0098820596
	            -0.0023627934        0.0049186117        0.0134063366
	            -0.0137149593        0.0009468113        0.0001764165
	             0.0189690507       -0.0086649081       -0.0179477269
	            -0.0028552002        0.0123040517       -0.0017717318
	             0.0119882945        0.0041165336        0.0004852093
	             0.0005094596       -0.0022587616       -0.0131745924
	            -0.0141039812       -0.0098720824        0.0148840052

	---Fragment 1 Intrafragment Coordinates---
	 - Coordinate -           - BOHR/RAD -       - ANG/DEG -
	 R(1,4)           =         2.043912	       1.081591
	 R(2,4)           =         2.047994	       1.083752
	 R(3,4)           =         2.046647	       1.083039
	 R(4,7)           =         2.917856	       1.544063
	 R(5,7)           =         2.048165	       1.083842
	 R(6,7)           =         2.047802	       1.083650
	 R(7,10)          =         2.922759	       1.546657
	 R(8,10)          =         2.047253	       1.083360
	 R(9,10)          =         2.047586	       1.083536
	 R(10,14)         =         2.916988	       1.543603
	 R(11,14)         =         2.047445	       1.083461
	 R(12,14)         =         2.044016	       1.081647
	 R(13,14)         =         2.047669	       1.083580
	 B(1,4,2)         =         1.902746	     109.019298
	 B(1,4,3)         =         1.905091	     109.153648
	 B(1,4,7)         =         1.920414	     110.031620
	 B(2,4,3)         =         1.904660	     109.128984
	 B(2,4,7)         =         1.916681	     109.817712
	 B(3,4,7)         =         1.914077	     109.668562
	 B(4,7,5)         =         1.900437	     108.887046
	 B(4,7,6)         =         1.904327	     109.109907
	 B(4,7,10)        =         1.943192	     111.336717
	 B(5,7,6)         =         1.911704	     109.532575
	 B(5,7,10)        =         1.901737	     108.961500
	 B(6,7,10)        =         1.902288	     108.993061
	 B(7,10,8)        =         1.902224	     108.989401
	 B(7,10,9)        =         1.902362	     108.997325
	 B(7,10,14)       =         1.943183	     111.336172
	 B(8,10,9)        =         1.910957	     109.489780
	 B(8,10,14)       =         1.903927	     109.086967
	 B(9,10,14)       =         1.901015	     108.920157
	 B(10,14,11)      =         1.916330	     109.797641
	 B(10,14,12)      =         1.920580	     110.041115
	 B(10,14,13)      =         1.914276	     109.679922
	 B(11,14,12)      =         1.902913	     109.028876
	 B(11,14,13)      =         1.904950	     109.145588
	 B(12,14,13)      =         1.904620	     109.126690
	 D(1,4,7,5)       =        -3.136916	    -179.732023
	 D(1,4,7,6)       =        -1.051142	     -60.226007
	 D(1,4,7,10)      =         1.049176	      60.113357
	 D(2,4,7,5)       =        -1.042408	     -59.725601
	 D(2,4,7,6)       =         1.043365	      59.780415
	 D(2,4,7,10)      =        -3.139502	    -179.880221
	 D(3,4,7,5)       =         1.050504	      60.189471
	 D(3,4,7,6)       =         3.136278	     179.695487
	 D(3,4,7,10)      =        -1.046589	     -59.965149
	 D(4,7,10,8)      =         1.051241	      60.231699
	 D(4,7,10,9)      =         3.136008	     179.679995
	 D(4,7,10,14)     =        -1.049732	     -60.145241
	 D(5,7,10,8)      =        -1.045085	     -59.878943
	 D(5,7,10,9)      =         1.039681	      59.569353
	 D(5,7,10,14)     =         3.137127	     179.744116
	 D(6,7,10,8)      =        -3.130424	    -179.360088
	 D(6,7,10,9)      =        -1.045658	     -59.911792
	 D(6,7,10,14)     =         1.051787	      60.262971
	 D(7,10,14,11)    =        -3.140025	    -179.910154
	 D(7,10,14,12)    =         1.048564	      60.078274
	 D(7,10,14,13)    =        -1.046849	     -59.980033
	 D(8,10,14,11)    =         1.043190	      59.770409
	 D(8,10,14,12)    =        -1.051407	     -60.241163
	 D(8,10,14,13)    =         3.136366	     179.700530
	 D(9,10,14,11)    =        -1.041784	     -59.689839
	 D(9,10,14,12)    =        -3.136381	    -179.701411
	 D(9,10,14,13)    =         1.051391	      60.240282

	Current energy   :      -158.4525932929

	Energy change for the previous step:
		Projected    :        -0.0081741141
		Actual       :        -0.0065835749

	Performing BFGS update.
	Previous computed or guess Hessian on step 1.
	Steps to be used in Hessian update: 1
	Adding user-defined constraint: Fragment 1; Coordinate 49:
		Value =    -1.049732; Fixed value    =    -1.047200
		Force =     0.001330; Force constant =     0.525000
	Removing off-diagonal coupling between coordinate 49 and others.
	Taking RFO optimization step.
	Going to follow RFO solution 1.
	Using RFO vector 1.

	Determining step-restricting scale parameter for RS-RFO.
	Maximum step size allowed    0.10000

	 Iter      |step|        alpha        rfo_root  
	------------------------------------------------
	    0     0.19563       1.00000           1
	    1     0.15231       6.50983           1
	    2     0.12117      18.29137           1
	    3     0.10521      30.93623           1
	    4     0.10043      36.30569           1
	    5     0.10000      36.83701           1
	------------------------------------------------
	Norm of target step-size    0.10000
	Projected energy change by RFO approximation:        -0.0042925939

	Back-transformation to cartesian coordinates...
	Could not converge backtransformation.
	Using first guess instead.

	--- Internal Coordinate Step in ANG or DEG, aJ/ANG or AJ/DEG ---
	 ---------------------------------------------------------------------------
	   Coordinate                Previous        Force       Change         New 
	   ----------                --------       ------       ------       ------
	    1 R(1,4)          =      1.081591     0.098481     0.013371     1.094963
	    2 R(2,4)          =      1.083752     0.099853     0.011967     1.095718
	    3 R(3,4)          =      1.083039     0.110710     0.013471     1.096510
	    4 R(4,7)          =      1.544063    -0.000256    -0.002318     1.541745
	    5 R(5,7)          =      1.083842     0.106713     0.012823     1.096665
	    6 R(6,7)          =      1.083650     0.113691     0.013862     1.097512
	    7 R(7,10)         =      1.546657     0.015100    -0.002024     1.544633
	    8 R(8,10)         =      1.083360     0.115562     0.014060     1.097420
	    9 R(9,10)         =      1.083536     0.108482     0.013016     1.096552
	   10 R(10,14)        =      1.543603     0.001693    -0.002040     1.541564
	   11 R(11,14)        =      1.083461     0.101545     0.012148     1.095610
	   12 R(12,14)        =      1.081647     0.098157     0.013340     1.094987
	   13 R(13,14)        =      1.083580     0.107642     0.013139     1.096719
	   14 B(1,4,2)        =    109.019298    -0.000310    -0.655347   108.363952
	   15 B(1,4,3)        =    109.153648    -0.000254    -0.641983   108.511664
	   16 B(1,4,7)        =    110.031620     0.000369     0.781085   110.812705
	   17 B(2,4,3)        =    109.128984    -0.000237    -0.557207   108.571778
	   18 B(2,4,7)        =    109.817712     0.000223     0.492044   110.309755
	   19 B(3,4,7)        =    109.668562     0.000198     0.537181   110.205743
	   20 B(4,7,5)        =    108.887046    -0.000247    -0.218763   108.668283
	   21 B(4,7,6)        =    109.109907    -0.000203    -0.189330   108.920577
	   22 B(4,7,10)       =    111.336717     0.000941     1.362936   112.699652
	   23 B(5,7,6)        =    109.532575    -0.000013    -0.395180   109.137395
	   24 B(5,7,10)       =    108.961500    -0.000255    -0.347780   108.613720
	   25 B(6,7,10)       =    108.993061    -0.000230    -0.244773   108.748288
	   26 B(7,10,8)       =    108.989401    -0.000233    -0.248416   108.740985
	   27 B(7,10,9)       =    108.997325    -0.000260    -0.357554   108.639771
	   28 B(7,10,14)      =    111.336172     0.000946     1.369991   112.706163
	   29 B(8,10,9)       =    109.489780    -0.000010    -0.385913   109.103867
	   30 B(8,10,14)      =    109.086967    -0.000202    -0.184598   108.902369
	   31 B(9,10,14)      =    108.920157    -0.000250    -0.226940   108.693217
	   32 B(10,14,11)     =    109.797641     0.000230     0.504854   110.302496
	   33 B(10,14,12)     =    110.041115     0.000367     0.775007   110.816122
	   34 B(10,14,13)     =    109.679922     0.000197     0.535166   110.215088
	   35 B(11,14,12)     =    109.028876    -0.000312    -0.659276   108.369600
	   36 B(11,14,13)     =    109.145588    -0.000241    -0.564475   108.581113
	   37 B(12,14,13)     =    109.126690    -0.000252    -0.635653   108.491037
	   38 D(1,4,7,5)      =   -179.732023     0.000039     0.398469  -179.333554
	   39 D(1,4,7,6)      =    -60.226007    -0.000025    -0.316426   -60.542433
	   40 D(1,4,7,10)     =     60.113357     0.000014     0.120144    60.233502
	   41 D(2,4,7,5)      =    -59.725601     0.000037     0.396811   -59.328790
	   42 D(2,4,7,6)      =     59.780415    -0.000028    -0.318083    59.462331
	   43 D(2,4,7,10)     =   -179.880221     0.000012     0.118487  -179.761735
	   44 D(3,4,7,5)      =     60.189471     0.000030     0.355479    60.544950
	   45 D(3,4,7,6)      =    179.695487    -0.000035    -0.359416   179.336071
	   46 D(3,4,7,10)     =    -59.965149     0.000005     0.077154   -59.887995
	   47 D(4,7,10,8)     =     60.231699     0.000028     0.350719    60.582418
	   48 D(4,7,10,9)     =    179.679995    -0.000041    -0.465767   179.214228
	   49 D(4,7,10,14)    =    -60.145241    -0.000016    -0.122951   -60.268192
	   50 D(5,7,10,8)     =    -59.878943     0.000002    -0.002895   -59.881838
	   51 D(5,7,10,9)     =     59.569353    -0.000068    -0.819381    58.749972
	   52 D(5,7,10,14)    =    179.744116    -0.000042    -0.476564   179.267552
	   53 D(6,7,10,8)     =   -179.360088     0.000071     0.816925  -178.543163
	   54 D(6,7,10,9)     =    -59.911792     0.000002     0.000439   -59.911353
	   55 D(6,7,10,14)    =     60.262971     0.000027     0.343256    60.606227
	   56 D(7,10,14,11)   =   -179.910154     0.000012     0.123765  -179.786389
	   57 D(7,10,14,12)   =     60.078274     0.000015     0.126040    60.204314
	   58 D(7,10,14,13)   =    -59.980033     0.000005     0.080320   -59.899713
	   59 D(8,10,14,11)   =     59.770409    -0.000028    -0.315149    59.455261
	   60 D(8,10,14,12)   =    -60.241163    -0.000025    -0.312873   -60.554036
	   61 D(8,10,14,13)   =    179.700530    -0.000035    -0.358593   179.341936
	   62 D(9,10,14,11)   =    -59.689839     0.000036     0.390380   -59.299459
	   63 D(9,10,14,12)   =   -179.701411     0.000039     0.392656  -179.308756
	   64 D(9,10,14,13)   =     60.240282     0.000029     0.346935    60.587217
	 ---------------------------------------------------------------------------
	 Forces used to impose fixed constraints are not included.
	  Forces zeroed: 49 

  ==> Convergence Check <==

  Measures of convergence in internal coordinates in au.
  Criteria marked as inactive (o), active & met (*), and active & unmet ( ).
  ---------------------------------------------------------------------------------------------
   Step     Total Energy     Delta E     MAX Force     RMS Force      MAX Disp      RMS Disp   
  ---------------------------------------------------------------------------------------------
    Convergence Criteria    1.00e-06 *    3.00e-04 *             o    1.20e-03 *             o
  ---------------------------------------------------------------------------------------------
      2    -158.45259329   -6.58e-03      1.40e-02      5.99e-03 o    2.66e-02      1.26e-02 o  ~
  ---------------------------------------------------------------------------------------------

	Writing optimization data to binary file.
	Structure for next step:
	Cartesian Geometry (in Angstrom)
	    H    -1.8126825782   0.3906185366   0.1536922754
	    H    -1.5782029554   2.0296602573  -0.4898018202
	    H    -1.3376003455   0.6168131186  -1.5453695361
	    C    -1.2072954843   0.9992645376  -0.5260136601
	    H     0.8513125441   1.5805435274  -0.8197751106
	    H     0.3884871747   1.3495486149   0.8916001475
	    C     0.2807923497   0.9517965754  -0.1256154666
	    H     0.7790028159  -0.8661772446  -1.1868532475
	    H     1.9219743516  -0.4333278021   0.1172565838
	    C     0.8629753956  -0.4784155360  -0.1636621253
	    H     0.5833884543  -2.4411593971   0.7409373861
	    H    -0.9234973218  -1.5224768773   0.5388968811
	    H     0.2184290001  -1.0802023519   1.8288300044
	    C     0.1376717941  -1.4418609288   0.7966120266
			--------------------------
			 OPTKING Finished Execution 
			--------------------------

    Structure for next step:
    Molecular point group: c1
    Full point group: C1

    Geometry (in Angstrom), charge = 0, multiplicity = 1:

    H           -1.812221541650     0.390785333967     0.153570749282
    H           -1.577741918873     2.029827054661    -0.489923346390
    H           -1.337139309005     0.616979916005    -1.545491062218
    C           -1.206834447719     0.999431335030    -0.526135186282
    H            0.851773580639     1.580710324827    -0.819896636788
    H            0.388948211271     1.349715412310     0.891478621335
    C            0.281253386231     0.951963372778    -0.125736992769
    H            0.779463852452    -0.866010447200    -1.186974773669
    H            1.922435388135    -0.433161004706     0.117135057654
    C            0.863436432134    -0.478248738591    -0.163783651471
    H            0.583849490820    -2.440992599704     0.740815859900
    H           -0.923036285257    -1.522310079842     0.538775354985
    H            0.218890036654    -1.080035554522     1.828708478225
    C            0.138132830650    -1.441694131440     0.796490500410

gradient() will perform analytic gradient computation.

*** tstart() called on lski1497
*** at Tue Feb 21 18:42:31 2017


         ---------------------------------------------------------
                                   SCF
            by Justin Turney, Rob Parrish, and Andy Simmonett
                              RKS Reference
                        1 Threads,   1000 MiB Core
         ---------------------------------------------------------

  ==> Geometry <==

    Molecular point group: c1
    Full point group: C1

    Geometry (in Angstrom), charge = 0, multiplicity = 1:

       Center              X                  Y                   Z               Mass       
    ------------   -----------------  -----------------  -----------------  -----------------
           H         -1.812221541650     0.390785333967     0.153570749282     1.007825032070
           H         -1.577741918873     2.029827054661    -0.489923346390     1.007825032070
           H         -1.337139309005     0.616979916005    -1.545491062218     1.007825032070
           C         -1.206834447719     0.999431335030    -0.526135186282    12.000000000000
           H          0.851773580639     1.580710324827    -0.819896636788     1.007825032070
           H          0.388948211271     1.349715412310     0.891478621335     1.007825032070
           C          0.281253386231     0.951963372778    -0.125736992769    12.000000000000
           H          0.779463852452    -0.866010447200    -1.186974773669     1.007825032070
           H          1.922435388135    -0.433161004706     0.117135057654     1.007825032070
           C          0.863436432134    -0.478248738591    -0.163783651471    12.000000000000
           H          0.583849490820    -2.440992599704     0.740815859900     1.007825032070
           H         -0.923036285257    -1.522310079842     0.538775354985     1.007825032070
           H          0.218890036654    -1.080035554522     1.828708478225     1.007825032070
           C          0.138132830650    -1.441694131440     0.796490500410    12.000000000000

  Running in c1 symmetry.

  Rotational constants: A =      0.42560  B =      0.16346  C =      0.13677 [cm^-1]
  Rotational constants: A =  12759.14463  B =   4900.54657  C =   4100.39108 [MHz]
  Nuclear repulsion =  132.334862172558161

  Charge       = 0
  Multiplicity = 1
  Electrons    = 34
  Nalpha       = 17
  Nbeta        = 17

  ==> Algorithm <==

  SCF Algorithm Type is DF.
  DIIS enabled.
  MOM disabled.
  Fractional occupation disabled.
  Guess Type is READ.
  Energy threshold   = 1.00e-08
  Density threshold  = 1.00e-08
  Integral threshold = 0.00e+00

  ==> Primary Basis <==

  Basis Set: CC-PVDZ
    Number of shells: 54
    Number of basis function: 106
    Number of Cartesian functions: 110
    Spherical Harmonics?: true
    Max angular momentum: 2

  ==> DFT Potential <==

   => B3LYP Composite Functional <= 

    B3LYP Hybrid-GGA Exchange-Correlation Functional (VWN1-RPA)

    P.J. Stephens et. al., J. Phys. Chem., 98, 11623-11627, 1994

    Points   =           5000
    Deriv    =              1
    GGA      =           TRUE
    Meta     =          FALSE

    X_LRC        =          FALSE
    X_Hybrid     =           TRUE
    X_Alpha      =   2.000000E-01
    X_Omega      =   0.000000E+00
    C_LRC        =          FALSE
    C_Hybrid     =          FALSE
    C_Alpha      =   0.000000E+00
    C_Omega      =   0.000000E+00

   => Exchange Functionals <=

    0.8000    B3_X
    0.2000      HF 

   => Correlation Functionals <=

    0.1900 VWN3RPA_C
    0.8100   LYP_C

   => Molecular Quadrature <=

    Radial Scheme    =       TREUTLER
    Pruning Scheme   =           FLAT
    Nuclear Scheme   =       TREUTLER

    BS radius alpha  =              1
    Pruning alpha    =              1
    Radial Points    =             75
    Spherical Points =            302
    Total Points     =         312782
    Total Blocks     =            267
    Max Points       =           4901
    Max Functions    =            106

  ==> Pre-Iterations <==

   -------------------------------------------------------
    Irrep   Nso     Nmo     Nalpha   Nbeta   Ndocc  Nsocc
   -------------------------------------------------------
     A        106     106       0       0       0       0
   -------------------------------------------------------
    Total     106     106      17      17      17       0
   -------------------------------------------------------

  ==> Integral Setup <==

  ==> DFJK: Density-Fitted J/K Matrices <==

    J tasked:                  Yes
    K tasked:                  Yes
    wK tasked:                  No
    OpenMP threads:              1
    Integrals threads:           1
    Memory (MB):               715
    Algorithm:                Core
    Integral Cache:           NONE
    Schwarz Cutoff:          1E-12
    Fitting Condition:       1E-12

   => Auxiliary Basis Set <=

  Basis Set: 
    Number of shells: 186
    Number of basis function: 510
    Number of Cartesian functions: 574
    Spherical Harmonics?: true
    Max angular momentum: 3

  Minimum eigenvalue in the overlap matrix is 4.9496863775E-03.
  Using Symmetric Orthogonalization.
  SCF Guess was Projection but file not found.
  Switching over to SAD guess.

  SCF Guess: Superposition of Atomic Densities via on-the-fly atomic UHF.

  ==> Iterations <==

                           Total Energy        Delta E     RMS |[F,P]|

   @DF-RKS iter   0:  -158.88544559535347   -1.58885e+02   3.21914e-02 
   @DF-RKS iter   1:  -158.28324743765023    6.02198e-01   5.17209e-03 
   @DF-RKS iter   2:  -158.20379765430758    7.94498e-02   6.34631e-03 DIIS
   @DF-RKS iter   3:  -158.45498966964635   -2.51192e-01   3.79398e-04 DIIS
   @DF-RKS iter   4:  -158.45582095122572   -8.31282e-04   1.18058e-04 DIIS
   @DF-RKS iter   5:  -158.45589004929241   -6.90981e-05   4.83858e-05 DIIS
   @DF-RKS iter   6:  -158.45590279628317   -1.27470e-05   7.35093e-06 DIIS
   @DF-RKS iter   7:  -158.45590313205403   -3.35771e-07   1.06610e-06 DIIS
   @DF-RKS iter   8:  -158.45590313978309   -7.72906e-09   1.67765e-07 DIIS
   @DF-RKS iter   9:  -158.45590313991124   -1.28153e-10   9.65298e-08 DIIS
   @DF-RKS iter  10:  -158.45590313996289   -5.16422e-11   1.47808e-08 DIIS
   @DF-RKS iter  11:  -158.45590313996473   -1.84741e-12   1.98299e-09 DIIS

  ==> Post-Iterations <==

    Orbital Energies (a.u.)
    -----------------------

    Doubly Occupied:                                                      

       1A    -10.178599     2A    -10.178431     3A    -10.173034  
       4A    -10.173022     5A     -0.790373     6A     -0.715061  
       7A     -0.637740     8A     -0.561934     9A     -0.456267  
      10A     -0.451372    11A     -0.413973    12A     -0.380864  
      13A     -0.377500    14A     -0.356341    15A     -0.325297  
      16A     -0.319626    17A     -0.318610  

    Virtual:                                                              

      18A      0.058754    19A      0.093619    20A      0.097038  
      21A      0.104508    22A      0.132782    23A      0.139676  
      24A      0.150539    25A      0.157299    26A      0.159958  
      27A      0.182446    28A      0.221313    29A      0.223472  
      30A      0.262420    31A      0.405440    32A      0.406984  
      33A      0.434561    34A      0.437041    35A      0.441368  
      36A      0.476554    37A      0.528359    38A      0.586054  
      39A      0.598747    40A      0.619135    41A      0.624606  
      42A      0.644209    43A      0.648932    44A      0.666270  
      45A      0.670842    46A      0.672932    47A      0.680916  
      48A      0.693852    49A      0.702671    50A      0.716079  
      51A      0.760086    52A      0.808162    53A      0.897169  
      54A      0.906502    55A      0.965483    56A      1.095958  
      57A      1.131884    58A      1.178493    59A      1.201728  
      60A      1.262567    61A      1.330103    62A      1.382257  
      63A      1.401862    64A      1.437477    65A      1.438485  
      66A      1.483474    67A      1.576448    68A      1.582655  
      69A      1.592908    70A      1.630230    71A      1.632936  
      72A      1.644060    73A      1.655394    74A      1.676294  
      75A      1.682158    76A      1.688008    77A      1.701415  
      78A      1.703970    79A      1.725230    80A      1.725444  
      81A      1.789639    82A      1.796344    83A      1.865984  
      84A      1.878476    85A      1.966159    86A      1.984421  
      87A      2.029892    88A      2.040716    89A      2.090621  
      90A      2.117189    91A      2.198283    92A      2.243172  
      93A      2.249923    94A      2.263371    95A      2.300486  
      96A      2.303704    97A      2.424765    98A      2.438816  
      99A      2.459127   100A      2.487728   101A      2.494983  
     102A      2.524352   103A      2.617427   104A      2.626045  
     105A      2.696500   106A      2.717007  

    Final Occupation by Irrep:
              A 
    DOCC [    17 ]

  Energy converged.

  @DF-RKS Final Energy:  -158.45590313996473

   => Energetics <=

    Nuclear Repulsion Energy =            132.3348621725581609
    One-Electron Energy =                -473.1558350713883669
    Two-Electron Energy =                 202.9652339207713965
    DFT Exchange-Correlation Energy =     -20.6001641619059583
    Empirical Dispersion Energy =           0.0000000000000000
    PCM Polarization Energy =               0.0000000000000000
    EFP Energy =                            0.0000000000000000
    Total Energy =                       -158.4559031399647324


  Saving occupied orbitals to File 180.

*** tstop() called on lski1497 at Tue Feb 21 18:44:56 2017
Module time:
	user time   =     123.15 seconds =       2.05 minutes
	system time =       1.71 seconds =       0.03 minutes
	total time  =        145 seconds =       2.42 minutes
Total time:
	user time   =     456.84 seconds =       7.61 minutes
	system time =       6.51 seconds =       0.11 minutes
	total time  =        535 seconds =       8.92 minutes


Properties will be evaluated at   0.000000,   0.000000,   0.000000 Bohr

Properties computed using the SCF density matrix

  Nuclear Dipole Moment: (a.u.)
     X:    -0.8482      Y:    -0.3511      Z:     0.2139

  Electronic Dipole Moment: (a.u.)
     X:     0.8675      Y:     0.3590      Z:    -0.2190

  Dipole Moment: (a.u.)
     X:     0.0193      Y:     0.0079      Z:    -0.0050     Total:     0.0214

  Dipole Moment: (Debye)
     X:     0.0490      Y:     0.0201      Z:    -0.0128     Total:     0.0545


*** tstart() called on lski1497
*** at Tue Feb 21 18:44:56 2017


         ------------------------------------------------------------
                                   SCF GRAD                          
                          Rob Parrish, Justin Turney,                
                       Andy Simmonett, and Alex Sokolov              
         ------------------------------------------------------------

  ==> Geometry <==

    Molecular point group: c1
    Full point group: C1

    Geometry (in Angstrom), charge = 0, multiplicity = 1:

       Center              X                  Y                   Z               Mass       
    ------------   -----------------  -----------------  -----------------  -----------------
           H         -1.812221541650     0.390785333967     0.153570749282     1.007825032070
           H         -1.577741918873     2.029827054661    -0.489923346390     1.007825032070
           H         -1.337139309005     0.616979916005    -1.545491062218     1.007825032070
           C         -1.206834447719     0.999431335030    -0.526135186282    12.000000000000
           H          0.851773580639     1.580710324827    -0.819896636788     1.007825032070
           H          0.388948211271     1.349715412310     0.891478621335     1.007825032070
           C          0.281253386231     0.951963372778    -0.125736992769    12.000000000000
           H          0.779463852452    -0.866010447200    -1.186974773669     1.007825032070
           H          1.922435388135    -0.433161004706     0.117135057654     1.007825032070
           C          0.863436432134    -0.478248738591    -0.163783651471    12.000000000000
           H          0.583849490820    -2.440992599704     0.740815859900     1.007825032070
           H         -0.923036285257    -1.522310079842     0.538775354985     1.007825032070
           H          0.218890036654    -1.080035554522     1.828708478225     1.007825032070
           C          0.138132830650    -1.441694131440     0.796490500410    12.000000000000

  Nuclear repulsion =  132.334862172558161

  ==> Basis Set <==

  Basis Set: CC-PVDZ
    Number of shells: 54
    Number of basis function: 106
    Number of Cartesian functions: 110
    Spherical Harmonics?: true
    Max angular momentum: 2

  ==> DFJKGrad: Density-Fitted SCF Gradients <==

    Gradient:                    1
    J tasked:                  Yes
    K tasked:                  Yes
    wK tasked:                  No
    OpenMP threads:              1
    Integrals threads:           1
    Memory (MB):               715
    Schwarz Cutoff:          0E+00
    Fitting Condition:       1E-12

   => Auxiliary Basis Set <=

  Basis Set: 
    Number of shells: 186
    Number of basis function: 510
    Number of Cartesian functions: 574
    Spherical Harmonics?: true
    Max angular momentum: 3

  ==> DFT Potential <==

   => B3LYP Composite Functional <= 

    B3LYP Hybrid-GGA Exchange-Correlation Functional (VWN1-RPA)

    P.J. Stephens et. al., J. Phys. Chem., 98, 11623-11627, 1994

    Points   =           5000
    Deriv    =              1
    GGA      =           TRUE
    Meta     =          FALSE

    X_LRC        =          FALSE
    X_Hybrid     =           TRUE
    X_Alpha      =   2.000000E-01
    X_Omega      =   0.000000E+00
    C_LRC        =          FALSE
    C_Hybrid     =          FALSE
    C_Alpha      =   0.000000E+00
    C_Omega      =   0.000000E+00

   => Exchange Functionals <=

    0.8000    B3_X
    0.2000      HF 

   => Correlation Functionals <=

    0.1900 VWN3RPA_C
    0.8100   LYP_C

   => Molecular Quadrature <=

    Radial Scheme    =       TREUTLER
    Pruning Scheme   =           FLAT
    Nuclear Scheme   =       TREUTLER

    BS radius alpha  =              1
    Pruning alpha    =              1
[...]
    Number of Cartesian functions: 110
    Spherical Harmonics?: true
    Max angular momentum: 2

  ==> DFJKGrad: Density-Fitted SCF Gradients <==

    Gradient:                    1
    J tasked:                  Yes
    K tasked:                  Yes
    wK tasked:                  No
    OpenMP threads:              1
    Integrals threads:           1
    Memory (MB):               715
    Schwarz Cutoff:          0E+00
    Fitting Condition:       1E-12

   => Auxiliary Basis Set <=

  Basis Set: 
    Number of shells: 186
    Number of basis function: 510
    Number of Cartesian functions: 574
    Spherical Harmonics?: true
    Max angular momentum: 3

  ==> DFT Potential <==

   => B3LYP Composite Functional <= 

    B3LYP Hybrid-GGA Exchange-Correlation Functional (VWN1-RPA)

    P.J. Stephens et. al., J. Phys. Chem., 98, 11623-11627, 1994

    Points   =           5000
    Deriv    =              1
    GGA      =           TRUE
    Meta     =          FALSE

    X_LRC        =          FALSE
    X_Hybrid     =           TRUE
    X_Alpha      =   2.000000E-01
    X_Omega      =   0.000000E+00
    C_LRC        =          FALSE
    C_Hybrid     =          FALSE
    C_Alpha      =   0.000000E+00
    C_Omega      =   0.000000E+00

   => Exchange Functionals <=

    0.8000    B3_X
    0.2000      HF 

   => Correlation Functionals <=

    0.1900 VWN3RPA_C
    0.8100   LYP_C

   => Molecular Quadrature <=

    Radial Scheme    =       TREUTLER
    Pruning Scheme   =           FLAT
    Nuclear Scheme   =       TREUTLER

    BS radius alpha  =              1
    Pruning alpha    =              1
    Radial Points    =             75
    Spherical Points =            302
    Total Points     =         312812
    Total Blocks     =            269
    Max Points       =           4822
    Max Functions    =            106


  -Total Gradient:
     Atom            X                  Y                   Z
    ------   -----------------  -----------------  -----------------
       1       -0.000020987988    -0.000012980859     0.000013281217
       2       -0.000006668639     0.000022313436     0.000004489147
       3       -0.000007003576    -0.000002657816    -0.000014796425
       4       -0.000189095420    -0.000102573725     0.000764393423
       5        0.000029761057    -0.000001149835     0.000001315104
       6       -0.000007547030     0.000001992067     0.000003766271
       7        0.000086715125     0.000026931089    -0.001328444514
       8       -0.000004928317    -0.000007128592    -0.000000785847
       9        0.000017146867     0.000020733531    -0.000013116417
      10        0.000615694439     0.000263711737     0.001150716911
      11        0.000009045056    -0.000021595543    -0.000004958375
      12       -0.000027127675    -0.000006914471    -0.000001023193
      13       -0.000000084950    -0.000000414339     0.000016309072
      14       -0.000499040997    -0.000181971966    -0.000590103389


*** tstop() called on lski1497 at Tue Feb 21 19:01:26 2017
Module time:
	user time   =      38.69 seconds =       0.64 minutes
	system time =       0.60 seconds =       0.01 minutes
	total time  =         42 seconds =       0.70 minutes
Total time:
	user time   =    1299.62 seconds =      21.66 minutes
	system time =      18.28 seconds =       0.30 minutes
	total time  =       1525 seconds =      25.42 minutes

			-----------------------------------------
			 OPTKING 2.0: for geometry optimizations 
			  - R.A. King,  Bethel University        
			-----------------------------------------

	Previous internal coordinate definitions found.
	---Fragment 1 Geometry and Gradient---
	 H          -3.5218191036        0.9318807209        0.3070519469
	 H          -2.9322882588        3.9137793086       -1.1119753367
	 H          -2.5996290564        1.0991032429       -2.9214625934
	 C          -2.2855272919        1.9352165107       -1.0355394213
	 H           1.6349034836        2.9665132610       -1.5591402454
	 H           0.7373041222        2.6157580120        1.6328453021
	 C           0.5017812994        1.7792256295       -0.2692004503
	 H           1.5398852392       -1.6736738191       -2.2089720495
	 H           3.6382973237       -0.7849654409        0.2250286360
	 C           1.6128622934       -0.9043882857       -0.2658016243
	 H           1.2615501098       -4.6049720528        1.5346710374
	 H          -1.6823361913       -3.0848616728        1.0095935924
	 H           0.3233237094       -2.0408216360        3.4973640937
	 C           0.3053282826       -2.7544336642        1.5365270330
	            -0.0000209880       -0.0000129809        0.0000132812
	            -0.0000066686        0.0000223134        0.0000044891
	            -0.0000070036       -0.0000026578       -0.0000147964
	            -0.0001890954       -0.0001025737        0.0007643934
	             0.0000297611       -0.0000011498        0.0000013151
	            -0.0000075470        0.0000019921        0.0000037663
	             0.0000867151        0.0000269311       -0.0013284445
	            -0.0000049283       -0.0000071286       -0.0000007858
	             0.0000171469        0.0000207335       -0.0000131164
	             0.0006156944        0.0002637117        0.0011507169
	             0.0000090451       -0.0000215955       -0.0000049584
	            -0.0000271277       -0.0000069145       -0.0000010232
	            -0.0000000849       -0.0000004143        0.0000163091
	            -0.0004990410       -0.0001819720       -0.0005901034

	---Fragment 1 Intrafragment Coordinates---
	 - Coordinate -           - BOHR/RAD -       - ANG/DEG -
	 R(1,4)           =         2.082703	       1.102119
	 R(2,4)           =         2.082991	       1.102272
	 R(3,4)           =         2.086732	       1.104251
	 R(4,7)           =         2.894943	       1.531938
	 R(5,7)           =         2.087478	       1.104646
	 R(6,7)           =         2.091180	       1.106605
	 R(7,10)          =         2.904530	       1.537011
	 R(8,10)          =         2.091181	       1.106605
	 R(9,10)          =         2.087478	       1.104646
	 R(10,14)         =         2.894944	       1.531938
	 R(11,14)         =         2.082992	       1.102272
	 R(12,14)         =         2.082703	       1.102119
	 R(13,14)         =         2.086731	       1.104251
	 B(1,4,2)         =         1.872283	     107.273893
	 B(1,4,3)         =         1.875727	     107.471248
	 B(1,4,7)         =         1.955112	     112.019651
	 B(2,4,3)         =         1.876215	     107.499173
	 B(2,4,7)         =         1.938902	     111.090875
	 B(3,4,7)         =         1.941830	     111.258659
	 B(4,7,5)         =         1.905416	     109.172296
	 B(4,7,6)         =         1.904621	     109.126718
	 B(4,7,10)        =         2.002486	     114.734016
	 B(5,7,6)         =         1.847716	     105.866318
	 B(5,7,10)        =         1.895031	     108.577267
	 B(6,7,10)        =         1.902289	     108.993145
	 B(7,10,8)        =         1.902289	     108.993113
	 B(7,10,9)        =         1.895029	     108.577170
	 B(7,10,14)       =         2.002487	     114.734067
	 B(8,10,9)        =         1.847717	     105.866362
	 B(8,10,14)       =         1.904621	     109.126744
	 B(9,10,14)       =         1.905416	     109.172304
	 B(10,14,11)      =         1.938902	     111.090927
	 B(10,14,12)      =         1.955112	     112.019676
	 B(10,14,13)      =         1.941830	     111.258660
	 B(11,14,12)      =         1.872283	     107.273896
	 B(11,14,13)      =         1.876214	     107.499126
	 B(12,14,13)      =         1.875726	     107.471208
	 D(1,4,7,5)       =        -3.043640	    -174.387752
	 D(1,4,7,6)       =        -1.031736	     -59.114109
	 D(1,4,7,10)      =         1.108341	      63.503262
	 D(2,4,7,5)       =        -0.950074	     -54.435209
	 D(2,4,7,6)       =         1.061831	      60.838433
	 D(2,4,7,10)      =        -3.081277	    -176.544196
	 D(3,4,7,5)       =         1.139553	      65.291574
	 D(3,4,7,6)       =        -3.131728	    -179.434784
	 D(3,4,7,10)      =        -0.991651	     -56.817412
	 D(4,7,10,8)      =         1.091651	      62.547015
	 D(4,7,10,9)      =         3.096676	     177.426456
	 D(4,7,10,14)     =        -1.049683	     -60.142415
	 D(5,7,10,8)      =        -1.045175	     -59.884143
	 D(5,7,10,9)      =         0.959849	      54.995298
	 D(5,7,10,14)     =         3.096675	     177.426427
	 D(6,7,10,8)      =        -3.050200	    -174.763601
	 D(6,7,10,9)      =        -1.045176	     -59.884160
	 D(6,7,10,14)     =         1.091651	      62.546969
	 D(7,10,14,11)    =        -3.081277	    -176.544156
	 D(7,10,14,12)    =         1.108341	      63.503244
	 D(7,10,14,13)    =        -0.991651	     -56.817397
	 D(8,10,14,11)    =         1.061831	      60.838459
	 D(8,10,14,12)    =        -1.031736	     -59.114141
	 D(8,10,14,13)    =        -3.131728	    -179.434782
	 D(9,10,14,11)    =        -0.950074	     -54.435255
	 D(9,10,14,12)    =        -3.043642	    -174.387855
	 D(9,10,14,13)    =         1.139552	      65.291505

	Current energy   :      -158.4573817783

	Energy change for the previous step:
		Projected    :        -0.0000019646
		Actual       :         0.0000010684

	Performing BFGS update.
	Previous computed or guess Hessian on step 1.
	Steps to be used in Hessian update: 7 6
	Adding user-defined constraint: Fragment 1; Coordinate 49:
		Value =    -1.049683; Fixed value    =    -1.047200
		Force =     0.001676; Force constant =     0.675000
	Removing off-diagonal coupling between coordinate 49 and others.
	Taking RFO optimization step.
	Going to follow RFO solution 1.
	Using RFO vector 1.
	Norm of target step-size    0.00358
	Projected energy change by RFO approximation:        -0.0000001753

	Back-transformation to cartesian coordinates...
	Could not converge backtransformation.
	Using first guess instead.

	--- Internal Coordinate Step in ANG or DEG, aJ/ANG or AJ/DEG ---
	 ---------------------------------------------------------------------------
	   Coordinate                Previous        Force       Change         New 
	   ----------                --------       ------       ------       ------
	    1 R(1,4)          =      1.102119    -0.000221    -0.000045     1.102074
	    2 R(2,4)          =      1.102272    -0.000189    -0.000040     1.102231
	    3 R(3,4)          =      1.104251    -0.000131    -0.000029     1.104222
	    4 R(4,7)          =      1.531938    -0.000054    -0.000002     1.531936
	    5 R(5,7)          =      1.104646    -0.000124    -0.000032     1.104614
	    6 R(6,7)          =      1.106605    -0.000026    -0.000015     1.106591
	    7 R(7,10)         =      1.537011     0.000158     0.000038     1.537049
	    8 R(8,10)         =      1.106605    -0.000027    -0.000015     1.106590
	    9 R(9,10)         =      1.104646    -0.000125    -0.000032     1.104614
	   10 R(10,14)        =      1.531938    -0.000056    -0.000003     1.531935
	   11 R(11,14)        =      1.102272    -0.000191    -0.000041     1.102231
	   12 R(12,14)        =      1.102119    -0.000221    -0.000045     1.102074
	   13 R(13,14)        =      1.104251    -0.000129    -0.000028     1.104223
	   14 B(1,4,2)        =    107.273893     0.000000     0.002645   107.276538
	   15 B(1,4,3)        =    107.471248     0.000000     0.001996   107.473244
	   16 B(1,4,7)        =    112.019651    -0.000001    -0.004192   112.015458
	   17 B(2,4,3)        =    107.499173     0.000000     0.001240   107.500413
	   18 B(2,4,7)        =    111.090875     0.000000     0.002435   111.093310
	   19 B(3,4,7)        =    111.258659    -0.000000    -0.003722   111.254938
	   20 B(4,7,5)        =    109.172296     0.000002    -0.012994   109.159302
	   21 B(4,7,6)        =    109.126718    -0.000003     0.004545   109.131263
	   22 B(4,7,10)       =    114.734016    -0.000000    -0.002820   114.731196
	   23 B(5,7,6)        =    105.866318     0.000000     0.002499   105.868818
	   24 B(5,7,10)       =    108.577267     0.000001     0.006469   108.583736
	   25 B(6,7,10)       =    108.993145    -0.000000     0.002735   108.995880
	   26 B(7,10,8)       =    108.993113    -0.000000     0.002770   108.995883
	   27 B(7,10,9)       =    108.577170     0.000001     0.006581   108.583751
	   28 B(7,10,14)      =    114.734067    -0.000000    -0.002891   114.731176
	   29 B(8,10,9)       =    105.866362     0.000000     0.002461   105.868824
	   30 B(8,10,14)      =    109.126744    -0.000003     0.004521   109.131265
	   31 B(9,10,14)      =    109.172304     0.000002    -0.013005   109.159299
	   32 B(10,14,11)     =    111.090927     0.000000     0.002377   111.093304
	   33 B(10,14,12)     =    112.019676    -0.000001    -0.004212   112.015465
	   34 B(10,14,13)     =    111.258660    -0.000000    -0.003714   111.254945
	   35 B(11,14,12)     =    107.273896     0.000000     0.002647   107.276544
	   36 B(11,14,13)     =    107.499126     0.000000     0.001285   107.500411
	   37 B(12,14,13)     =    107.471208     0.000000     0.002024   107.473232
	   38 D(1,4,7,5)      =   -174.387752     0.000000     0.042464  -174.345287
	   39 D(1,4,7,6)      =    -59.114109     0.000000     0.040819   -59.073290
	   40 D(1,4,7,10)     =     63.503262    -0.000000     0.045899    63.549161
	   41 D(2,4,7,5)      =    -54.435209     0.000000     0.044669   -54.390540
	   42 D(2,4,7,6)      =     60.838433     0.000000     0.043024    60.881457
	   43 D(2,4,7,10)     =   -176.544196    -0.000000     0.048104  -176.496092
	   44 D(3,4,7,5)      =     65.291574     0.000000     0.045383    65.336957
	   45 D(3,4,7,6)      =   -179.434784     0.000000     0.043737  -179.391047
	   46 D(3,4,7,10)     =    -56.817412    -0.000000     0.048817   -56.768596
	   47 D(4,7,10,8)     =     62.547015     0.000001     0.015224    62.562239
	   48 D(4,7,10,9)     =    177.426456     0.000001     0.023128   177.449583
	   49 D(4,7,10,14)    =    -60.142415     0.000002     0.009224   -60.133192
	   50 D(5,7,10,8)     =    -59.884143     0.000000     0.029150   -59.854993
	   51 D(5,7,10,9)     =     54.995298     0.000000     0.037054    55.032352
	   52 D(5,7,10,14)    =    177.426427     0.000001     0.023149   177.449577
	   53 D(6,7,10,8)     =   -174.763601     0.000000     0.021279  -174.742321
	   54 D(6,7,10,9)     =    -59.884160     0.000000     0.029183   -59.854977
	   55 D(6,7,10,14)    =     62.546969     0.000001     0.015279    62.562248
	   56 D(7,10,14,11)   =   -176.544156    -0.000000     0.048076  -176.496080
	   57 D(7,10,14,12)   =     63.503244    -0.000000     0.045922    63.549166
	   58 D(7,10,14,13)   =    -56.817397    -0.000000     0.048812   -56.768584
	   59 D(8,10,14,11)   =     60.838459     0.000000     0.043020    60.881479
	   60 D(8,10,14,12)   =    -59.114141     0.000000     0.040865   -59.073276
	   61 D(8,10,14,13)   =   -179.434782     0.000000     0.043756  -179.391026
	   62 D(9,10,14,11)   =    -54.435255     0.000000     0.044730   -54.390525
	   63 D(9,10,14,12)   =   -174.387855     0.000000     0.042575  -174.345279
	   64 D(9,10,14,13)   =     65.291505     0.000000     0.045466    65.336971
	 ---------------------------------------------------------------------------
	 Forces used to impose fixed constraints are not included.
	  Forces zeroed: 49 

  ==> Convergence Check <==

  Measures of convergence in internal coordinates in au.
  Criteria marked as inactive (o), active & met (*), and active & unmet ( ).
  ---------------------------------------------------------------------------------------------
   Step     Total Energy     Delta E     MAX Force     RMS Force      MAX Disp      RMS Disp   
  ---------------------------------------------------------------------------------------------
    Convergence Criteria    1.00e-06 *    3.00e-04 *             o    1.20e-03 *             o
  ---------------------------------------------------------------------------------------------
      8    -158.45738178    1.07e-06      5.68e-05 *    1.96e-05 o    8.52e-04 *    4.48e-04 o  ~
  ---------------------------------------------------------------------------------------------


  **** Optimization is complete! (in 8 steps) ****

  ==> Optimization Summary <==

  Measures of convergence in internal coordinates in au.
  --------------------------------------------------------------------------------------------------------------- ~
   Step         Total Energy             Delta E       MAX Force       RMS Force        MAX Disp        RMS Disp  ~
  --------------------------------------------------------------------------------------------------------------- ~
      1    -158.446009717989   -158.446009717989      0.02419493      0.01053789      0.03219032      0.01262106  ~
      2    -158.452593292936     -0.006583574947      0.01402674      0.00599124      0.02657007      0.01256949  ~
      3    -158.455903139965     -0.003309847029      0.00636543      0.00247770      0.02881850      0.01252725  ~
      4    -158.457036045810     -0.001132905845      0.00154865      0.00080997      0.02850662      0.01247698  ~
      5    -158.457333154917     -0.000297109107      0.00066567      0.00023110      0.02687603      0.01250293  ~
      6    -158.457378200911     -0.000045045993      0.00027829      0.00008525      0.01621947      0.00801322  ~
      7    -158.457382846696     -0.000004645785      0.00022671      0.00005617      0.00141513      0.00061828  ~
      8    -158.457381778288      0.000001068408      0.00009764      0.00002307      0.00085201      0.00044773  ~
  --------------------------------------------------------------------------------------------------------------- ~

	Writing optimization data to binary file.
	Final energy is   -158.4573817782878
	Final (previous) structure:
	Cartesian Geometry (in Angstrom)
	    H    -1.8636664024   0.4931300386   0.1624848922
	    H    -1.5517001156   2.0710828096  -0.5884320047
	    H    -1.3756644475   0.5816203860  -1.5459714202
	    C    -1.2094489525   1.0240724712  -0.5479838604
	    H     0.8651536618   1.5698112067  -0.8250614829
	    H     0.3901645373   1.3841995231   0.8640645190
	    C     0.2655312273   0.9415256521  -0.1424547429
	    H     0.8148721724  -0.8856700397  -1.1689376630
	    H     1.9253040218  -0.4153858208   0.1190800254
	    C     0.8534899663  -0.4785816685  -0.1406561616
	    H     0.6675835656  -2.4368462565   0.8121129357
	    H    -0.8902539696  -1.6324384889   0.5342539190
	    H     0.1710955380  -1.0799562966   1.8507253685
	    C     0.1615727683  -1.4575835177   0.8130950862
	Saving final (previous) structure.
			--------------------------
			 OPTKING Finished Execution 
			--------------------------

    Final optimized geometry and variables:
    Molecular point group: c1
    Full point group: C1

    Geometry (in Angstrom), charge = 0, multiplicity = 1:

    H           -1.863666402428     0.493130038621     0.162484892158
    H           -1.551700115590     2.071082809584    -0.588432004695
    H           -1.375664447458     0.581620386015    -1.545971420182
    C           -1.209448952500     1.024072471155    -0.547983860369
    H            0.865153661762     1.569811206718    -0.825061482876
    H            0.390164537265     1.384199523121     0.864064518999
    C            0.265531227329     0.941525652062    -0.142454742867
    H            0.814872172406    -0.885670039703    -1.168937663023
    H            1.925304021790    -0.415385820848     0.119080025430
    C            0.853489966261    -0.478581668527    -0.140656161571
    H            0.667583565610    -2.436846256531     0.812112935678
    H           -0.890253969603    -1.632438488909     0.534253919020
    H            0.171095538024    -1.079956296578     1.850725368531
    C            0.161572768276    -1.457583517692     0.813095086241

	Cleaning optimization helper files.

*** Psi4 exiting successfully. Buy a developer a beer!
