    -----------------------------------------------------------------------
          Psi4: An Open-Source Ab Initio Electronic Structure Package
                              Psi4 1.0.0 Driver

                          Git: Rev {master} 6a9a71b 

    J. M. Turney, A. C. Simmonett, R. M. Parrish, E. G. Hohenstein,
    F. A. Evangelista, J. T. Fermann, B. J. Mintz, L. A. Burns, J. J. Wilke,
    M. L. Abrams, N. J. Russ, M. L. Leininger, C. L. Janssen, E. T. Seidl,
    W. D. Allen, H. F. Schaefer, R. A. King, E. F. Valeev, C. D. Sherrill,
    and T. D. Crawford, WIREs Comput. Mol. Sci. 2, 556-565 (2012)
    (doi: 10.1002/wcms.93)

                         Additional Contributions by
    A. E. DePrince, U. Bozkaya, A. Yu. Sokolov, D. G. A. Smith, R. Di Remigio,
    R. M. Richard, J. F. Gonthier, H. R. McAlexander, M. Saitow, and
    B. P. Pritchard
    -----------------------------------------------------------------------


    Psi4 started on: Tue Feb 21 18:22:04 2017

    Process ID:  37275
    PSI4DATADIR: /Users/sternc1/anaconda/share/psi4
    Memory level set to 256.000 MB

  ==> Input File <==

--------------------------------------------------------------------------

memory 1000 mb

molecule butane {
  symmetry C1
  0 1 
  H      1.604   0.760   -8.260
  H      1.745   2.388   -8.880
  H      2.043   1.024   -9.930
  C      2.142   1.395   -8.932
  H      4.169   2.051   -9.210
  H      3.731   1.788   -7.539
  C      3.631   1.416   -8.537
  H      3.808   -0.509   -9.473
  H      5.269   0.034   -8.685
  C      4.203   -0.012   -8.612
  H      4.207   -1.783   -7.396
  H      2.743   -0.837   -7.270
  H      4.204   -0.294   -6.482
  C      3.809   -0.791   -7.344
  units Angstrom
}

dih_string = "4 7 10 14 280"
set optking fixed_dihedral = $dih_string

optimize('B3LYP/cc-PVDZ')
--------------------------------------------------------------------------

  Memory set to 1000.000 MiB by Python script.
gradient() will perform analytic gradient computation.

*** tstart() called on lski1497
*** at Tue Feb 21 18:22:06 2017


         ---------------------------------------------------------
                                   SCF
            by Justin Turney, Rob Parrish, and Andy Simmonett
                              RKS Reference
                        1 Threads,   1000 MiB Core
         ---------------------------------------------------------

  ==> Geometry <==

    Molecular point group: c1
    Full point group: C1

    Geometry (in Angstrom), charge = 0, multiplicity = 1:

       Center              X                  Y                   Z               Mass       
    ------------   -----------------  -----------------  -----------------  -----------------
           H         -1.825946967240     0.264906447087     0.088658114069     1.007825032070
           H         -1.684946967240     1.892906447087    -0.531341885931     1.007825032070
           H         -1.386946967240     0.528906447087    -1.581341885931     1.007825032070
           C         -1.287946967240     0.899906447087    -0.583341885931    12.000000000000
           H          0.739053032760     1.555906447087    -0.861341885931     1.007825032070
           H          0.301053032760     1.292906447087     0.809658114069     1.007825032070
           C          0.201053032760     0.920906447087    -0.188341885931    12.000000000000
           H          0.378053032760    -1.004093552913    -1.124341885931     1.007825032070
           H          1.839053032760    -0.461093552913    -0.336341885931     1.007825032070
           C          0.773053032760    -0.507093552913    -0.263341885931    12.000000000000
           H          0.777053032760    -2.278093552913     0.952658114069     1.007825032070
           H         -0.686946967240    -1.332093552913     1.078658114069     1.007825032070
           H          0.774053032760    -0.789093552913     1.866658114069     1.007825032070
           C          0.379053032760    -1.286093552913     1.004658114069    12.000000000000

  Running in c1 symmetry.

  Rotational constants: A =      0.45823  B =      0.15809  C =      0.14031 [cm^-1]
  Rotational constants: A =  13737.26589  B =   4739.30402  C =   4206.46424 [MHz]
  Nuclear repulsion =  133.858461044843381

  Charge       = 0
  Multiplicity = 1
  Electrons    = 34
  Nalpha       = 17
  Nbeta        = 17

  ==> Algorithm <==

  SCF Algorithm Type is DF.
  DIIS enabled.
  MOM disabled.
  Fractional occupation disabled.
  Guess Type is SAD.
  Energy threshold   = 1.00e-08
  Density threshold  = 1.00e-08
  Integral threshold = 0.00e+00

  ==> Primary Basis <==

  Basis Set: CC-PVDZ
    Number of shells: 54
    Number of basis function: 106
    Number of Cartesian functions: 110
    Spherical Harmonics?: true
    Max angular momentum: 2

  ==> DFT Potential <==

   => B3LYP Composite Functional <= 

    B3LYP Hybrid-GGA Exchange-Correlation Functional (VWN1-RPA)

    P.J. Stephens et. al., J. Phys. Chem., 98, 11623-11627, 1994

    Points   =           5000
    Deriv    =              1
    GGA      =           TRUE
    Meta     =          FALSE

    X_LRC        =          FALSE
    X_Hybrid     =           TRUE
    X_Alpha      =   2.000000E-01
    X_Omega      =   0.000000E+00
    C_LRC        =          FALSE
    C_Hybrid     =          FALSE
    C_Alpha      =   0.000000E+00
    C_Omega      =   0.000000E+00

   => Exchange Functionals <=

    0.8000    B3_X
    0.2000      HF 

   => Correlation Functionals <=

    0.1900 VWN3RPA_C
    0.8100   LYP_C

   => Molecular Quadrature <=

    Radial Scheme    =       TREUTLER
    Pruning Scheme   =           FLAT
    Nuclear Scheme   =       TREUTLER

    BS radius alpha  =              1
    Pruning alpha    =              1
    Radial Points    =             75
    Spherical Points =            302
    Total Points     =         312750
    Total Blocks     =            268
    Max Points       =           4984
    Max Functions    =            106

  ==> Pre-Iterations <==

   -------------------------------------------------------
    Irrep   Nso     Nmo     Nalpha   Nbeta   Ndocc  Nsocc
   -------------------------------------------------------
     A        106     106       0       0       0       0
   -------------------------------------------------------
    Total     106     106      17      17      17       0
   -------------------------------------------------------

  ==> Integral Setup <==

  ==> DFJK: Density-Fitted J/K Matrices <==

    J tasked:                  Yes
    K tasked:                  Yes
    wK tasked:                  No
    OpenMP threads:              1
    Integrals threads:           1
    Memory (MB):               715
    Algorithm:                Core
    Integral Cache:           NONE
    Schwarz Cutoff:          1E-12
    Fitting Condition:       1E-12

   => Auxiliary Basis Set <=

  Basis Set: 
    Number of shells: 186
    Number of basis function: 510
    Number of Cartesian functions: 574
    Spherical Harmonics?: true
    Max angular momentum: 3

  Minimum eigenvalue in the overlap matrix is 5.0471161468E-03.
  Using Symmetric Orthogonalization.
  SCF Guess: Superposition of Atomic Densities via on-the-fly atomic UHF.

  ==> Iterations <==

                           Total Energy        Delta E     RMS |[F,P]|

   @DF-RKS iter   0:  -159.03073414475827   -1.59031e+02   3.37414e-02 
   @DF-RKS iter   1:  -158.28100105573719    7.49733e-01   5.08262e-03 
   @DF-RKS iter   2:  -158.22096070395975    6.00404e-02   6.05114e-03 DIIS
   @DF-RKS iter   3:  -158.44614103616797   -2.25180e-01   3.79212e-04 DIIS
   @DF-RKS iter   4:  -158.44694536726666   -8.04331e-04   1.17946e-04 DIIS
   @DF-RKS iter   5:  -158.44701315047288   -6.77832e-05   4.77727e-05 DIIS
   @DF-RKS iter   6:  -158.44702554895306   -1.23985e-05   6.76524e-06 DIIS
   @DF-RKS iter   7:  -158.44702583095943   -2.82006e-07   1.01864e-06 DIIS
   @DF-RKS iter   8:  -158.44702583795529   -6.99586e-09   1.26478e-07 DIIS
   @DF-RKS iter   9:  -158.44702583804360   -8.83063e-11   5.85685e-08 DIIS
   @DF-RKS iter  10:  -158.44702583806105   -1.74509e-11   1.77770e-08 DIIS
   @DF-RKS iter  11:  -158.44702583806321   -2.16005e-12   1.84290e-09 DIIS

  ==> Post-Iterations <==

    Orbital Energies (a.u.)
    -----------------------

    Doubly Occupied:                                                      

       1A    -10.169855     2A    -10.169630     3A    -10.164433  
       4A    -10.164385     5A     -0.796126     6A     -0.719874  
       7A     -0.638591     8A     -0.573485     9A     -0.460526  
      10A     -0.454962    11A     -0.420079    12A     -0.384853  
      13A     -0.378090    14A     -0.360054    15A     -0.332865  
      16A     -0.319534    17A     -0.314743  

    Virtual:                                                              

      18A      0.064600    19A      0.097964    20A      0.098339  
      21A      0.107286    22A      0.135539    23A      0.147661  
      24A      0.153140    25A      0.162231    26A      0.163315  
      27A      0.204227    28A      0.223014    29A      0.245303  
      30A      0.259548    31A      0.410116    32A      0.412227  
      33A      0.432626    34A      0.438305    35A      0.444929  
      36A      0.469506    37A      0.531590    38A      0.599050  
      39A      0.609001    40A      0.631355    41A      0.643776  
      42A      0.657596    43A      0.666215    44A      0.671238  
      45A      0.678026    46A      0.695491    47A      0.699888  
      48A      0.709632    49A      0.715905    50A      0.741842  
      51A      0.761925    52A      0.803034    53A      0.890534  
      54A      0.906428    55A      0.965094    56A      1.118650  
      57A      1.134880    58A      1.198669    59A      1.200416  
      60A      1.260529    61A      1.381646    62A      1.393320  
      63A      1.439793    64A      1.440384    65A      1.457451  
      66A      1.485639    67A      1.570372    68A      1.588954  
      69A      1.634053    70A      1.639705    71A      1.645592  
      72A      1.667816    73A      1.680627    74A      1.687323  
      75A      1.693636    76A      1.711712    77A      1.718747  
      78A      1.729588    79A      1.753854    80A      1.762851  
      81A      1.797278    82A      1.858705    83A      1.887194  
      84A      1.913337    85A      1.991923    86A      2.015231  
      87A      2.029954    88A      2.040878    89A      2.109620  
      90A      2.166878    91A      2.246537    92A      2.263179  
      93A      2.288968    94A      2.307193    95A      2.343681  
      96A      2.376955    97A      2.488838    98A      2.502079  
      99A      2.516596   100A      2.534162   101A      2.535979  
     102A      2.598041   103A      2.650929   104A      2.669041  
     105A      2.717549   106A      2.772378  

    Final Occupation by Irrep:
              A 
    DOCC [    17 ]

  Energy converged.

  @DF-RKS Final Energy:  -158.44702583806321

   => Energetics <=

    Nuclear Repulsion Energy =            133.8584610448433807
    One-Electron Energy =                -476.1007969860203843
    Two-Electron Energy =                 204.4766853325810132
    DFT Exchange-Correlation Energy =     -20.6813752294672462
    Empirical Dispersion Energy =           0.0000000000000000
    PCM Polarization Energy =               0.0000000000000000
    EFP Energy =                            0.0000000000000000
    Total Energy =                       -158.4470258380632117


  Saving occupied orbitals to File 180.

*** tstop() called on lski1497 at Tue Feb 21 18:24:17 2017
Module time:
	user time   =     118.11 seconds =       1.97 minutes
	system time =       1.42 seconds =       0.02 minutes
	total time  =        131 seconds =       2.18 minutes
Total time:
	user time   =     118.11 seconds =       1.97 minutes
	system time =       1.42 seconds =       0.02 minutes
	total time  =        131 seconds =       2.18 minutes


Properties will be evaluated at   0.000000,   0.000000,   0.000000 Bohr

Properties computed using the SCF density matrix

  Nuclear Dipole Moment: (a.u.)
     X:    -0.7279      Y:    -0.3084      Z:     0.3390

  Electronic Dipole Moment: (a.u.)
     X:     0.7534      Y:     0.3189      Z:    -0.3511

  Dipole Moment: (a.u.)
     X:     0.0255      Y:     0.0105      Z:    -0.0121     Total:     0.0301

  Dipole Moment: (Debye)
     X:     0.0647      Y:     0.0268      Z:    -0.0307     Total:     0.0765


*** tstart() called on lski1497
*** at Tue Feb 21 18:24:17 2017


         ------------------------------------------------------------
                                   SCF GRAD                          
                          Rob Parrish, Justin Turney,                
                       Andy Simmonett, and Alex Sokolov              
         ------------------------------------------------------------

  ==> Geometry <==

    Molecular point group: c1
    Full point group: C1

    Geometry (in Angstrom), charge = 0, multiplicity = 1:

       Center              X                  Y                   Z               Mass       
    ------------   -----------------  -----------------  -----------------  -----------------
           H         -1.825946967240     0.264906447087     0.088658114069     1.007825032070
           H         -1.684946967240     1.892906447087    -0.531341885931     1.007825032070
           H         -1.386946967240     0.528906447087    -1.581341885931     1.007825032070
           C         -1.287946967240     0.899906447087    -0.583341885931    12.000000000000
           H          0.739053032760     1.555906447087    -0.861341885931     1.007825032070
           H          0.301053032760     1.292906447087     0.809658114069     1.007825032070
           C          0.201053032760     0.920906447087    -0.188341885931    12.000000000000
           H          0.378053032760    -1.004093552913    -1.124341885931     1.007825032070
           H          1.839053032760    -0.461093552913    -0.336341885931     1.007825032070
           C          0.773053032760    -0.507093552913    -0.263341885931    12.000000000000
           H          0.777053032760    -2.278093552913     0.952658114069     1.007825032070
           H         -0.686946967240    -1.332093552913     1.078658114069     1.007825032070
           H          0.774053032760    -0.789093552913     1.866658114069     1.007825032070
           C          0.379053032760    -1.286093552913     1.004658114069    12.000000000000

  Nuclear repulsion =  133.858461044843381

  ==> Basis Set <==

  Basis Set: CC-PVDZ
    Number of shells: 54
    Number of basis function: 106
    Number of Cartesian functions: 110
    Spherical Harmonics?: true
    Max angular momentum: 2

  ==> DFJKGrad: Density-Fitted SCF Gradients <==

    Gradient:                    1
    J tasked:                  Yes
    K tasked:                  Yes
    wK tasked:                  No
    OpenMP threads:              1
    Integrals threads:           1
    Memory (MB):               715
    Schwarz Cutoff:          0E+00
    Fitting Condition:       1E-12

   => Auxiliary Basis Set <=

  Basis Set: 
    Number of shells: 186
    Number of basis function: 510
    Number of Cartesian functions: 574
    Spherical Harmonics?: true
    Max angular momentum: 3

  ==> DFT Potential <==

   => B3LYP Composite Functional <= 

    B3LYP Hybrid-GGA Exchange-Correlation Functional (VWN1-RPA)

    P.J. Stephens et. al., J. Phys. Chem., 98, 11623-11627, 1994

    Points   =           5000
    Deriv    =              1
    GGA      =           TRUE
    Meta     =          FALSE

    X_LRC        =          FALSE
    X_Hybrid     =           TRUE
    X_Alpha      =   2.000000E-01
    X_Omega      =   0.000000E+00
    C_LRC        =          FALSE
    C_Hybrid     =          FALSE
    C_Alpha      =   0.000000E+00
    C_Omega      =   0.000000E+00

   => Exchange Functionals <=

    0.8000    B3_X
    0.2000      HF 

   => Correlation Functionals <=

    0.1900 VWN3RPA_C
    0.8100   LYP_C

   => Molecular Quadrature <=

    Radial Scheme    =       TREUTLER
    Pruning Scheme   =           FLAT
    Nuclear Scheme   =       TREUTLER

    BS radius alpha  =              1
    Pruning alpha    =              1
    Radial Points    =             75
    Spherical Points =            302
    Total Points     =         312750
    Total Blocks     =            268
    Max Points       =           4984
    Max Functions    =            106


  -Total Gradient:
     Atom            X                  Y                   Z
    ------   -----------------  -----------------  -----------------
       1        0.014898490925     0.011895644356    -0.011755822988
       2        0.012643877637    -0.018655400872    -0.000140641447
       3        0.005055121002     0.007420040825     0.021254909586
       4       -0.028767855706    -0.008110429381    -0.010173624105
       5       -0.011083839699    -0.016048523970     0.012321965751
       6       -0.004992695377    -0.010689378033    -0.020476768501
       7        0.018545746235     0.028601739482     0.017566385648
       8        0.004955088181     0.010641419156     0.020574077263
       9       -0.023378466763     0.001577029939     0.003432271532
      10        0.014386370001    -0.014968929106    -0.032200367585
      11       -0.005910853190     0.021970373809    -0.003011018170
      12        0.021629488078     0.003631673439    -0.005071162518
      13       -0.007176546144    -0.008013816161    -0.019417103476
      14       -0.010790745116    -0.009246191027     0.027090873135


*** tstop() called on lski1497 at Tue Feb 21 18:25:03 2017
Module time:
	user time   =      40.64 seconds =       0.68 minutes
	system time =       0.65 seconds =       0.01 minutes
	total time  =         46 seconds =       0.77 minutes
Total time:
	user time   =     158.77 seconds =       2.65 minutes
	system time =       2.07 seconds =       0.03 minutes
	total time  =        177 seconds =       2.95 minutes

			-----------------------------------------
			 OPTKING 2.0: for geometry optimizations 
			  - R.A. King,  Bethel University        
			-----------------------------------------

	Internal coordinates to be generated automatically.
	Detected frag 1 with atoms:  1 2 3 4 5 6 7 8 9 10 11 12 13 14
	---Fragment 1 Bond Connectivity---
	 1 : 4
	 2 : 4
	 3 : 4
	 4 : 1 2 3 7
	 5 : 7
	 6 : 7
	 7 : 4 5 6 10
	 8 : 10
	 9 : 10
	 10 : 7 8 9 14
	 11 : 14
	 12 : 14
	 13 : 14
	 14 : 10 11 12 13

	Assuming in current code that numbering for constraints corresponds to unified fragment.
	Fixed dihedral atom list: 
	     4     7    10    14
	---Fragment 1 Geometry and Gradient---
	 H          -3.4505397013        0.5006006358        0.1675395550
	 H          -3.1840883165        3.5770747802       -1.0040906473
	 H          -2.6209499289        0.9994883349       -2.9883030869
	 C          -2.4338670418        1.7005767302       -1.1023564063
	 H           1.3966078296        2.9402370734       -1.6277002712
	 H           0.5689077834        2.4432391004        1.5300320969
	 C           0.3799351701        1.7402609790       -0.3559145838
	 H           0.7144166956       -1.8974618268       -2.1246982441
	 H           3.4753065758       -0.8713405366       -0.6355940514
	 C           1.4608585181       -0.9582679388       -0.4976440437
	 H           1.4684174226       -4.3049729201        1.8002629339
	 H          -1.2981416359       -2.5172919984        2.0383684266
	 H           1.4627482442       -1.4911707082        3.5274726193
	 C           0.7163064218       -2.4303645963        1.8985286928
	             0.0148984909        0.0118956444       -0.0117558230
	             0.0126438776       -0.0186554009       -0.0001406414
	             0.0050551210        0.0074200408        0.0212549096
	            -0.0287678557       -0.0081104294       -0.0101736241
	            -0.0110838397       -0.0160485240        0.0123219658
	            -0.0049926954       -0.0106893780       -0.0204767685
	             0.0185457462        0.0286017395        0.0175663856
	             0.0049550882        0.0106414192        0.0205740773
	            -0.0233784668        0.0015770299        0.0034322715
	             0.0143863700       -0.0149689291       -0.0322003676
	            -0.0059108532        0.0219703738       -0.0030110182
	             0.0216294881        0.0036316734       -0.0050711625
	            -0.0071765461       -0.0080138162       -0.0194171035
	            -0.0107907451       -0.0092461910        0.0270908731

	Previous optimization step data not found.  Starting new optimization.

	---Fragment 1 Intrafragment Coordinates---
	 - Coordinate -           - BOHR/RAD -       - ANG/DEG -
	 R(1,4)           =         2.021436	       1.069698
	 R(2,4)           =         2.023298	       1.070683
	 R(3,4)           =         2.020723	       1.069320
	 R(4,7)           =         2.911397	       1.540645
	 R(5,7)           =         2.022623	       1.070326
	 R(6,7)           =         2.021555	       1.069761
	 R(7,10)          =         2.910419	       1.540128
	 R(8,10)          =         2.021526	       1.069745
	 R(9,10)          =         2.021036	       1.069486
	 R(10,14)         =         2.909136	       1.539448
	 R(11,14)         =         2.022247	       1.070127
	 R(12,14)         =         2.021166	       1.069555
	 R(13,14)         =         2.023047	       1.070550
	 B(1,4,2)         =         1.910870	     109.484805
	 B(1,4,3)         =         1.911121	     109.499161
	 B(1,4,7)         =         1.910399	     109.457783
	 B(2,4,3)         =         1.910042	     109.437340
	 B(2,4,7)         =         1.910564	     109.467262
	 B(3,4,7)         =         1.910803	     109.480971
	 B(4,7,5)         =         1.909937	     109.431343
	 B(4,7,6)         =         1.911630	     109.528316
	 B(4,7,10)        =         1.911154	     109.501062
	 B(5,7,6)         =         1.910605	     109.469614
	 B(5,7,10)        =         1.910047	     109.437654
	 B(6,7,10)        =         1.910425	     109.459295
	 B(7,10,8)        =         1.910099	     109.440593
	 B(7,10,9)        =         1.910949	     109.489320
	 B(7,10,14)       =         1.911362	     109.512965
	 B(8,10,9)        =         1.910373	     109.456331
	 B(8,10,14)       =         1.910643	     109.471804
	 B(9,10,14)       =         1.910373	     109.456298
	 B(10,14,11)      =         1.911203	     109.503867
	 B(10,14,12)      =         1.911167	     109.501800
	 B(10,14,13)      =         1.911194	     109.503331
	 B(11,14,12)      =         1.911527	     109.522416
	 B(11,14,13)      =         1.909488	     109.405617
	 B(12,14,13)      =         1.909219	     109.390204
	 D(1,4,7,5)       =         3.140997	     179.965873
	 D(1,4,7,6)       =        -1.047644	     -60.025575
	 D(1,4,7,10)      =         1.047427	      60.013132
	 D(2,4,7,5)       =        -1.047689	     -60.028143
	 D(2,4,7,6)       =         1.046856	      59.980409
	 D(2,4,7,10)      =        -3.141259	    -179.980883
	 D(3,4,7,5)       =         1.046044	      59.933911
	 D(3,4,7,6)       =         3.140588	     179.942463
	 D(3,4,7,10)      =        -1.047526	     -60.018830
	 D(4,7,10,8)      =         0.698599	      40.026778
	 D(4,7,10,9)      =         2.792542	     160.000869
	 D(4,7,10,14)     =        -1.395927	     -79.980731
	 D(5,7,10,8)      =        -1.394904	     -79.922097
	 D(5,7,10,9)      =         0.699039	      40.051993
	 D(5,7,10,14)     =         2.793755	     160.070394
	 D(6,7,10,8)      =         2.794407	     160.107704
	 D(6,7,10,9)      =        -1.394836	     -79.918205
	 D(6,7,10,14)     =         0.699880	      40.100195
	 D(7,10,14,11)    =        -3.141013	    -179.966809
	 D(7,10,14,12)    =         1.046005	      59.931664
	 D(7,10,14,13)    =        -1.047328	     -60.007498
	 D(8,10,14,11)    =         1.047979	      60.044781
	 D(8,10,14,12)    =        -1.048188	     -60.056747
	 D(8,10,14,13)    =        -3.141521	    -179.995908
	 D(9,10,14,11)    =        -1.045945	     -59.928209
	 D(9,10,14,12)    =         3.141074	     179.970264
	 D(9,10,14,13)    =         1.047740	      60.031102

	Current energy   :      -158.4470258381

	Generating empirical Hessian (Schlegel '84) for each fragment.
	Adding user-defined constraint: Fragment 1; Coordinate 49:
		Value =    -1.395927; Fixed value    =    -1.396263
		Force =    -0.000168; Force constant =     0.500000
	Removing off-diagonal coupling between coordinate 49 and others.
	Taking RFO optimization step.
	Going to follow RFO solution 1.
	Using RFO vector 1.

	Determining step-restricting scale parameter for RS-RFO.
	Maximum step size allowed    0.10000

	 Iter      |step|        alpha        rfo_root  
	------------------------------------------------
	    0     0.26287       1.00000           1
	    1     0.19260       6.31370           1
	    2     0.14251      19.85101           1
	    3     0.11400      39.43035           1
	    4     0.10234      53.37906           1
	    5     0.10009      56.72703           1
	    6     0.10000      56.85813           1
	------------------------------------------------
	Norm of target step-size    0.10000
	Projected energy change by RFO approximation:        -0.0076191602

	Back-transformation to cartesian coordinates...
	Successfully converged to displaced geometry.

	--- Internal Coordinate Step in ANG or DEG, aJ/ANG or AJ/DEG ---
	 ---------------------------------------------------------------------------
	   Coordinate                Previous        Force       Change         New 
	   ----------                --------       ------       ------       ------
	    1 R(1,4)          =      1.069698     0.180748     0.014363     1.084060
	    2 R(2,4)          =      1.070683     0.181220     0.014422     1.085105
	    3 R(3,4)          =      1.069320     0.188512     0.014971     1.084291
	    4 R(4,7)          =      1.540645     0.027922     0.002490     1.543135
	    5 R(5,7)          =      1.070326     0.188185     0.014968     1.085294
	    6 R(6,7)          =      1.069761     0.191848     0.015246     1.085007
	    7 R(7,10)         =      1.540128     0.058469     0.005211     1.545338
	    8 R(8,10)         =      1.069745     0.192227     0.015276     1.085021
	    9 R(9,10)         =      1.069486     0.193362     0.015360     1.084846
	   10 R(10,14)        =      1.539448     0.032796     0.002920     1.542369
	   11 R(11,14)        =      1.070127     0.184692     0.014686     1.084813
	   12 R(12,14)        =      1.069555     0.181776     0.014441     1.083996
	   13 R(13,14)        =      1.070550     0.181288     0.014425     1.084975
	   14 B(1,4,2)        =    109.484805    -0.000379    -0.482453   109.002352
	   15 B(1,4,3)        =    109.499161    -0.000275    -0.346936   109.152226
	   16 B(1,4,7)        =    109.457783     0.000364     0.458857   109.916639
	   17 B(2,4,3)        =    109.437340    -0.000295    -0.370416   109.066924
	   18 B(2,4,7)        =    109.467262     0.000414     0.524354   109.991616
	   19 B(3,4,7)        =    109.480971     0.000172     0.208084   109.689055
	   20 B(4,7,5)        =    109.431343    -0.000322    -0.369100   109.062243
	   21 B(4,7,6)        =    109.528316    -0.000215    -0.233966   109.294350
	   22 B(4,7,10)       =    109.501062     0.000994     1.175986   110.677048
	   23 B(5,7,6)        =    109.469614     0.000016    -0.075072   109.394541
	   24 B(5,7,10)       =    109.437654    -0.000178    -0.174256   109.263398
	   25 B(6,7,10)       =    109.459295    -0.000296    -0.328117   109.131178
	   26 B(7,10,8)       =    109.440593    -0.000297    -0.329281   109.111312
	   27 B(7,10,9)       =    109.489320    -0.000183    -0.181901   109.307419
	   28 B(7,10,14)      =    109.512965     0.000995     1.177035   110.690000
	   29 B(8,10,9)       =    109.456331     0.000017    -0.074448   109.381883
	   30 B(8,10,14)      =    109.471804    -0.000210    -0.226700   109.245104
	   31 B(9,10,14)      =    109.456298    -0.000323    -0.369562   109.086736
	   32 B(10,14,11)     =    109.503867     0.000413     0.523114   110.026981
	   33 B(10,14,12)     =    109.501800     0.000358     0.451300   109.953100
	   34 B(10,14,13)     =    109.503331     0.000169     0.204657   109.707988
	   35 B(11,14,12)     =    109.522416    -0.000381    -0.484704   109.037712
	   36 B(11,14,13)     =    109.405617    -0.000294    -0.368576   109.037041
	   37 B(12,14,13)     =    109.390204    -0.000267    -0.335817   109.054388
	   38 D(1,4,7,5)      =    179.965873     0.000035     0.224008   180.189881
	   39 D(1,4,7,6)      =    -60.025575    -0.000035    -0.232497   -60.258072
	   40 D(1,4,7,10)     =     60.013132    -0.000009    -0.054791    59.958342
	   41 D(2,4,7,5)      =    -60.028143     0.000038     0.240655   -59.787487
	   42 D(2,4,7,6)      =     59.980409    -0.000033    -0.215849    59.764560
	   43 D(2,4,7,10)     =   -179.980883    -0.000006    -0.038143  -180.019026
	   44 D(3,4,7,5)      =     59.933911     0.000037     0.238054    60.171964
	   45 D(3,4,7,6)      =    179.942463    -0.000034    -0.218451   179.724012
	   46 D(3,4,7,10)     =    -60.018830    -0.000007    -0.040745   -60.059575
	   47 D(4,7,10,8)     =     40.026778     0.000035     0.237198    40.263976
	   48 D(4,7,10,9)     =    160.000869    -0.000027    -0.163054   159.837816
	   49 D(4,7,10,14)    =    -79.980731    -0.000004    -0.003601   -79.984331
	   50 D(5,7,10,8)     =    -79.922097     0.000011     0.074779   -79.847319
	   51 D(5,7,10,9)     =     40.051993    -0.000051    -0.325473    39.726521
	   52 D(5,7,10,14)    =    160.070394    -0.000028    -0.166020   159.904374
	   53 D(6,7,10,8)     =    160.107704     0.000073     0.470132   160.577836
	   54 D(6,7,10,9)     =    -79.918205     0.000011     0.069880   -79.848325
	   55 D(6,7,10,14)    =     40.100195     0.000034     0.229333    40.329528
	   56 D(7,10,14,11)   =   -179.966809    -0.000006    -0.037013  -180.003822
	   57 D(7,10,14,12)   =     59.931664    -0.000008    -0.047120    59.884544
	   58 D(7,10,14,13)   =    -60.007498    -0.000007    -0.039824   -60.047322
	   59 D(8,10,14,11)   =     60.044781    -0.000033    -0.216983    59.827798
	   60 D(8,10,14,12)   =    -60.056747    -0.000035    -0.227090   -60.283837
	   61 D(8,10,14,13)   =   -179.995908    -0.000034    -0.219794  -180.215702
	   62 D(9,10,14,11)   =    -59.928209     0.000037     0.234028   -59.694181
	   63 D(9,10,14,12)   =    179.970264     0.000035     0.223921   180.194185
	   64 D(9,10,14,13)   =     60.031102     0.000036     0.231217    60.262320
	 ---------------------------------------------------------------------------
	 Forces used to impose fixed constraints are not included.
	  Forces zeroed: 49 

  ==> Convergence Check <==

  Measures of convergence in internal coordinates in au.
  Criteria marked as inactive (o), active & met (*), and active & unmet ( ).
  --------------------------------------------------------------------------------------------- ~
   Step     Total Energy     Delta E     MAX Force     RMS Force      MAX Disp      RMS Disp    ~
  --------------------------------------------------------------------------------------------- ~
    Convergence Criteria    1.00e-06 *    3.00e-04 *             o    1.20e-03 *             o  ~
  --------------------------------------------------------------------------------------------- ~
      1    -158.44702584   -1.58e+02      2.35e-02      9.64e-03 o    2.90e-02      1.25e-02 o  ~
  ---------------------------------------------------------------------------------------------

	Writing optimization data to binary file.
	Structure for next step:
	Cartesian Geometry (in Angstrom)
	    H    -1.8622144851   0.2796975561   0.0719721247
	    H    -1.7019047722   1.9125485120  -0.5813075599
	    H    -1.4002868711   0.5135095202  -1.6174364024
	    C    -1.2994153332   0.9053011372  -0.6114486133
	    H     0.7386733026   1.5519077244  -0.8963320433
	    H     0.2834100375   1.3172400616   0.7992011910
	    C     0.1894299408   0.9197498091  -0.2059899933
	    H     0.3921368931  -1.0297747742  -1.1123785772
	    H     1.8600283965  -0.4483471656  -0.3107190139
	    C     0.7789496575  -0.5082419388  -0.2430969723
	    H     0.8146695732  -2.2892202655   0.9932546102
	    H    -0.6829340784  -1.3605031507   1.1102636804
	    H     0.7824260240  -0.7759348966   1.9047046137
	    C     0.3957741734  -1.2892418700   1.0305265528
			--------------------------
			 OPTKING Finished Execution 
			--------------------------

    Structure for next step:
    Molecular point group: c1
    Full point group: C1

    Geometry (in Angstrom), charge = 0, multiplicity = 1:

    H           -1.862124831677     0.279708656671     0.071904269863
    H           -1.701815118862     1.912559612579    -0.581375414669
    H           -1.400197217755     0.513520620741    -1.617504257238
    C           -1.299325679841     0.905312237699    -0.611516468047
    H            0.738762955990     1.551918824910    -0.896399898131
    H            0.283499690882     1.317251162153     0.799133336196
    C            0.189519594205     0.919760909681    -0.206057848135
    H            0.392226546495    -1.029763673697    -1.112446431970
    H            1.860118049888    -0.448336065069    -0.310786868737
    C            0.779039310876    -0.508230838260    -0.243164827139
    H            0.814759226596    -2.289209164926     0.993186755373
    H           -0.682844425047    -1.360492050178     1.110195825601
    H            0.782515677379    -0.775923796057     1.904636758914
    C            0.395863826772    -1.289230769422     1.030458697976

gradient() will perform analytic gradient computation.

*** tstart() called on lski1497
*** at Tue Feb 21 18:25:04 2017


         ---------------------------------------------------------
                                   SCF
            by Justin Turney, Rob Parrish, and Andy Simmonett
                              RKS Reference
                        1 Threads,   1000 MiB Core
         ---------------------------------------------------------

  ==> Geometry <==

    Molecular point group: c1
    Full point group: C1

    Geometry (in Angstrom), charge = 0, multiplicity = 1:

       Center              X                  Y                   Z               Mass       
    ------------   -----------------  -----------------  -----------------  -----------------
           H         -1.862124831677     0.279708656671     0.071904269863     1.007825032070
           H         -1.701815118862     1.912559612579    -0.581375414669     1.007825032070
           H         -1.400197217755     0.513520620741    -1.617504257238     1.007825032070
           C         -1.299325679841     0.905312237699    -0.611516468047    12.000000000000
           H          0.738762955990     1.551918824910    -0.896399898131     1.007825032070
           H          0.283499690882     1.317251162153     0.799133336196     1.007825032070
           C          0.189519594205     0.919760909681    -0.206057848135    12.000000000000
           H          0.392226546495    -1.029763673697    -1.112446431970     1.007825032070
           H          1.860118049888    -0.448336065069    -0.310786868737     1.007825032070
           C          0.779039310876    -0.508230838260    -0.243164827139    12.000000000000
           H          0.814759226596    -2.289209164926     0.993186755373     1.007825032070
           H         -0.682844425047    -1.360492050178     1.110195825601     1.007825032070
           H          0.782515677379    -0.775923796057     1.904636758914     1.007825032070
           C          0.395863826772    -1.289230769422     1.030458697976    12.000000000000

  Running in c1 symmetry.

  Rotational constants: A =      0.45864  B =      0.15393  C =      0.13701 [cm^-1]
  Rotational constants: A =  13749.80415  B =   4614.67967  C =   4107.31389 [MHz]
  Nuclear repulsion =  132.660702427421370

  Charge       = 0
  Multiplicity = 1
  Electrons    = 34
  Nalpha       = 17
  Nbeta        = 17

  ==> Algorithm <==

  SCF Algorithm Type is DF.
  DIIS enabled.
  MOM disabled.
  Fractional occupation disabled.
  Guess Type is READ.
  Energy threshold   = 1.00e-08
  Density threshold  = 1.00e-08
  Integral threshold = 0.00e+00

  ==> Primary Basis <==

  Basis Set: CC-PVDZ
    Number of shells: 54
    Number of basis function: 106
    Number of Cartesian functions: 110
    Spherical Harmonics?: true
    Max angular momentum: 2

  ==> DFT Potential <==

   => B3LYP Composite Functional <= 

    B3LYP Hybrid-GGA Exchange-Correlation Functional (VWN1-RPA)

    P.J. Stephens et. al., J. Phys. Chem., 98, 11623-11627, 1994

    Points   =           5000
    Deriv    =              1
    GGA      =           TRUE
    Meta     =          FALSE

    X_LRC        =          FALSE
    X_Hybrid     =           TRUE
    X_Alpha      =   2.000000E-01
    X_Omega      =   0.000000E+00
    C_LRC        =          FALSE
    C_Hybrid     =          FALSE
    C_Alpha      =   0.000000E+00
    C_Omega      =   0.000000E+00

   => Exchange Functionals <=

    0.8000    B3_X
    0.2000      HF 

   => Correlation Functionals <=

    0.1900 VWN3RPA_C
    0.8100   LYP_C

   => Molecular Quadrature <=

    Radial Scheme    =       TREUTLER
    Pruning Scheme   =           FLAT
    Nuclear Scheme   =       TREUTLER

    BS radius alpha  =              1
    Pruning alpha    =              1
    Radial Points    =             75
    Spherical Points =            302
    Total Points     =         312770
    Total Blocks     =            269
    Max Points       =           4896
    Max Functions    =            106

  ==> Pre-Iterations <==

   -------------------------------------------------------
    Irrep   Nso     Nmo     Nalpha   Nbeta   Ndocc  Nsocc
   -------------------------------------------------------
     A        106     106       0       0       0       0
   -------------------------------------------------------
    Total     106     106      17      17      17       0
   -------------------------------------------------------

  ==> Integral Setup <==

  ==> DFJK: Density-Fitted J/K Matrices <==

    J tasked:                  Yes
    K tasked:                  Yes
    wK tasked:                  No
    OpenMP threads:              1
    Integrals threads:           1
    Memory (MB):               715
    Algorithm:                Core
    Integral Cache:           NONE
    Schwarz Cutoff:          1E-12
    Fitting Condition:       1E-12

   => Auxiliary Basis Set <=

  Basis Set: 
    Number of shells: 186
    Number of basis function: 510
    Number of Cartesian functions: 574
    Spherical Harmonics?: true
    Max angular momentum: 3

  Minimum eigenvalue in the overlap matrix is 5.1476814873E-03.
  Using Symmetric Orthogonalization.
  SCF Guess was Projection but file not found.
  Switching over to SAD guess.

  SCF Guess: Superposition of Atomic Densities via on-the-fly atomic UHF.

  ==> Iterations <==

                           Total Energy        Delta E     RMS |[F,P]|

   @DF-RKS iter   0:  -158.95692789529238   -1.58957e+02   3.29119e-02 
   @DF-RKS iter   1:  -158.29389739398567    6.63031e-01   4.95474e-03 
   @DF-RKS iter   2:  -158.23102182419913    6.28756e-02   5.97021e-03 DIIS
   @DF-RKS iter   3:  -158.45208038602888   -2.21059e-01   3.70572e-04 DIIS
   @DF-RKS iter   4:  -158.45285906880190   -7.78683e-04   1.15399e-04 DIIS
   @DF-RKS iter   5:  -158.45292405726804   -6.49885e-05   4.78784e-05 DIIS
   @DF-RKS iter   6:  -158.45293656368273   -1.25064e-05   6.78226e-06 DIIS
   @DF-RKS iter   7:  -158.45293684779878   -2.84116e-07   1.01842e-06 DIIS
   @DF-RKS iter   8:  -158.45293685484734   -7.04856e-09   1.35086e-07 DIIS
   @DF-RKS iter   9:  -158.45293685494570   -9.83675e-11   6.51994e-08 DIIS
   @DF-RKS iter  10:  -158.45293685496762   -2.19131e-11   1.81086e-08 DIIS
   @DF-RKS iter  11:  -158.45293685496986   -2.24532e-12   1.91754e-09 DIIS

  ==> Post-Iterations <==

    Orbital Energies (a.u.)
    -----------------------

    Doubly Occupied:                                                      

       1A    -10.174727     2A    -10.174541     3A    -10.169677  
       4A    -10.169641     5A     -0.792339     6A     -0.717564  
       7A     -0.635618     8A     -0.569309     9A     -0.456738  
      10A     -0.452380    11A     -0.417466    12A     -0.383428  
      13A     -0.376055    14A     -0.358420    15A     -0.330122  
      16A     -0.318910    17A     -0.316366  

    Virtual:                                                              

      18A      0.061813    19A      0.095226    20A      0.095988  
      21A      0.104989    22A      0.133088    23A      0.144183  
      24A      0.150580    25A      0.157905    26A      0.159893  
      27A      0.201070    28A      0.215209    29A      0.243380  
      30A      0.259143    31A      0.405405    32A      0.413170  
      33A      0.430016    34A      0.434808    35A      0.444825  
      36A      0.470901    37A      0.531661    38A      0.592400  
      39A      0.604470    40A      0.629640    41A      0.634429  
      42A      0.649804    43A      0.658725    44A      0.662929  
      45A      0.671575    46A      0.689407    47A      0.691679  
      48A      0.696303    49A      0.710343    50A      0.728903  
      51A      0.754942    52A      0.797990    53A      0.889614  
      54A      0.901352    55A      0.963308    56A      1.115143  
      57A      1.132499    58A      1.185921    59A      1.195777  
      60A      1.254004    61A      1.373926    62A      1.386151  
      63A      1.430708    64A      1.432403    65A      1.451164  
      66A      1.475363    67A      1.564099    68A      1.585944  
      69A      1.621608    70A      1.630002    71A      1.638324  
      72A      1.656484    73A      1.669727    74A      1.673557  
      75A      1.684372    76A      1.694852    77A      1.707844  
      78A      1.719111    79A      1.737852    80A      1.742387  
      81A      1.787322    82A      1.837642    83A      1.879379  
      84A      1.893769    85A      1.981133    86A      2.000029  
      87A      2.024734    88A      2.028725    89A      2.093519  
      90A      2.146507    91A      2.223800    92A      2.240608  
      93A      2.266542    94A      2.280649    95A      2.313238  
      96A      2.346520    97A      2.456925    98A      2.461649  
      99A      2.475368   100A      2.505063   101A      2.507748  
     102A      2.564873   103A      2.624575   104A      2.631916  
     105A      2.690206   106A      2.741863  

    Final Occupation by Irrep:
              A 
    DOCC [    17 ]

  Energy converged.

  @DF-RKS Final Energy:  -158.45293685496986

   => Energetics <=

    Nuclear Repulsion Energy =            132.6607024274213700
    One-Electron Energy =                -473.7680271710183320
    Two-Electron Energy =                 203.2876255549059579
    DFT Exchange-Correlation Energy =     -20.6332376662788661
    Empirical Dispersion Energy =           0.0000000000000000
    PCM Polarization Energy =               0.0000000000000000
    EFP Energy =                            0.0000000000000000
    Total Energy =                       -158.4529368549698631


  Saving occupied orbitals to File 180.

*** tstop() called on lski1497 at Tue Feb 21 18:27:15 2017
Module time:
	user time   =     117.81 seconds =       1.96 minutes
	system time =       1.46 seconds =       0.02 minutes
	total time  =        131 seconds =       2.18 minutes
Total time:
	user time   =     277.24 seconds =       4.62 minutes
	system time =       3.56 seconds =       0.06 minutes
	total time  =        309 seconds =       5.15 minutes


Properties will be evaluated at   0.000000,   0.000000,   0.000000 Bohr

Properties computed using the SCF density matrix

  Nuclear Dipole Moment: (a.u.)
     X:    -0.7266      Y:    -0.3082      Z:     0.3380

  Electronic Dipole Moment: (a.u.)
     X:     0.7499      Y:     0.3180      Z:    -0.3490

  Dipole Moment: (a.u.)
     X:     0.0233      Y:     0.0098      Z:    -0.0110     Total:     0.0275

  Dipole Moment: (Debye)
     X:     0.0591      Y:     0.0249      Z:    -0.0279     Total:     0.0700


*** tstart() called on lski1497
*** at Tue Feb 21 18:27:15 2017


         ------------------------------------------------------------
                                   SCF GRAD                          
                          Rob Parrish, Justin Turney,                
                       Andy Simmonett, and Alex Sokolov              
         ------------------------------------------------------------

  ==> Geometry <==

    Molecular point group: c1
    Full point group: C1

    Geometry (in Angstrom), charge = 0, multiplicity = 1:

       Center              X                  Y                   Z               Mass       
    ------------   -----------------  -----------------  -----------------  -----------------
           H         -1.862124831677     0.279708656671     0.071904269863     1.007825032070
           H         -1.701815118862     1.912559612579    -0.581375414669     1.007825032070
           H         -1.400197217755     0.513520620741    -1.617504257238     1.007825032070
           C         -1.299325679841     0.905312237699    -0.611516468047    12.000000000000
           H          0.738762955990     1.551918824910    -0.896399898131     1.007825032070
           H          0.283499690882     1.317251162153     0.799133336196     1.007825032070
           C          0.189519594205     0.919760909681    -0.206057848135    12.000000000000
           H          0.392226546495    -1.029763673697    -1.112446431970     1.007825032070
           H          1.860118049888    -0.448336065069    -0.310786868737     1.007825032070
           C          0.779039310876    -0.508230838260    -0.243164827139    12.000000000000
           H          0.814759226596    -2.289209164926     0.993186755373     1.007825032070
           H         -0.682844425047    -1.360492050178     1.110195825601     1.007825032070
           H          0.782515677379    -0.775923796057     1.904636758914     1.007825032070
           C          0.395863826772    -1.289230769422     1.030458697976    12.000000000000

  Nuclear repulsion =  132.660702427421398

  ==> Basis Set <==

  Basis Set: CC-PVDZ
    Number of shells: 54
    Number of basis function: 106
    Number of Cartesian functions: 110
    Spherical Harmonics?: true
    Max angular momentum: 2

  ==> DFJKGrad: Density-Fitted SCF Gradients <==

    Gradient:                    1
    J tasked:                  Yes
    K tasked:                  Yes
    wK tasked:                  No
    OpenMP threads:              1
    Integrals threads:           1
    Memory (MB):               715
    Schwarz Cutoff:          0E+00
    Fitting Condition:       1E-12

   => Auxiliary Basis Set <=

  Basis Set: 
    Number of shells: 186
    Number of basis function: 510
    Number of Cartesian functions: 574
    Spherical Harmonics?: true
    Max angular momentum: 3

  ==> DFT Potential <==

   => B3LYP Composite Functional <= 

    B3LYP Hybrid-GGA Exchange-Correlation Functional (VWN1-RPA)

    P.J. Stephens et. al., J. Phys. Chem., 98, 11623-11627, 1994

    Points   =           5000
    Deriv    =              1
    GGA      =           TRUE
    Meta     =          FALSE

    X_LRC        =          FALSE
    X_Hybrid     =           TRUE
    X_Alpha      =   2.000000E-01
    X_Omega      =   0.000000E+00
    C_LRC        =          FALSE
    C_Hybrid     =          FALSE
    C_Alpha      =   0.000000E+00
    C_Omega      =   0.000000E+00

   => Exchange Functionals <=

    0.8000    B3_X
    0.2000      HF 

   => Correlation Functionals <=

    0.1900 VWN3RPA_C
    0.8100   LYP_C

   => Molecular Quadrature <=

    Radial Scheme    =       TREUTLER
    Pruning Scheme   =           FLAT
    Nuclear Scheme   =       TREUTLER

    BS radius alpha  =              1
    Pruning alpha    =              1
    Radial Points    =             75
    Spherical Points =            302
    Total Points     =         312770
    Total Blocks     =            269
    Max Points       =           4896
    Max Functions    =            106


  -Total Gradient:
     Atom            X                  Y                   Z
    ------   -----------------  -----------------  -----------------
       1        0.009118123065     0.005965440144    -0.005608224076
       2        0.007444669056    -0.009251003521     0.000376001386
       3        0.003683736075     0.003963718861     0.011081426798
       4       -0.019875860101    -0.005399316184    -0.007179922762
       5       -0.006093541724    -0.009247952167     0.005306497840
       6       -0.003990656607    -0.007448084410    -0.010062910464
       7        0.012891111735     0.020257792065     0.011969926015
       8        0.000416470046     0.005906498947     0.011765273955
       9       -0.012091796973     0.001578168881     0.002997944722
      10        0.010302583606    -0.010550044813    -0.022316777927
      11       -0.002701099897     0.011480147710    -0.002560532406
      12        0.011364259665     0.002773980037    -0.003782018920
      13       -0.003279937872    -0.003628123118    -0.010852170268
      14       -0.007178366758    -0.006397368121     0.018861107945


*** tstop() called on lski1497 at Tue Feb 21 18:28:02 2017
Module time:
	user time   =      40.33 seconds =       0.67 minutes
	system time =       0.66 seconds =       0.01 minutes
	total time  =         47 seconds =       0.78 minutes
Total time:
	user time   =     317.60 seconds =       5.29 minutes
	system time =       4.22 seconds =       0.07 minutes
	total time  =        356 seconds =       5.93 minutes

			-----------------------------------------
			 OPTKING 2.0: for geometry optimizations 
			  - R.A. King,  Bethel University        
			-----------------------------------------

	Previous internal coordinate definitions found.
	---Fragment 1 Geometry and Gradient---
	 H          -3.5189059571        0.5285727581        0.1358793778
	 H          -3.2159645035        3.6142138806       -1.0986403141
	 H          -2.6459892736        0.9704133368       -3.0566400650
	 C          -2.4553696923        1.7107921940       -1.1555986504
	 H           1.3960596639        2.9327015595       -1.6939503130
	 H           0.5357367745        2.4892439447        1.5101431491
	 C           0.3581401299        1.7380962270       -0.3893929005
	 H           0.7412007549       -1.9459713249       -2.1022190939
	 H           3.5151136891       -0.8472323785       -0.5873020676
	 C           1.4721709443       -0.9604170966       -0.4595149284
	 H           1.5396718025       -4.3259783826        1.8768509665
	 H          -1.2903889547       -2.5709573808        2.0979660643
	 H           1.4787403249       -1.4662834745        3.5992418570
	 C           0.7480742185       -2.4362930763        1.9472847304
	             0.0091181231        0.0059654401       -0.0056082241
	             0.0074446691       -0.0092510035        0.0003760014
	             0.0036837361        0.0039637189        0.0110814268
	            -0.0198758601       -0.0053993162       -0.0071799228
	            -0.0060935417       -0.0092479522        0.0053064978
	            -0.0039906566       -0.0074480844       -0.0100629105
	             0.0128911117        0.0202577921        0.0119699260
	             0.0004164700        0.0059064989        0.0117652740
	            -0.0120917970        0.0015781689        0.0029979447
	             0.0103025836       -0.0105500448       -0.0223167779
	            -0.0027010999        0.0114801477       -0.0025605324
	             0.0113642597        0.0027739800       -0.0037820189
	            -0.0032799379       -0.0036281231       -0.0108521703
	            -0.0071783668       -0.0063973681        0.0188611079

	---Fragment 1 Intrafragment Coordinates---
	 - Coordinate -           - BOHR/RAD -       - ANG/DEG -
	 R(1,4)           =         2.048577	       1.084060
	 R(2,4)           =         2.050552	       1.085105
	 R(3,4)           =         2.049013	       1.084291
	 R(4,7)           =         2.916103	       1.543135
	 R(5,7)           =         2.050909	       1.085294
	 R(6,7)           =         2.050366	       1.085007
	 R(7,10)          =         2.920266	       1.545338
	 R(8,10)          =         2.050393	       1.085021
	 R(9,10)          =         2.050062	       1.084846
	 R(10,14)         =         2.914654	       1.542369
	 R(11,14)         =         2.050000	       1.084813
	 R(12,14)         =         2.048456	       1.083996
	 R(13,14)         =         2.050306	       1.084975
	 B(1,4,2)         =         1.902450	     109.002352
	 B(1,4,3)         =         1.905066	     109.152226
	 B(1,4,7)         =         1.918407	     109.916639
	 B(2,4,3)         =         1.903577	     109.066924
	 B(2,4,7)         =         1.919716	     109.991616
	 B(3,4,7)         =         1.914435	     109.689055
	 B(4,7,5)         =         1.903495	     109.062243
	 B(4,7,6)         =         1.907546	     109.294350
	 B(4,7,10)        =         1.931679	     110.677048
	 B(5,7,6)         =         1.909295	     109.394541
	 B(5,7,10)        =         1.907006	     109.263398
	 B(6,7,10)        =         1.904698	     109.131178
	 B(7,10,8)        =         1.904352	     109.111312
	 B(7,10,9)        =         1.907774	     109.307419
	 B(7,10,14)       =         1.931905	     110.690000
	 B(8,10,9)        =         1.909074	     109.381883
	 B(8,10,14)       =         1.906687	     109.245104
	 B(9,10,14)       =         1.903923	     109.086736
	 B(10,14,11)      =         1.920333	     110.026981
	 B(10,14,12)      =         1.919044	     109.953100
	 B(10,14,13)      =         1.914766	     109.707988
	 B(11,14,12)      =         1.903067	     109.037712
	 B(11,14,13)      =         1.903055	     109.037041
	 B(12,14,13)      =         1.903358	     109.054388
	 D(1,4,7,5)       =        -3.138279	    -179.810119
	 D(1,4,7,6)       =        -1.051702	     -60.258072
	 D(1,4,7,10)      =         1.046470	      59.958342
	 D(2,4,7,5)       =        -1.043489	     -59.787487
	 D(2,4,7,6)       =         1.043088	      59.764560
	 D(2,4,7,10)      =         3.141261	     179.980974
	 D(3,4,7,5)       =         1.050199	      60.171964
	 D(3,4,7,6)       =         3.136776	     179.724012
	 D(3,4,7,10)      =        -1.048237	     -60.059575
	 D(4,7,10,8)      =         0.702739	      40.263976
	 D(4,7,10,9)      =         2.789696	     159.837816
	 D(4,7,10,14)     =        -1.395990	     -79.984331
	 D(5,7,10,8)      =        -1.393599	     -79.847319
	 D(5,7,10,9)      =         0.693359	      39.726521
	 D(5,7,10,14)     =         2.790858	     159.904374
	 D(6,7,10,8)      =         2.802612	     160.577836
	 D(6,7,10,9)      =        -1.393616	     -79.848325
	 D(6,7,10,14)     =         0.703883	      40.329528
	 D(7,10,14,11)    =         3.141526	     179.996178
	 D(7,10,14,12)    =         1.045182	      59.884544
	 D(7,10,14,13)    =        -1.048023	     -60.047322
	 D(8,10,14,11)    =         1.044192	      59.827798
	 D(8,10,14,12)    =        -1.052151	     -60.283837
	 D(8,10,14,13)    =         3.137828	     179.784298
	 D(9,10,14,11)    =        -1.041860	     -59.694181
	 D(9,10,14,12)    =        -3.138203	    -179.805815
	 D(9,10,14,13)    =         1.051776	      60.262320

	Current energy   :      -158.4529368550

	Energy change for the previous step:
		Projected    :        -0.0076191602
		Actual       :        -0.0059110169

	Performing BFGS update.
	Previous computed or guess Hessian on step 1.
	Steps to be used in Hessian update: 1
	Adding user-defined constraint: Fragment 1; Coordinate 49:
		Value =    -1.395990; Fixed value    =    -1.396260
		Force =    -0.000142; Force constant =     0.525000
	Removing off-diagonal coupling between coordinate 49 and others.
	Taking RFO optimization step.
	Going to follow RFO solution 1.
	Using RFO vector 1.

	Determining step-restricting scale parameter for RS-RFO.
	Maximum step size allowed    0.10000

	 Iter      |step|        alpha        rfo_root  
	------------------------------------------------
	    0     0.20696       1.00000           1
	    1     0.15674       6.17384           1
	    2     0.12337      16.75916           1
	    3     0.10617      28.69281           1
	    4     0.10061      34.39601           1
	    5     0.10001      35.08558           1
	------------------------------------------------
	Norm of target step-size    0.10001
	Projected energy change by RFO approximation:        -0.0040622091

	Back-transformation to cartesian coordinates...
	Successfully converged to displaced geometry.

	--- Internal Coordinate Step in ANG or DEG, aJ/ANG or AJ/DEG ---
	 ---------------------------------------------------------------------------
	   Coordinate                Previous        Force       Change         New 
	   ----------                --------       ------       ------       ------
	    1 R(1,4)          =      1.084060     0.096485     0.012175     1.096235
	    2 R(2,4)          =      1.085105     0.093407     0.011452     1.096557
	    3 R(3,4)          =      1.084291     0.099336     0.012395     1.096686
	    4 R(4,7)          =      1.543135    -0.000309    -0.002196     1.540939
	    5 R(5,7)          =      1.085294     0.097602     0.012027     1.097322
	    6 R(6,7)          =      1.085007     0.102130     0.012859     1.097866
	    7 R(7,10)         =      1.545338     0.017630     0.000483     1.545821
	    8 R(8,10)         =      1.085021     0.102266     0.012869     1.097890
	    9 R(9,10)         =      1.084846     0.100104     0.012305     1.097151
	   10 R(10,14)        =      1.542369     0.002621    -0.001742     1.540627
	   11 R(11,14)        =      1.084813     0.095049     0.011630     1.096443
	   12 R(12,14)        =      1.083996     0.096958     0.012225     1.096221
	   13 R(13,14)        =      1.084975     0.095818     0.012003     1.096978
	   14 B(1,4,2)        =    109.002352    -0.000290    -0.762303   108.240049
	   15 B(1,4,3)        =    109.152226    -0.000237    -0.667478   108.484747
	   16 B(1,4,7)        =    109.916639     0.000295     0.808509   110.725148
	   17 B(2,4,3)        =    109.066924    -0.000232    -0.615235   108.451689
	   18 B(2,4,7)        =    109.991616     0.000286     0.695186   110.686802
	   19 B(3,4,7)        =    109.689055     0.000166     0.488815   110.177870
	   20 B(4,7,5)        =    109.062243    -0.000186    -0.320116   108.742127
	   21 B(4,7,6)        =    109.294350    -0.000122    -0.160169   109.134181
	   22 B(4,7,10)       =    110.677048     0.000637     1.399695   112.076743
	   23 B(5,7,6)        =    109.394541    -0.000055    -0.510236   108.884305
	   24 B(5,7,10)       =    109.263398    -0.000106    -0.167369   109.096029
	   25 B(6,7,10)       =    109.131178    -0.000174    -0.274552   108.856626
	   26 B(7,10,8)       =    109.111312    -0.000174    -0.273237   108.838075
	   27 B(7,10,9)       =    109.307419    -0.000109    -0.178018   109.129401
	   28 B(7,10,14)      =    110.690000     0.000636     1.395212   112.085212
	   29 B(8,10,9)       =    109.381883    -0.000054    -0.508963   108.872920
	   30 B(8,10,14)      =    109.245104    -0.000118    -0.144295   109.100810
	   31 B(9,10,14)      =    109.086736    -0.000187    -0.323716   108.763020
	   32 B(10,14,11)     =    110.026981     0.000285     0.686165   110.713146
	   33 B(10,14,12)     =    109.953100     0.000289     0.790697   110.743797
	   34 B(10,14,13)     =    109.707988     0.000163     0.480246   110.188235
	   35 B(11,14,12)     =    109.037712    -0.000290    -0.766074   108.271638
	   36 B(11,14,13)     =    109.037041    -0.000230    -0.605876   108.431165
	   37 B(12,14,13)     =    109.054388    -0.000228    -0.638488   108.415900
	   38 D(1,4,7,5)      =   -179.810119     0.000028     0.420377  -179.389743
	   39 D(1,4,7,6)      =    -60.258072    -0.000029    -0.479697   -60.737768
	   40 D(1,4,7,10)     =     59.958342    -0.000005    -0.039913    59.918428
	   41 D(2,4,7,5)      =    -59.787487     0.000030     0.436992   -59.350495
	   42 D(2,4,7,6)      =     59.764560    -0.000028    -0.463082    59.301479
	   43 D(2,4,7,10)     =    179.980974    -0.000003    -0.023298   179.957675
	   44 D(3,4,7,5)      =     60.171964     0.000029     0.424987    60.596951
	   45 D(3,4,7,6)      =    179.724012    -0.000028    -0.475086   179.248925
	   46 D(3,4,7,10)     =    -60.059575    -0.000004    -0.035303   -60.094878
	   47 D(4,7,10,8)     =     40.263976     0.000033     0.566688    40.830664
	   48 D(4,7,10,9)     =    159.837816    -0.000021    -0.315878   159.521938
	   49 D(4,7,10,14)    =    -79.984331     0.000001     0.047093   -79.937238
	   50 D(5,7,10,8)     =    -79.847319     0.000010     0.191348   -79.655970
	   51 D(5,7,10,9)     =     39.726521    -0.000044    -0.691217    39.035303
	   52 D(5,7,10,14)    =    159.904374    -0.000022    -0.328246   159.576127
	   53 D(6,7,10,8)     =    160.577836     0.000064     1.069708   161.647543
	   54 D(6,7,10,9)     =    -79.848325     0.000010     0.187142   -79.661183
	   55 D(6,7,10,14)    =     40.329528     0.000032     0.550113    40.879641
	   56 D(7,10,14,11)   =    179.996178    -0.000003    -0.022350   179.973828
	   57 D(7,10,14,12)   =     59.884544    -0.000004    -0.019107    59.865436
	   58 D(7,10,14,13)   =    -60.047322    -0.000004    -0.033370   -60.080692
	   59 D(8,10,14,11)   =     59.827798    -0.000028    -0.469723    59.358075
	   60 D(8,10,14,12)   =    -60.283837    -0.000029    -0.466480   -60.750317
	   61 D(8,10,14,13)   =    179.784298    -0.000029    -0.480743   179.303555
	   62 D(9,10,14,11)   =    -59.694181     0.000029     0.421102   -59.273079
	   63 D(9,10,14,12)   =   -179.805815     0.000028     0.424345  -179.381470
	   64 D(9,10,14,13)   =     60.262320     0.000028     0.410082    60.672401
	 ---------------------------------------------------------------------------
	 Forces used to impose fixed constraints are not included.
	  Forces zeroed: 49 

  ==> Convergence Check <==

  Measures of convergence in internal coordinates in au.
  Criteria marked as inactive (o), active & met (*), and active & unmet ( ).
  ---------------------------------------------------------------------------------------------
   Step     Total Energy     Delta E     MAX Force     RMS Force      MAX Disp      RMS Disp   
  ---------------------------------------------------------------------------------------------
    Convergence Criteria    1.00e-06 *    3.00e-04 *             o    1.20e-03 *             o
  ---------------------------------------------------------------------------------------------
      2    -158.45293685   -5.91e-03      1.24e-02      5.28e-03 o    2.44e-02      1.25e-02 o  ~
  ---------------------------------------------------------------------------------------------

	Writing optimization data to binary file.
	Structure for next step:
	Cartesian Geometry (in Angstrom)
	    H    -1.9025190234   0.2972459911   0.0465506099
	    H    -1.7165043534   1.9240010369  -0.6431868413
	    H    -1.4150525116   0.4908575333  -1.6539433145
	    C    -1.3082761594   0.9062657023  -0.6446092668
	    H     0.7363969642   1.5400698796  -0.9323927140
	    H     0.2635657424   1.3450293344   0.7786431823
	    C     0.1750449734   0.9141535397  -0.2272492968
	    H     0.4142495918  -1.0566397385  -1.0930888478
	    H     1.8760417970  -0.4306914391  -0.2808516144
	    C     0.7833832380  -0.5068989882  -0.2173670348
	    H     0.8562880846  -2.2894064030   1.0427846553
	    H    -0.6731338570  -1.3910550357   1.1495330562
	    H     0.7861885719  -0.7579641588   1.9460394899
	    C     0.4143245475  -1.2861215872   1.0594015666
			--------------------------
			 OPTKING Finished Execution 
			--------------------------

    Structure for next step:
    Molecular point group: c1
    Full point group: C1

    Geometry (in Angstrom), charge = 0, multiplicity = 1:

    H           -1.902401593551     0.297286280556     0.046464226860
    H           -1.716386923522     1.924041326293    -0.643273224339
    H           -1.414935081741     0.490897822677    -1.654029697540
    C           -1.308158729539     0.906305991676    -0.644695649900
    H            0.736514394100     1.540110168984    -0.932479097108
    H            0.263683172259     1.345069623852     0.778556799252
    C            0.175162403302     0.914193829146    -0.227335679824
    H            0.414367021728    -1.056599449054    -1.093175230839
    H            1.876159226875    -0.430651149725    -0.280937997464
    C            0.783500667909    -0.506858698760    -0.217453417879
    H            0.856405514484    -2.289366113612     1.042698272213
    H           -0.673016427146    -1.391014746306     1.149446673187
    H            0.786306001804    -0.757923869374     1.945953106864
    C            0.414441977391    -1.286081297828     1.059315183513

gradient() will perform analytic gradient computation.

*** tstart() called on lski1497
*** at Tue Feb 21 18:28:02 2017


         ---------------------------------------------------------
                                   SCF
            by Justin Turney, Rob Parrish, and Andy Simmonett
                              RKS Reference
                        1 Threads,   1000 MiB Core
         ---------------------------------------------------------

  ==> Geometry <==

    Molecular point group: c1
    Full point group: C1

    Geometry (in Angstrom), charge = 0, multiplicity = 1:

       Center              X                  Y                   Z               Mass       
    ------------   -----------------  -----------------  -----------------  -----------------
           H         -1.902401593551     0.297286280556     0.046464226860     1.007825032070
           H         -1.716386923522     1.924041326293    -0.643273224339     1.007825032070
           H         -1.414935081741     0.490897822677    -1.654029697540     1.007825032070
           C         -1.308158729539     0.906305991676    -0.644695649900    12.000000000000
           H          0.736514394100     1.540110168984    -0.932479097108     1.007825032070
           H          0.263683172259     1.345069623852     0.778556799252     1.007825032070
           C          0.175162403302     0.914193829146    -0.227335679824    12.000000000000
           H          0.414367021728    -1.056599449054    -1.093175230839     1.007825032070
           H          1.876159226875    -0.430651149725    -0.280937997464     1.007825032070
           C          0.783500667909    -0.506858698760    -0.217453417879    12.000000000000
           H          0.856405514484    -2.289366113612     1.042698272213     1.007825032070
           H         -0.673016427146    -1.391014746306     1.149446673187     1.007825032070
           H          0.786306001804    -0.757923869374     1.945953106864     1.007825032070
           C          0.414441977391    -1.286081297828     1.059315183513    12.000000000000

  Running in c1 symmetry.

  Rotational constants: A =      0.46225  B =      0.15025  C =      0.13413 [cm^-1]
  Rotational constants: A =  13857.79493  B =   4504.48214  C =   4021.25496 [MHz]
  Nuclear repulsion =  131.762556037608476

  Charge       = 0
  Multiplicity = 1
  Electrons    = 34
  Nalpha       = 17
  Nbeta        = 17

  ==> Algorithm <==

  SCF Algorithm Type is DF.
  DIIS enabled.
  MOM disabled.
  Fractional occupation disabled.
  Guess Type is READ.
  Energy threshold   = 1.00e-08
  Density threshold  = 1.00e-08
  Integral threshold = 0.00e+00

  ==> Primary Basis <==

  Basis Set: CC-PVDZ
    Number of shells: 54
    Number of basis function: 106
    Number of Cartesian functions: 110
    Spherical Harmonics?: true
    Max angular momentum: 2

  ==> DFT Potential <==

   => B3LYP Composite Functional <= 

    B3LYP Hybrid-GGA Exchange-Correlation Functional (VWN1-RPA)

    P.J. Stephens et. al., J. Phys. Chem., 98, 11623-11627, 1994

    Points   =           5000
    Deriv    =              1
    GGA      =           TRUE
    Meta     =          FALSE

    X_LRC        =          FALSE
    X_Hybrid     =           TRUE
    X_Alpha      =   2.000000E-01
    X_Omega      =   0.000000E+00
    C_LRC        =          FALSE
    C_Hybrid     =          FALSE
    C_Alpha      =   0.000000E+00
    C_Omega      =   0.000000E+00

   => Exchange Functionals <=

    0.8000    B3_X
    0.2000      HF 

   => Correlation Functionals <=

    0.1900 VWN3RPA_C
    0.8100   LYP_C

   => Molecular Quadrature <=

    Radial Scheme    =       TREUTLER
    Pruning Scheme   =           FLAT
    Nuclear Scheme   =       TREUTLER

    BS radius alpha  =              1
    Pruning alpha    =              1
    Radial Points    =             75
    Spherical Points =            302
    Total Points     =         312804
    Total Blocks     =            265
    Max Points       =           4862
    Max Functions    =            106

  ==> Pre-Iterations <==

   -------------------------------------------------------
    Irrep   Nso     Nmo     Nalpha   Nbeta   Ndocc  Nsocc
   -------------------------------------------------------
     A        106     106       0       0       0       0
   -------------------------------------------------------
    Total     106     106      17      17      17       0
   -------------------------------------------------------

  ==> Integral Setup <==

  ==> DFJK: Density-Fitted J/K Matrices <==

    J tasked:                  Yes
    K tasked:                  Yes
    wK tasked:                  No
    OpenMP threads:              1
    Integrals threads:           1
    Memory (MB):               715
    Algorithm:                Core
    Integral Cache:           NONE
    Schwarz Cutoff:          1E-12
    Fitting Condition:       1E-12

   => Auxiliary Basis Set <=

  Basis Set: 
    Number of shells: 186
    Number of basis function: 510
    Number of Cartesian functions: 574
    Spherical Harmonics?: true
    Max angular momentum: 3

  Minimum eigenvalue in the overlap matrix is 5.1869030367E-03.
  Using Symmetric Orthogonalization.
  SCF Guess was Projection but file not found.
  Switching over to SAD guess.

  SCF Guess: Superposition of Atomic Densities via on-the-fly atomic UHF.

  ==> Iterations <==

                           Total Energy        Delta E     RMS |[F,P]|

   @DF-RKS iter   0:  -158.90786388749268   -1.58908e+02   3.23684e-02 
   @DF-RKS iter   1:  -158.30203938557241    6.05825e-01   4.85564e-03 
   @DF-RKS iter   2:  -158.23609105168438    6.59483e-02   5.91954e-03 DIIS
   @DF-RKS iter   3:  -158.45490104000621   -2.18810e-01   3.65484e-04 DIIS
   @DF-RKS iter   4:  -158.45566762530794   -7.66585e-04   1.12437e-04 DIIS
   @DF-RKS iter   5:  -158.45572932255916   -6.16973e-05   4.77271e-05 DIIS
   @DF-RKS iter   6:  -158.45574177631940   -1.24538e-05   6.77489e-06 DIIS
   @DF-RKS iter   7:  -158.45574205951095   -2.83192e-07   1.02331e-06 DIIS
   @DF-RKS iter   8:  -158.45574206665202   -7.14107e-09   1.47103e-07 DIIS
   @DF-RKS iter   9:  -158.45574206676378   -1.11754e-10   7.51098e-08 DIIS
   @DF-RKS iter  10:  -158.45574206679422   -3.04397e-11   1.78946e-08 DIIS
   @DF-RKS iter  11:  -158.45574206679623   -2.01794e-12   1.98500e-09 DIIS

  ==> Post-Iterations <==

    Orbital Energies (a.u.)
    -----------------------

    Doubly Occupied:                                                      

       1A    -10.178481     2A    -10.178313     3A    -10.173711  
       4A    -10.173693     5A     -0.790157     6A     -0.716479  
       7A     -0.633848     8A     -0.566118     9A     -0.453694  
      10A     -0.450414    11A     -0.415470    12A     -0.382224  
      13A     -0.374961    14A     -0.357276    15A     -0.327645  
      16A     -0.318389    17A     -0.318018  

    Virtual:                                                              

      18A      0.059517    19A      0.092787    20A      0.094068  
      21A      0.102865    22A      0.131305    23A      0.141605  
      24A      0.148623    25A      0.153703    26A      0.156752  
      27A      0.198275    28A      0.208587    29A      0.243467  
      30A      0.261521    31A      0.400541    32A      0.412223  
      33A      0.429200    34A      0.431607    35A      0.444872  
      36A      0.472998    37A      0.532645    38A      0.588699  
      39A      0.603113    40A      0.625890    41A      0.631156  
      42A      0.642734    43A      0.652272    44A      0.656651  
      45A      0.666511    46A      0.683597    47A      0.683757  
      48A      0.686527    49A      0.706466    50A      0.719020  
      51A      0.750062    52A      0.792687    53A      0.890236  
      54A      0.897717    55A      0.962644    56A      1.112589  
      57A      1.130521    58A      1.172515    59A      1.193301  
      60A      1.248411    61A      1.367579    62A      1.379711  
      63A      1.425763    64A      1.427941    65A      1.446340  
      66A      1.465186    67A      1.561339    68A      1.584911  
      69A      1.611583    70A      1.623711    71A      1.634990  
      72A      1.649310    73A      1.659839    74A      1.662118  
      75A      1.679964    76A      1.682653    77A      1.701477  
      78A      1.711176    79A      1.724247    80A      1.725539  
      81A      1.781098    82A      1.817411    83A      1.873206  
      84A      1.875932    85A      1.976896    86A      1.984519  
      87A      2.018847    88A      2.034769    89A      2.080187  
      90A      2.130964    91A      2.206420    92A      2.221815  
      93A      2.249499    94A      2.261020    95A      2.288945  
      96A      2.319163    97A      2.428924    98A      2.429293  
      99A      2.446096   100A      2.487872   101A      2.490835  
     102A      2.540991   103A      2.603861   104A      2.611966  
     105A      2.673915   106A      2.722422  

    Final Occupation by Irrep:
              A 
    DOCC [    17 ]

  Energy converged.

  @DF-RKS Final Energy:  -158.45574206679623

   => Energetics <=

    Nuclear Repulsion Energy =            131.7625560376084763
    One-Electron Energy =                -472.0108049011436151
    Two-Electron Energy =                 202.3902391086148782
    DFT Exchange-Correlation Energy =     -20.5977323118759621
    Empirical Dispersion Energy =           0.0000000000000000
    PCM Polarization Energy =               0.0000000000000000
    EFP Energy =                            0.0000000000000000
    Total Energy =                       -158.4557420667962333


  Saving occupied orbitals to File 180.

*** tstop() called on lski1497 at Tue Feb 21 18:30:14 2017
Module time:
	user time   =     118.50 seconds =       1.98 minutes
	system time =       1.37 seconds =       0.02 minutes
	total time  =        132 seconds =       2.20 minutes
Total time:
	user time   =     436.77 seconds =       7.28 minutes
	system time =       5.61 seconds =       0.09 minutes
	total time  =        488 seconds =       8.13 minutes


Properties will be evaluated at   0.000000,   0.000000,   0.000000 Bohr

Properties computed using the SCF density matrix

  Nuclear Dipole Moment: (a.u.)
     X:    -0.7249      Y:    -0.3076      Z:     0.3368

  Electronic Dipole Moment: (a.u.)
     X:     0.7464      Y:     0.3168      Z:    -0.3468

  Dipole Moment: (a.u.)
     X:     0.0215      Y:     0.0092      Z:    -0.0101     Total:     0.0254

  Dipole Moment: (Debye)
     X:     0.0546      Y:     0.0233      Z:    -0.0256     Total:     0.0647


*** tstart() called on lski1497
*** at Tue Feb 21 18:30:14 2017


         ------------------------------------------------------------
                                   SCF GRAD                          
                          Rob Parrish, Justin Turney,                
                       Andy Simmonett, and Alex Sokolov              
         ------------------------------------------------------------

  ==> Geometry <==

    Molecular point group: c1
    Full point group: C1

    Geometry (in Angstrom), charge = 0, multiplicity = 1:

       Center              X                  Y                   Z               Mass       
    ------------   -----------------  -----------------  -----------------  -----------------
           H         -1.902401593551     0.297286280556     0.046464226860     1.007825032070
           H         -1.716386923522     1.924041326293    -0.643273224339     1.007825032070
           H         -1.414935081741     0.490897822677    -1.654029697540     1.007825032070
           C         -1.308158729539     0.906305991676    -0.644695649900    12.000000000000
           H          0.736514394100     1.540110168984    -0.932479097108     1.007825032070
           H          0.263683172259     1.345069623852     0.778556799252     1.007825032070
           C          0.175162403302     0.914193829146    -0.227335679824    12.000000000000
           H          0.414367021728    -1.056599449054    -1.093175230839     1.007825032070
           H          1.876159226875    -0.430651149725    -0.280937997464     1.007825032070
           C          0.783500667909    -0.506858698760    -0.217453417879    12.000000000000
           H          0.856405514484    -2.289366113612     1.042698272213     1.007825032070
           H         -0.673016427146    -1.391014746306     1.149446673187     1.007825032070
           H          0.786306001804    -0.757923869374     1.945953106864     1.007825032070
           C          0.414441977391    -1.286081297828     1.059315183513    12.000000000000

  Nuclear repulsion =  131.762556037608476

  ==> Basis Set <==

  Basis Set: CC-PVDZ
    Number of shells: 54
    Number of basis function: 106
    Number of Cartesian functions: 110
    Spherical Harmonics?: true
    Max angular momentum: 2

  ==> DFJKGrad: Density-Fitted SCF Gradients <==

    Gradient:                    1
    J tasked:                  Yes
    K tasked:                  Yes
    wK tasked:                  No
    OpenMP threads:              1
    Integrals threads:           1
    Memory (MB):               715
    Schwarz Cutoff:          0E+00
    Fitting Condition:       1E-12

   => Auxiliary Basis Set <=

  Basis Set: 
    Number of shells: 186
    Number of basis function: 510
    Number of Cartesian functions: 574
    Spherical Harmonics?: true
    Max angular momentum: 3

  ==> DFT Potential <==

   => B3LYP Composite Functional <= 

    B3LYP Hybrid-GGA Exchange-Correlation Functional (VWN1-RPA)

    P.J. Stephens et. al., J. Phys. Chem., 98, 11623-11627, 1994

    Points   =           5000
    Deriv    =              1
    GGA      =           TRUE
    Meta     =          FALSE

    X_LRC        =          FALSE
    X_Hybrid     =           TRUE
    X_Alpha      =   2.000000E-01
    X_Omega      =   0.000000E+00
    C_LRC        =          FALSE
    C_Hybrid     =          FALSE
    C_Alpha      =   0.000000E+00
    C_Omega      =   0.000000E+00

   => Exchange Functionals <=

    0.8000    B3_X
    0.2000      HF 

   => Correlation Functionals <=

    0.1900 VWN3RPA_C
    0.8100   LYP_C

   => Molecular Quadrature <=

    Radial Scheme    =       TREUTLER
    Pruning Scheme   =           FLAT
    Nuclear Scheme   =       TREUTLER

    BS radius alpha  =              1
    Pruning alpha    =              1
    Radial Points    =             75
[...]
  Basis Set: CC-PVDZ
    Number of shells: 54
    Number of basis function: 106
    Number of Cartesian functions: 110
    Spherical Harmonics?: true
    Max angular momentum: 2

  ==> DFJKGrad: Density-Fitted SCF Gradients <==

    Gradient:                    1
    J tasked:                  Yes
    K tasked:                  Yes
    wK tasked:                  No
    OpenMP threads:              1
    Integrals threads:           1
    Memory (MB):               715
    Schwarz Cutoff:          0E+00
    Fitting Condition:       1E-12

   => Auxiliary Basis Set <=

  Basis Set: 
    Number of shells: 186
    Number of basis function: 510
    Number of Cartesian functions: 574
    Spherical Harmonics?: true
    Max angular momentum: 3

  ==> DFT Potential <==

   => B3LYP Composite Functional <= 

    B3LYP Hybrid-GGA Exchange-Correlation Functional (VWN1-RPA)

    P.J. Stephens et. al., J. Phys. Chem., 98, 11623-11627, 1994

    Points   =           5000
    Deriv    =              1
    GGA      =           TRUE
    Meta     =          FALSE

    X_LRC        =          FALSE
    X_Hybrid     =           TRUE
    X_Alpha      =   2.000000E-01
    X_Omega      =   0.000000E+00
    C_LRC        =          FALSE
    C_Hybrid     =          FALSE
    C_Alpha      =   0.000000E+00
    C_Omega      =   0.000000E+00

   => Exchange Functionals <=

    0.8000    B3_X
    0.2000      HF 

   => Correlation Functionals <=

    0.1900 VWN3RPA_C
    0.8100   LYP_C

   => Molecular Quadrature <=

    Radial Scheme    =       TREUTLER
    Pruning Scheme   =           FLAT
    Nuclear Scheme   =       TREUTLER

    BS radius alpha  =              1
    Pruning alpha    =              1
    Radial Points    =             75
    Spherical Points =            302
    Total Points     =         312812
    Total Blocks     =            268
    Max Points       =           4863
    Max Functions    =            106


  -Total Gradient:
     Atom            X                  Y                   Z
    ------   -----------------  -----------------  -----------------
       1        0.000006134758     0.000002189067     0.000000046474
       2       -0.000004244383     0.000002507821    -0.000002458058
       3       -0.000006096691     0.000002640633    -0.000001560358
       4        0.000506249479     0.000156796688    -0.001684079239
       5       -0.000005831289    -0.000005525605     0.000011658164
       6       -0.000002331370     0.000003424342     0.000004534907
       7       -0.000118287571     0.000060291709     0.002671308069
       8       -0.000001983467    -0.000005146032    -0.000002650733
       9       -0.000013832979    -0.000002672847    -0.000002488147
      10       -0.001791358217    -0.000871629423    -0.001784996797
      11        0.000001371130    -0.000003799333     0.000003701150
      12        0.000004117520     0.000002121175    -0.000005026539
      13       -0.000000048248    -0.000005400881     0.000003993343
      14        0.001434652865     0.000667817799     0.000784065793


*** tstop() called on lski1497 at Tue Feb 21 18:43:44 2017
Module time:
	user time   =      41.15 seconds =       0.69 minutes
	system time =       0.66 seconds =       0.01 minutes
	total time  =         49 seconds =       0.82 minutes
Total time:
	user time   =    1131.67 seconds =      18.86 minutes
	system time =      15.29 seconds =       0.25 minutes
	total time  =       1298 seconds =      21.63 minutes

			-----------------------------------------
			 OPTKING 2.0: for geometry optimizations 
			  - R.A. King,  Bethel University        
			-----------------------------------------

	Previous internal coordinate definitions found.
	---Fragment 1 Geometry and Gradient---
	 H          -3.6719953306        0.6217616541        0.0447039124
	 H          -3.2414183400        3.6867190243       -1.2545975546
	 H          -2.7205851651        0.9642608768       -3.1605579986
	 C          -2.4802169198        1.7476830776       -1.2430329137
	 H           1.3892209890        2.8858376863       -1.7906538065
	 H           0.5285831202        2.6148894210        1.4181877475
	 C           0.3045038451        1.7083751251       -0.4510927715
	 H           0.8764494845       -2.0181342641       -2.0705768567
	 H           3.5482924457       -0.7887356961       -0.5019412748
	 C           1.4713715304       -0.9541125392       -0.3734867608
	 H           1.6754682478       -4.3518210060        1.9817093103
	 H          -1.2401822542       -2.7081054848        2.2361215441
	 H           1.5120888347       -1.4775348849        3.7216862623
	 C           0.8172244960       -2.4540015225        2.0151987175
	             0.0000061348        0.0000021891        0.0000000465
	            -0.0000042444        0.0000025078       -0.0000024581
	            -0.0000060967        0.0000026406       -0.0000015604
	             0.0005062495        0.0001567967       -0.0016840792
	            -0.0000058313       -0.0000055256        0.0000116582
	            -0.0000023314        0.0000034243        0.0000045349
	            -0.0001182876        0.0000602917        0.0026713081
	            -0.0000019835       -0.0000051460       -0.0000026507
	            -0.0000138330       -0.0000026728       -0.0000024881
	            -0.0017913582       -0.0008716294       -0.0017849968
	             0.0000013711       -0.0000037993        0.0000037012
	             0.0000041175        0.0000021212       -0.0000050265
	            -0.0000000482       -0.0000054009        0.0000039933
	             0.0014346529        0.0006678178        0.0007840658

	---Fragment 1 Intrafragment Coordinates---
	 - Coordinate -           - BOHR/RAD -       - ANG/DEG -
	 R(1,4)           =         2.084778	       1.103217
	 R(2,4)           =         2.083128	       1.102344
	 R(3,4)           =         2.085289	       1.103487
	 R(4,7)           =         2.895407	       1.532184
	 R(5,7)           =         2.087451	       1.104632
	 R(6,7)           =         2.089543	       1.105738
	 R(7,10)          =         2.907996	       1.538845
	 R(8,10)          =         2.089543	       1.105738
	 R(9,10)          =         2.087451	       1.104631
	 R(10,14)         =         2.895409	       1.532184
	 R(11,14)         =         2.083128	       1.102344
	 R(12,14)         =         2.084778	       1.103217
	 R(13,14)         =         2.085287	       1.103487
	 B(1,4,2)         =         1.872606	     107.292448
	 B(1,4,3)         =         1.874650	     107.409539
	 B(1,4,7)         =         1.953602	     111.933172
	 B(2,4,3)         =         1.878087	     107.606477
	 B(2,4,7)         =         1.945073	     111.444447
	 B(3,4,7)         =         1.936143	     110.932815
	 B(4,7,5)         =         1.892933	     108.457043
	 B(4,7,6)         =         1.919770	     109.994707
	 B(4,7,10)        =         1.988488	     113.931948
	 B(5,7,6)         =         1.847971	     105.880955
	 B(5,7,10)        =         1.901872	     108.969251
	 B(6,7,10)        =         1.907420	     109.287140
	 B(7,10,8)        =         1.907420	     109.287142
	 B(7,10,9)        =         1.901871	     108.969188
	 B(7,10,14)       =         1.988486	     113.931876
	 B(8,10,9)        =         1.847973	     105.881037
	 B(8,10,14)       =         1.919771	     109.994798
	 B(9,10,14)       =         1.892932	     108.457012
	 B(10,14,11)      =         1.945071	     111.444369
	 B(10,14,12)      =         1.953600	     111.933038
	 B(10,14,13)      =         1.936143	     110.932800
	 B(11,14,12)      =         1.872607	     107.292461
	 B(11,14,13)      =         1.878088	     107.606544
	 B(12,14,13)      =         1.874653	     107.409701
	 D(1,4,7,5)       =        -3.127288	    -179.180376
	 D(1,4,7,6)       =        -1.113741	     -63.812631
	 D(1,4,7,10)      =         1.034680	      59.282801
	 D(2,4,7,5)       =        -1.030071	     -59.018741
	 D(2,4,7,6)       =         0.983476	      56.349005
	 D(2,4,7,10)      =         3.131896	     179.444436
	 D(3,4,7,5)       =         1.062234	      60.861508
	 D(3,4,7,6)       =         3.075781	     176.229253
	 D(3,4,7,10)      =        -1.058984	     -60.675315
	 D(4,7,10,8)      =         0.763840	      43.764829
	 D(4,7,10,9)      =         2.775638	     159.032331
	 D(4,7,10,14)     =        -1.391294	     -79.715284
	 D(5,7,10,8)      =        -1.352415	     -77.487689
	 D(5,7,10,9)      =         0.659382	      37.779813
	 D(5,7,10,14)     =         2.775635	     159.032198
	 D(6,7,10,8)      =         2.918974	     167.244872
	 D(6,7,10,9)      =        -1.352414	     -77.487625
	 D(6,7,10,14)     =         0.763839	      43.764759
	 D(7,10,14,11)    =         3.131899	     179.444615
	 D(7,10,14,12)    =         1.034685	      59.283109
	 D(7,10,14,13)    =        -1.058981	     -60.675114
	 D(8,10,14,11)    =         0.983478	      56.349163
	 D(8,10,14,12)    =        -1.113735	     -63.812343
	 D(8,10,14,13)    =         3.075784	     176.229435
	 D(9,10,14,11)    =        -1.030071	     -59.018712
	 D(9,10,14,12)    =        -3.127285	    -179.180218
	 D(9,10,14,13)    =         1.062235	      60.861559

	Current energy   :      -158.4568721009

	Energy change for the previous step:
		Projected    :        -0.0000002405
		Actual       :        -0.0000004722

	Performing BFGS update.
	Previous computed or guess Hessian on step 1.
	Steps to be used in Hessian update: 6 5
	Adding user-defined constraint: Fragment 1; Coordinate 49:
		Value =    -1.391294; Fixed value    =    -1.396260
		Force =    -0.003228; Force constant =     0.650000
	Removing off-diagonal coupling between coordinate 49 and others.
	Taking RFO optimization step.
	Going to follow RFO solution 1.
	Rejecting RFO root 1 because normalization gives large value.
	Using RFO vector 2.
	Norm of target step-size    0.00060
	Projected energy change by RFO approximation:        -0.0000000075

	Back-transformation to cartesian coordinates...
	Successfully converged to displaced geometry.

	--- Internal Coordinate Step in ANG or DEG, aJ/ANG or AJ/DEG ---
	 ---------------------------------------------------------------------------
	   Coordinate                Previous        Force       Change         New 
	   ----------                --------       ------       ------       ------
	    1 R(1,4)          =      1.103217     0.000033     0.000001     1.103218
	    2 R(2,4)          =      1.102344    -0.000033    -0.000011     1.102333
	    3 R(3,4)          =      1.103487    -0.000007    -0.000007     1.103481
	    4 R(4,7)          =      1.532184     0.000141     0.000035     1.532218
	    5 R(5,7)          =      1.104632     0.000118     0.000021     1.104653
	    6 R(6,7)          =      1.105738    -0.000045    -0.000014     1.105725
	    7 R(7,10)         =      1.538845    -0.000219    -0.000053     1.538792
	    8 R(8,10)         =      1.105738    -0.000045    -0.000014     1.105725
	    9 R(9,10)         =      1.104631     0.000119     0.000021     1.104652
	   10 R(10,14)        =      1.532184     0.000138     0.000034     1.532219
	   11 R(11,14)        =      1.102344    -0.000034    -0.000011     1.102333
	   12 R(12,14)        =      1.103217     0.000034     0.000001     1.103218
	   13 R(13,14)        =      1.103487    -0.000004    -0.000006     1.103481
	   14 B(1,4,2)        =    107.292448    -0.000000     0.000503   107.292951
	   15 B(1,4,3)        =    107.409539     0.000000     0.001557   107.411095
	   16 B(1,4,7)        =    111.933172     0.000001     0.003730   111.936902
	   17 B(2,4,3)        =    107.606477     0.000001     0.001524   107.608001
	   18 B(2,4,7)        =    111.444447    -0.000000    -0.002395   111.442052
	   19 B(3,4,7)        =    110.932815    -0.000001    -0.004691   110.928124
	   20 B(4,7,5)        =    108.457043    -0.000002    -0.002920   108.454124
	   21 B(4,7,6)        =    109.994707     0.000002     0.007239   110.001946
	   22 B(4,7,10)       =    113.931948     0.000000    -0.002168   113.929780
	   23 B(5,7,6)        =    105.880955     0.000000     0.007048   105.888003
	   24 B(5,7,10)       =    108.969251    -0.000000    -0.000399   108.968852
	   25 B(6,7,10)       =    109.287140    -0.000000    -0.008095   109.279045
	   26 B(7,10,8)       =    109.287142    -0.000000    -0.008124   109.279017
	   27 B(7,10,9)       =    108.969188    -0.000000    -0.000315   108.968873
	   28 B(7,10,14)      =    113.931876     0.000000    -0.002121   113.929756
	   29 B(8,10,9)       =    105.881037     0.000000     0.007007   105.888044
	   30 B(8,10,14)      =    109.994798     0.000002     0.007073   110.001872
	   31 B(9,10,14)      =    108.457012    -0.000002    -0.002817   108.454195
	   32 B(10,14,11)     =    111.444369    -0.000000    -0.002330   111.442039
	   33 B(10,14,12)     =    111.933038     0.000001     0.003882   111.936920
	   34 B(10,14,13)     =    110.932800    -0.000001    -0.004715   110.928084
	   35 B(11,14,12)     =    107.292461    -0.000000     0.000535   107.292996
	   36 B(11,14,13)     =    107.606544     0.000001     0.001421   107.607964
	   37 B(12,14,13)     =    107.409701     0.000000     0.001421   107.411123
	   38 D(1,4,7,5)      =   -179.180376    -0.000000    -0.005045  -179.185421
	   39 D(1,4,7,6)      =    -63.812631    -0.000000     0.005658   -63.806973
	   40 D(1,4,7,10)     =     59.282801     0.000000    -0.000977    59.281823
	   41 D(2,4,7,5)      =    -59.018741    -0.000000    -0.003496   -59.022237
	   42 D(2,4,7,6)      =     56.349005    -0.000000     0.007206    56.356211
	   43 D(2,4,7,10)     =    179.444436     0.000000     0.000572   179.445008
	   44 D(3,4,7,5)      =     60.861508    -0.000000    -0.006322    60.855186
	   45 D(3,4,7,6)      =    176.229253    -0.000000     0.004381   176.233634
	   46 D(3,4,7,10)     =    -60.675315     0.000000    -0.002254   -60.677569
	   47 D(4,7,10,8)     =     43.764829    -0.000000     0.001562    43.766391
	   48 D(4,7,10,9)     =    159.032331    -0.000000     0.005308   159.037640
	   49 D(4,7,10,14)    =    -79.715284    -0.000001     0.000039   -79.715245
	   50 D(5,7,10,8)     =    -77.487689     0.000000     0.007055   -77.480634
	   51 D(5,7,10,9)     =     37.779813     0.000000     0.010802    37.790615
	   52 D(5,7,10,14)    =    159.032198    -0.000000     0.005533   159.037731
	   53 D(6,7,10,8)     =    167.244872     0.000000     0.003290   167.248162
	   54 D(6,7,10,9)     =    -77.487625     0.000000     0.007036   -77.480589
	   55 D(6,7,10,14)    =     43.764759    -0.000000     0.001767    43.766527
	   56 D(7,10,14,11)   =    179.444615     0.000000     0.001177   179.445792
	   57 D(7,10,14,12)   =     59.283109     0.000000    -0.000563    59.282547
	   58 D(7,10,14,13)   =    -60.675114     0.000000    -0.001753   -60.676866
	   59 D(8,10,14,11)   =     56.349163    -0.000000     0.007943    56.357106
	   60 D(8,10,14,12)   =    -63.812343    -0.000000     0.006204   -63.806139
	   61 D(8,10,14,13)   =    176.229435    -0.000000     0.005014   176.234448
	   62 D(9,10,14,11)   =    -59.018712    -0.000000    -0.002678   -59.021390
	   63 D(9,10,14,12)   =   -179.180218    -0.000000    -0.004417  -179.184635
	   64 D(9,10,14,13)   =     60.861559    -0.000000    -0.005607    60.855952
	 ---------------------------------------------------------------------------
	 Forces used to impose fixed constraints are not included.
	  Forces zeroed: 49 

  ==> Convergence Check <==

  Measures of convergence in internal coordinates in au.
  Criteria marked as inactive (o), active & met (*), and active & unmet ( ).
  ---------------------------------------------------------------------------------------------
   Step     Total Energy     Delta E     MAX Force     RMS Force      MAX Disp      RMS Disp   
  ---------------------------------------------------------------------------------------------
    Convergence Criteria    1.00e-06 *    3.00e-04 *             o    1.20e-03 *             o
  ---------------------------------------------------------------------------------------------
      7    -158.45687210   -4.72e-07 *    2.67e-05 *    1.14e-05 o    1.89e-04 *    7.56e-05 o  ~
  ---------------------------------------------------------------------------------------------


  **** Optimization is complete! (in 7 steps) ****

  ==> Optimization Summary <==

  Measures of convergence in internal coordinates in au.
  --------------------------------------------------------------------------------------------------------------- ~
   Step         Total Energy             Delta E       MAX Force       RMS Force        MAX Disp        RMS Disp  ~
  --------------------------------------------------------------------------------------------------------------- ~
      1    -158.447025838063   -158.447025838063      0.02346990      0.00963685      0.02902603      0.01250052  ~
      2    -158.452936854970     -0.005911016907      0.01241288      0.00528363      0.02442929      0.01250462  ~
      3    -158.455742066796     -0.002805211826      0.00415453      0.00204006      0.03826682      0.01251730  ~
      4    -158.456636220015     -0.000894153219      0.00153868      0.00061804      0.04616343      0.01252335  ~
      5    -158.456857201318     -0.000220981303      0.00068538      0.00016578      0.01201583      0.00521907  ~
      6    -158.456871628687     -0.000014427369      0.00005105      0.00002161      0.00154826      0.00053946  ~
      7    -158.456872100871     -0.000000472184      0.00005549      0.00001337      0.00018853      0.00007556  ~
  --------------------------------------------------------------------------------------------------------------- ~

	Writing optimization data to binary file.
	Final energy is   -158.4568721008715
	Final (previous) structure:
	Cartesian Geometry (in Angstrom)
	    H    -1.9431362390   0.3290220965   0.0236562916
	    H    -1.7152847091   1.9509276821  -0.6639044318
	    H    -1.4396716634   0.5102648791  -1.6724952593
	    C    -1.3124742663   0.9248340525  -0.6577846874
	    H     0.7351440851   1.5271195313  -0.9475731829
	    H     0.2797141401   1.3837398846   0.7504726335
	    C     0.1611364947   0.9040331799  -0.2387080136
	    H     0.4637970917  -1.0679506564  -1.0957020812
	    H     1.8776754917  -0.4173809540  -0.2656158827
	    C     0.7786162793  -0.5048946102  -0.1976406815
	    H     0.8866196104  -2.3028844922   1.0486754011
	    H    -0.6562761834  -1.4330677010   1.1833045568
	    H     0.8001629487  -0.7818777860   1.9694315475
	    C     0.4324565776  -1.2986016756   1.0663972321
	Saving final (previous) structure.
			--------------------------
			 OPTKING Finished Execution 
			--------------------------

    Final optimized geometry and variables:
    Molecular point group: c1
    Full point group: C1

    Geometry (in Angstrom), charge = 0, multiplicity = 1:

    H           -1.943136238997     0.329022096499     0.023656291597
    H           -1.715284709053     1.950927682144    -0.663904431843
    H           -1.439671663379     0.510264879131    -1.672495259306
    C           -1.312474266293     0.924834052521    -0.657784687440
    H            0.735144085066     1.527119531276    -0.947573182901
    H            0.279714140072     1.383739884599     0.750472633492
    C            0.161136494739     0.904033179931    -0.238708013631
    H            0.463797091666    -1.067950656414    -1.095702081222
    H            1.877675491651    -0.417380953992    -0.265615882693
    C            0.778616279281    -0.504894610169    -0.197640681535
    H            0.886619610448    -2.302884492239     1.048675401086
    H           -0.656276183412    -1.433067701035     1.183304556758
    H            0.800162948708    -0.781877785974     1.969431547526
    C            0.432456577587    -1.298601675574     1.066397232093

	Cleaning optimization helper files.

*** Psi4 exiting successfully. Buy a developer a beer!
