    -----------------------------------------------------------------------
          Psi4: An Open-Source Ab Initio Electronic Structure Package
                              Psi4 1.0.0 Driver

                          Git: Rev {master} 6a9a71b 

    J. M. Turney, A. C. Simmonett, R. M. Parrish, E. G. Hohenstein,
    F. A. Evangelista, J. T. Fermann, B. J. Mintz, L. A. Burns, J. J. Wilke,
    M. L. Abrams, N. J. Russ, M. L. Leininger, C. L. Janssen, E. T. Seidl,
    W. D. Allen, H. F. Schaefer, R. A. King, E. F. Valeev, C. D. Sherrill,
    and T. D. Crawford, WIREs Comput. Mol. Sci. 2, 556-565 (2012)
    (doi: 10.1002/wcms.93)

                         Additional Contributions by
    A. E. DePrince, U. Bozkaya, A. Yu. Sokolov, D. G. A. Smith, R. Di Remigio,
    R. M. Richard, J. F. Gonthier, H. R. McAlexander, M. Saitow, and
    B. P. Pritchard
    -----------------------------------------------------------------------


    Psi4 started on: Thu Feb 16 16:22:31 2017

    Process ID:   1309
    PSI4DATADIR: /Users/sternc1/anaconda/share/psi4
    Memory level set to 256.000 MB

  ==> Input File <==

--------------------------------------------------------------------------

memory 1000 mb

molecule butane {
  symmetry C1
  0 1 
  H      1.604   0.760   -8.260
  H      1.745   2.388   -8.880
  H      2.043   1.024   -9.930
  C      2.142   1.395   -8.932
  H      4.169   2.051   -9.210
  H      3.731   1.788   -7.539
  C      3.631   1.416   -8.537
  H      5.006   -0.037   -9.318
  H      4.567   -0.302   -7.649
  C      4.203   -0.012   -8.612
  H      3.495   -1.978   -9.109
  H      2.733   -0.697   -10.020
  H      2.293   -0.961   -8.351
  C      3.097   -0.986   -9.057
  units Angstrom
}

dih_string = "4 7 10 14 0.001"
set optking fixed_dihedral = $dih_string

optimize('MP2/6-31G(d)')
--------------------------------------------------------------------------

  Memory set to 1000.000 MiB by Python script.
gradient() will perform analytic gradient computation.
    SCF Algorithm Type (re)set to DF.

*** tstart() called on lski1497
*** at Thu Feb 16 16:22:33 2017


         ---------------------------------------------------------
                                   SCF
            by Justin Turney, Rob Parrish, and Andy Simmonett
                              RHF Reference
                        1 Threads,   1000 MiB Core
         ---------------------------------------------------------

  ==> Geometry <==

    Molecular point group: c1
    Full point group: C1

    Geometry (in Angstrom), charge = 0, multiplicity = 1:

       Center              X                  Y                   Z               Mass       
    ------------   -----------------  -----------------  -----------------  -----------------
           H         -1.641751988320     0.315365705977     0.531805563376     1.007825032070
           H         -1.500751988320     1.943365705977    -0.088194436624     1.007825032070
           H         -1.202751988320     0.579365705977    -1.138194436624     1.007825032070
           C         -1.103751988320     0.950365705977    -0.140194436624    12.000000000000
           H          0.923248011680     1.606365705977    -0.418194436624     1.007825032070
           H          0.485248011680     1.343365705977     1.252805563376     1.007825032070
           C          0.385248011680     0.971365705977     0.254805563376    12.000000000000
           H          1.760248011680    -0.481634294023    -0.526194436624     1.007825032070
           H          1.321248011680    -0.746634294023     1.142805563376     1.007825032070
           C          0.957248011680    -0.456634294023     0.179805563376    12.000000000000
           H          0.249248011680    -2.422634294023    -0.317194436624     1.007825032070
           H         -0.512751988320    -1.141634294023    -1.228194436624     1.007825032070
           H         -0.952751988320    -1.405634294023     0.440805563376     1.007825032070
           C         -0.148751988320    -1.430634294023    -0.265194436624    12.000000000000

  Running in c1 symmetry.

  Rotational constants: A =      0.37738  B =      0.21145  C =      0.15038 [cm^-1]
  Rotational constants: A =  11313.47966  B =   6339.07487  C =   4508.38722 [MHz]
  Nuclear repulsion =  136.588151271564413

  Charge       = 0
  Multiplicity = 1
  Electrons    = 34
  Nalpha       = 17
  Nbeta        = 17

  ==> Algorithm <==

  SCF Algorithm Type is DF.
  DIIS enabled.
  MOM disabled.
  Fractional occupation disabled.
  Guess Type is SAD.
  Energy threshold   = 1.00e-10
  Density threshold  = 1.00e-10
  Integral threshold = 0.00e+00

  ==> Primary Basis <==

  Basis Set: 6-31G(D)
    Number of shells: 44
    Number of basis function: 80
    Number of Cartesian functions: 80
    Spherical Harmonics?: false
    Max angular momentum: 2

  ==> Pre-Iterations <==

   -------------------------------------------------------
    Irrep   Nso     Nmo     Nalpha   Nbeta   Ndocc  Nsocc
   -------------------------------------------------------
     A         80      80       0       0       0       0
   -------------------------------------------------------
    Total      80      80      17      17      17       0
   -------------------------------------------------------

  ==> Integral Setup <==

  ==> DFJK: Density-Fitted J/K Matrices <==

    J tasked:                  Yes
    K tasked:                  Yes
    wK tasked:                  No
    OpenMP threads:              1
    Integrals threads:           1
    Memory (MB):               715
    Algorithm:                Core
    Integral Cache:           NONE
    Schwarz Cutoff:          1E-12
    Fitting Condition:       1E-12

   => Auxiliary Basis Set <=

  Basis Set: 
    Number of shells: 186
    Number of basis function: 574
    Number of Cartesian functions: 574
    Spherical Harmonics?: false
    Max angular momentum: 3

  Minimum eigenvalue in the overlap matrix is 3.2227163201E-03.
  Using Symmetric Orthogonalization.
  SCF Guess: Superposition of Atomic Densities via on-the-fly atomic UHF.

  ==> Iterations <==

                           Total Energy        Delta E     RMS |[F,P]|

   @DF-RHF iter   0:  -158.91776779555499   -1.58918e+02   4.67042e-02 
   @DF-RHF iter   1:  -157.16327366220355    1.75449e+00   4.55684e-03 
   @DF-RHF iter   2:  -157.25955703560362   -9.62834e-02   1.46096e-03 DIIS
   @DF-RHF iter   3:  -157.26971377955880   -1.01567e-02   5.82171e-04 DIIS
   @DF-RHF iter   4:  -157.27136715472119   -1.65338e-03   8.65754e-05 DIIS
   @DF-RHF iter   5:  -157.27142283022408   -5.56755e-05   1.90146e-05 DIIS
   @DF-RHF iter   6:  -157.27142541585073   -2.58563e-06   4.99447e-06 DIIS
   @DF-RHF iter   7:  -157.27142555371603   -1.37865e-07   1.28801e-06 DIIS
   @DF-RHF iter   8:  -157.27142556561517   -1.18991e-08   3.08701e-07 DIIS
   @DF-RHF iter   9:  -157.27142556641940   -8.04221e-10   8.22321e-08 DIIS
   @DF-RHF iter  10:  -157.27142556647095   -5.15570e-11   2.36952e-08 DIIS
   @DF-RHF iter  11:  -157.27142556647391   -2.95586e-12   5.33234e-09 DIIS
   @DF-RHF iter  12:  -157.27142556647470   -7.95808e-13   1.14976e-09 DIIS
   @DF-RHF iter  13:  -157.27142556647442    2.84217e-13   1.87990e-10 DIIS
   @DF-RHF iter  14:  -157.27142556647470   -2.84217e-13   4.47836e-11 DIIS

  ==> Post-Iterations <==

    Orbital Energies (a.u.)
    -----------------------

    Doubly Occupied:                                                      

       1A    -11.206454     2A    -11.205860     3A    -11.197596  
       4A    -11.197486     5A     -1.078142     6A     -0.965685  
       7A     -0.890292     8A     -0.769106     9A     -0.652363  
      10A     -0.627224    11A     -0.562038    12A     -0.540746  
      13A     -0.536190    14A     -0.511038    15A     -0.455958  
      16A     -0.452100    17A     -0.450967  

    Virtual:                                                              

      18A      0.229378    19A      0.272856    20A      0.279143  
      21A      0.305158    22A      0.308503    23A      0.315289  
      24A      0.356703    25A      0.360944    26A      0.385352  
      27A      0.386103    28A      0.431287    29A      0.458754  
      30A      0.494206    31A      0.702115    32A      0.735160  
      33A      0.760627    34A      0.769027    35A      0.799607  
      36A      0.804694    37A      0.863590    38A      0.929914  
      39A      0.932331    40A      1.011830    41A      1.131924  
      42A      1.156165    43A      1.157861    44A      1.193626  
      45A      1.195736    46A      1.211936    47A      1.219002  
      48A      1.220242    49A      1.242238    50A      1.275494  
      51A      1.282261    52A      1.283001    53A      1.338965  
      54A      1.616712    55A      1.702153    56A      1.703475  
      57A      1.753259    58A      1.935359    59A      2.114045  
      60A      2.183604    61A      2.272568    62A      2.273825  
      63A      2.282429    64A      2.335204    65A      2.378187  
      66A      2.434212    67A      2.550186    68A      2.583434  
      69A      2.650312    70A      2.711784    71A      2.724913  
      72A      2.757715    73A      2.840229    74A      2.905390  
      75A      3.003820    76A      3.103968    77A      4.593438  
      78A      4.725354    79A      4.781920    80A      5.046895  

    Final Occupation by Irrep:
              A 
    DOCC [    17 ]

  Energy converged.

  @DF-RHF Final Energy:  -157.27142556647470

   => Energetics <=

    Nuclear Repulsion Energy =            136.5881512715644135
    One-Electron Energy =                -481.1206628720095750
    Two-Electron Energy =                 187.2610860339705710
    DFT Exchange-Correlation Energy =       0.0000000000000000
    Empirical Dispersion Energy =           0.0000000000000000
    PCM Polarization Energy =               0.0000000000000000
    EFP Energy =                            0.0000000000000000
    Total Energy =                       -157.2714255664745906


  Saving occupied orbitals to File 180.

*** tstop() called on lski1497 at Thu Feb 16 16:22:40 2017
Module time:
	user time   =       5.66 seconds =       0.09 minutes
	system time =       0.19 seconds =       0.00 minutes
	total time  =          7 seconds =       0.12 minutes
Total time:
	user time   =       5.66 seconds =       0.09 minutes
	system time =       0.19 seconds =       0.00 minutes
	total time  =          7 seconds =       0.12 minutes


Properties will be evaluated at   0.000000,   0.000000,   0.000000 Bohr

Properties computed using the SCF density matrix

  Nuclear Dipole Moment: (a.u.)
     X:    -1.0045      Y:    -0.3847      Z:    -0.3262

  Electronic Dipole Moment: (a.u.)
     X:     1.0366      Y:     0.3965      Z:     0.3362

  Dipole Moment: (a.u.)
     X:     0.0321      Y:     0.0118      Z:     0.0100     Total:     0.0356

  Dipole Moment: (Debye)
     X:     0.0815      Y:     0.0301      Z:     0.0254     Total:     0.0905


  //>>>>>>>>>>>>>>>>>>>>>>>>>>>>>>>>>>>//
  //               DFMP2               //
  //<<<<<<<<<<<<<<<<<<<<<<<<<<<<<<<<<<<//


*** tstart() called on lski1497
*** at Thu Feb 16 16:22:40 2017


*** tstop() called on lski1497 at Thu Feb 16 16:22:40 2017
Module time:
	user time   =       0.47 seconds =       0.01 minutes
	system time =       0.00 seconds =       0.00 minutes
	total time  =          0 seconds =       0.00 minutes
Total time:
	user time   =       6.15 seconds =       0.10 minutes
	system time =       0.19 seconds =       0.00 minutes
	total time  =          7 seconds =       0.12 minutes
	 --------------------------------------------------------
	                          DF-MP2                         
	      2nd-Order Density-Fitted Moller-Plesset Theory     
	              RMP2 Wavefunction,   1 Threads             
	                                                         
	        Rob Parrish, Justin Turney, Andy Simmonett,      
	           Ed Hohenstein, and C. David Sherrill          
	 --------------------------------------------------------

   => Auxiliary Basis Set <=

  Basis Set: 
    Number of shells: 132
    Number of basis function: 364
    Number of Cartesian functions: 414
    Spherical Harmonics?: true
    Max angular momentum: 3

	 --------------------------------------------------------
	                 NBF =    80, NAUX =   364
	 --------------------------------------------------------
	   CLASS    FOCC     OCC    AOCC    AVIR     VIR    FVIR
	   PAIRS       0      17      17      63      63       0
	 --------------------------------------------------------

DGAS Warning! /src/lib/libfock/apps.cc:80 is not currently checking restricted

         ------------------------------------------------------------
                                     CPHF                           
                                  Rob Parrish                       
         ------------------------------------------------------------

  ==> Geometry <==

    Molecular point group: c1
    Full point group: C1

    Geometry (in Angstrom), charge = 0, multiplicity = 1:

       Center              X                  Y                   Z               Mass       
    ------------   -----------------  -----------------  -----------------  -----------------
           H         -1.641751988320     0.315365705977     0.531805563376     1.007825032070
           H         -1.500751988320     1.943365705977    -0.088194436624     1.007825032070
           H         -1.202751988320     0.579365705977    -1.138194436624     1.007825032070
           C         -1.103751988320     0.950365705977    -0.140194436624    12.000000000000
           H          0.923248011680     1.606365705977    -0.418194436624     1.007825032070
           H          0.485248011680     1.343365705977     1.252805563376     1.007825032070
           C          0.385248011680     0.971365705977     0.254805563376    12.000000000000
           H          1.760248011680    -0.481634294023    -0.526194436624     1.007825032070
           H          1.321248011680    -0.746634294023     1.142805563376     1.007825032070
           C          0.957248011680    -0.456634294023     0.179805563376    12.000000000000
           H          0.249248011680    -2.422634294023    -0.317194436624     1.007825032070
           H         -0.512751988320    -1.141634294023    -1.228194436624     1.007825032070
           H         -0.952751988320    -1.405634294023     0.440805563376     1.007825032070
           C         -0.148751988320    -1.430634294023    -0.265194436624    12.000000000000

  Nuclear repulsion =  136.588151271564413
  Reference energy  = -157.271425566474704

  ==> Basis Set <==

  Basis Set: 6-31G(D)
    Number of shells: 44
    Number of basis function: 80
    Number of Cartesian functions: 80
    Spherical Harmonics?: false
    Max angular momentum: 2

  ==> CGRSolver (by Rob Parrish) <==

   Number of roots    =         1
   Preconditioning    =    JACOBI
   Convergence cutoff =     1E-06
   Maximum iterations =       100

  ==> CPHFRHamiltonian (by Rob Parrish) <== 

  ==> DFJK: Density-Fitted J/K Matrices <==

    J tasked:                  Yes
    K tasked:                  Yes
    wK tasked:                  No
    OpenMP threads:              1
    Integrals threads:           1
    Memory (MB):               715
    Algorithm:                Core
    Integral Cache:           NONE
    Schwarz Cutoff:          1E-12
    Fitting Condition:       1E-12

   => Auxiliary Basis Set <=

  Basis Set: 
    Number of shells: 186
    Number of basis function: 574
    Number of Cartesian functions: 574
    Spherical Harmonics?: false
    Max angular momentum: 3

  ==> CPHF Iterations <==

  => Iterations <=

             Iter  Converged  Remaining    Residual
  CGR           1          0          1   7.624E-02
  CGR           2          0          1   8.686E-03
  CGR           3          0          1   2.088E-03
  CGR           4          0          1   4.161E-04
  CGR           5          0          1   7.776E-05
  CGR           6          0          1   1.322E-05
  CGR           7          0          1   1.541E-06
  CGR           8          1          0   3.666E-07

    CGRSolver converged.

  ==> DFCorrGrad: Density-Fitted Correlated Gradients <==

    OpenMP threads:              1
    Integrals threads:           1
    Memory (MB):               715
    Schwarz Cutoff:          0E+00
    Fitting Condition:       1E-12

   => Auxiliary Basis Set <=

  Basis Set: 
    Number of shells: 186
    Number of basis function: 510
    Number of Cartesian functions: 574
    Spherical Harmonics?: true
    Max angular momentum: 3

	-----------------------------------------------------------
	 ==================> DF-MP2 Energies <==================== 
	-----------------------------------------------------------
	 Reference Energy          =    -157.2714255664747043 [Eh]
	 Singles Energy            =      -0.0000000000000000 [Eh]
	 Same-Spin Energy          =      -0.1253697037509474 [Eh]
	 Opposite-Spin Energy      =      -0.4216604363239251 [Eh]
	 Correlation Energy        =      -0.5470301400748725 [Eh]
	 Total Energy              =    -157.8184557065495710 [Eh]
	-----------------------------------------------------------
	 ================> DF-SCS-MP2 Energies <================== 
	-----------------------------------------------------------
	 SCS Same-Spin Scale       =       0.3333333333333333 [-]
	 SCS Opposite-Spin Scale   =       1.2000000000000000 [-]
	 SCS Same-Spin Energy      =      -0.0417899012503158 [Eh]
	 SCS Opposite-Spin Energy  =      -0.5059925235887101 [Eh]
	 SCS Correlation Energy    =      -0.5477824248390258 [Eh]
	 SCS Total Energy          =    -157.8192079913137320 [Eh]
	-----------------------------------------------------------


  -Total Gradient:
     Atom            X                  Y                   Z
    ------   -----------------  -----------------  -----------------
       1        0.012218611595     0.001461007305    -0.006797722666
       2        0.008804723383    -0.014673730375    -0.000051823030
       3        0.007243462871    -0.001323536933     0.012175828424
       4       -0.021857958210    -0.020216790552    -0.009258822180
       5       -0.007717361590    -0.013553703375     0.007100580891
       6       -0.002234367019    -0.010456353536    -0.013879349003
       7        0.018929572224     0.020274200277     0.008619537333
       8       -0.015070035160     0.003848273062     0.008486059992
       9       -0.009360504092     0.007124544656    -0.013168316231
      10        0.028155079921    -0.002643765548     0.006964976943
      11       -0.003866229148     0.017031038880     0.001680579412
      12        0.004694104394     0.004896049891     0.012600288080
      13        0.009197014486     0.007945898256    -0.006291653725
      14       -0.029136113655     0.000286867994    -0.008180164240


			-----------------------------------------
			 OPTKING 2.0: for geometry optimizations 
			  - R.A. King,  Bethel University        
			-----------------------------------------

	Previous internal coordinate definitions found.
	---Fragment 1 Geometry and Gradient---
	 H          -3.1024616360        0.5959548160        1.0049668707
	 H          -2.8360102513        3.6724289603       -0.1666633317
	 H          -2.2728718637        1.0948425151       -2.1508757712
	 C          -2.0857889766        1.7959309104       -0.2649290906
	 H           1.7446858948        3.0355912536       -0.7902729555
	 H           0.9169858486        2.5385932806        2.3674594125
	 C           0.7280132353        1.8356151592        0.4815127319
	 H           3.3263866680       -0.9101569119       -0.9943633779
	 H           2.4967968957       -1.4109343371        2.1595895379
	 C           1.8089365833       -0.8629137586        0.3397832720
	 H           0.4710104812       -4.5781153358       -0.5994106161
	 H          -0.9689608320       -2.1573761596       -2.3209511232
	 H          -1.8004403305       -2.6562638587        0.8330017926
	 C          -0.2811005196       -2.7035070120       -0.5011448572
	             0.0122186116        0.0014610073       -0.0067977227
	             0.0088047234       -0.0146737304       -0.0000518230
	             0.0072434629       -0.0013235369        0.0121758284
	            -0.0218579582       -0.0202167906       -0.0092588222
	            -0.0077173616       -0.0135537034        0.0071005809
	            -0.0022343670       -0.0104563535       -0.0138793490
	             0.0189295722        0.0202742003        0.0086195373
	            -0.0150700352        0.0038482731        0.0084860600
	            -0.0093605041        0.0071245447       -0.0131683162
	             0.0281550799       -0.0026437655        0.0069649769
	            -0.0038662291        0.0170310389        0.0016805794
	             0.0046941044        0.0048960499        0.0126002881
	             0.0091970145        0.0079458983       -0.0062916537
	            -0.0291361137        0.0002868680       -0.0081801642

	Previous optimization step data not found.  Starting new optimization.

	---Fragment 1 Intrafragment Coordinates---
	 - Coordinate -           - BOHR/RAD -       - ANG/DEG -
	 R(1,4)           =         2.021436	       1.069698
	 R(2,4)           =         2.023298	       1.070683
	 R(3,4)           =         2.020723	       1.069320
	 R(4,7)           =         2.911397	       1.540645
	 R(5,7)           =         2.022623	       1.070326
	 R(6,7)           =         2.021555	       1.069761
	 R(7,10)          =         2.910419	       1.540128
	 R(8,10)          =         2.021097	       1.069519
	 R(9,10)          =         2.021181	       1.069563
	 R(10,14)         =         2.909158	       1.539460
	 R(11,14)         =         2.022247	       1.070127
	 R(12,14)         =         2.020670	       1.069292
	 R(13,14)         =         2.022516	       1.070270
	 B(1,4,2)         =         1.910870	     109.484805
	 B(1,4,3)         =         1.911121	     109.499161
	 B(1,4,7)         =         1.910399	     109.457783
	 B(2,4,3)         =         1.910042	     109.437340
	 B(2,4,7)         =         1.910564	     109.467262
	 B(3,4,7)         =         1.910803	     109.480971
	 B(4,7,5)         =         1.909937	     109.431343
	 B(4,7,6)         =         1.911630	     109.528316
	 B(4,7,10)        =         1.911154	     109.501062
	 B(5,7,6)         =         1.910605	     109.469614
	 B(5,7,10)        =         1.910047	     109.437654
	 B(6,7,10)        =         1.910425	     109.459295
	 B(7,10,8)        =         1.909926	     109.430678
	 B(7,10,9)        =         1.911287	     109.508677
	 B(7,10,14)       =         1.911212	     109.504376
	 B(8,10,9)        =         1.909734	     109.419706
	 B(8,10,14)       =         1.911130	     109.499680
	 B(9,10,14)       =         1.910510	     109.464178
	 B(10,14,11)      =         1.910647	     109.471985
	 B(10,14,12)      =         1.911227	     109.505266
	 B(10,14,13)      =         1.911594	     109.526246
	 B(11,14,12)      =         1.910687	     109.474289
	 B(11,14,13)      =         1.910382	     109.456851
	 B(12,14,13)      =         1.909262	     109.392649
	 D(1,4,7,5)       =         3.140997	     179.965873
	 D(1,4,7,6)       =        -1.047644	     -60.025575
	 D(1,4,7,10)      =         1.047427	      60.013132
	 D(2,4,7,5)       =        -1.047689	     -60.028143
	 D(2,4,7,6)       =         1.046856	      59.980409
	 D(2,4,7,10)      =        -3.141259	    -179.980883
	 D(3,4,7,5)       =         1.046044	      59.933911
	 D(3,4,7,6)       =         3.140588	     179.942463
	 D(3,4,7,10)      =        -1.047526	     -60.018830
	 D(4,7,10,8)      =         2.095109	     120.040906
	 D(4,7,10,9)      =        -2.094815	    -120.024080
	 D(4,7,10,14)     =         0.000185	       0.010589
	 D(5,7,10,8)      =         0.001606	       0.092031
	 D(5,7,10,9)      =         2.094867	     120.027044
	 D(5,7,10,14)     =        -2.093318	    -119.938287
	 D(6,7,10,8)      =        -2.092269	    -119.878168
	 D(6,7,10,9)      =         0.000992	       0.056845
	 D(6,7,10,14)     =         2.095992	     120.091515
	 D(7,10,14,11)    =         3.141528	     179.996267
	 D(7,10,14,12)    =         1.046695	      59.971179
	 D(7,10,14,13)    =        -1.046973	     -59.987149
	 D(8,10,14,11)    =         1.047340	      60.008175
	 D(8,10,14,12)    =        -1.047493	     -60.016914
	 D(8,10,14,13)    =        -3.141161	    -179.975241
	 D(9,10,14,11)    =        -1.046183	     -59.941843
	 D(9,10,14,12)    =        -3.141016	    -179.966932
	 D(9,10,14,13)    =         1.048502	      60.074741

	Current energy   :      -157.8184557065

	Generating empirical Hessian (Schlegel '84) for each fragment.
	Adding user-defined constraint: Fragment 1; Coordinate 49:
		Value =     0.000185; Fixed value    =     0.000020
		Force =    -0.000082; Force constant =     0.500000
	Removing off-diagonal coupling between coordinate 49 and others.
	Taking RFO optimization step.
	Going to follow RFO solution 1.
	Using RFO vector 1.

	Determining step-restricting scale parameter for RS-RFO.
	Maximum step size allowed    0.10000

	 Iter      |step|        alpha        rfo_root  
	------------------------------------------------
	    0     0.53741       1.00000           1
	    1     0.34876       4.14330           1
	    2     0.22901      12.64496           1
	    3     0.15865      30.29882           1
	    4     0.12077      56.05621           1
	    5     0.10428      77.43087           1
	    6     0.10025      84.36530           1
	    7     0.10000      84.82839           1
	------------------------------------------------
	Norm of target step-size    0.10000
	Projected energy change by RFO approximation:        -0.0144412637

	Back-transformation to cartesian coordinates...
	Could not converge backtransformation.
	Using first guess instead.

	--- Internal Coordinate Step in ANG or DEG, aJ/ANG or AJ/DEG ---
	 ---------------------------------------------------------------------------
	   Coordinate                Previous        Force       Change         New 
	   ----------                --------       ------       ------       ------
	    1 R(1,4)          =      1.069698     0.092958     0.004374     1.074072
	    2 R(2,4)          =      1.070683     0.139039     0.006987     1.077670
	    3 R(3,4)          =      1.069320     0.095364     0.004465     1.073785
	    4 R(4,7)          =      1.540645     0.038821     0.003771     1.544416
	    5 R(5,7)          =      1.070326     0.134991     0.005424     1.075750
	    6 R(6,7)          =      1.069761     0.138355     0.005554     1.075315
	    7 R(7,10)         =      1.540128     0.341933     0.014210     1.554338
	    8 R(8,10)         =      1.069519     0.140111     0.005622     1.075141
	    9 R(9,10)         =      1.069563     0.139842     0.005613     1.075176
	   10 R(10,14)        =      1.539460     0.043636     0.003974     1.543434
	   11 R(11,14)        =      1.070127     0.142589     0.007124     1.077251
	   12 R(12,14)        =      1.069292     0.095754     0.004484     1.073776
	   13 R(13,14)        =      1.070270     0.089584     0.004241     1.074511
	   14 B(1,4,2)        =    109.484805    -0.000470    -0.226671   109.258134
	   15 B(1,4,3)        =    109.499161    -0.000311    -0.261426   109.237736
	   16 B(1,4,7)        =    109.457783     0.000642     0.360820   109.818603
	   17 B(2,4,3)        =    109.437340    -0.000462    -0.222581   109.214759
	   18 B(2,4,7)        =    109.467262    -0.000030    -0.008716   109.458546
	   19 B(3,4,7)        =    109.480971     0.000632     0.355275   109.836246
	   20 B(4,7,5)        =    109.431343    -0.001757    -0.885806   108.545536
	   21 B(4,7,6)        =    109.528316    -0.001768    -0.891594   108.636723
	   22 B(4,7,10)       =    109.501062     0.005935     3.029929   112.530992
	   23 B(5,7,6)        =    109.469614     0.000749     0.310912   109.780526
	   24 B(5,7,10)       =    109.437654    -0.001579    -0.785477   108.652177
	   25 B(6,7,10)       =    109.459295    -0.001581    -0.786335   108.672960
	   26 B(7,10,8)       =    109.430678    -0.001579    -0.785236   108.645442
	   27 B(7,10,9)       =    109.508677    -0.001589    -0.791151   108.717526
	   28 B(7,10,14)      =    109.504376     0.005939     3.031265   112.535641
	   29 B(8,10,9)       =    109.419706     0.000753     0.312974   109.732680
	   30 B(8,10,14)      =    109.499680    -0.001765    -0.889714   108.609966
	   31 B(9,10,14)      =    109.464178    -0.001763    -0.888534   108.575645
	   32 B(10,14,11)     =    109.471985    -0.000024    -0.006037   109.465948
	   33 B(10,14,12)     =    109.505266     0.000632     0.355868   109.861134
	   34 B(10,14,13)     =    109.526246     0.000626     0.352947   109.879193
	   35 B(11,14,12)     =    109.474289    -0.000468    -0.225689   109.248601
	   36 B(11,14,13)     =    109.456851    -0.000466    -0.225236   109.231615
	   37 B(12,14,13)     =    109.392649    -0.000301    -0.255696   109.136953
	   38 D(1,4,7,5)      =    179.965873     0.000188     0.400153   180.366026
	   39 D(1,4,7,6)      =    -60.025575    -0.000097    -0.277799   -60.303375
	   40 D(1,4,7,10)     =     60.013132     0.000046     0.062111    60.075244
	   41 D(2,4,7,5)      =    -60.028143     0.000142     0.338258   -59.689885
	   42 D(2,4,7,6)      =     59.980409    -0.000143    -0.339695    59.640714
	   43 D(2,4,7,10)     =   -179.980883     0.000000     0.000216  -179.980667
	   44 D(3,4,7,5)      =     59.933911     0.000097     0.277875    60.211785
	   45 D(3,4,7,6)      =    179.942463    -0.000188    -0.400078   179.542385
	   46 D(3,4,7,10)     =    -60.018830    -0.000045    -0.060167   -60.078997
	   47 D(4,7,10,8)     =    120.040906     0.000117     0.279104   120.320010
	   48 D(4,7,10,9)     =   -120.024080    -0.000116    -0.278645  -120.302726
	   49 D(4,7,10,14)    =      0.010589     0.000001     0.000968     0.011558
	   50 D(5,7,10,8)     =      0.092031    -0.000001    -0.001293     0.090738
	   51 D(5,7,10,9)     =    120.027044    -0.000233    -0.559041   119.468002
	   52 D(5,7,10,14)    =   -119.938287    -0.000117    -0.279428  -120.217714
	   53 D(6,7,10,8)     =   -119.878168     0.000232     0.555918  -119.322250
	   54 D(6,7,10,9)     =      0.056845    -0.000001    -0.001831     0.055014
	   55 D(6,7,10,14)    =    120.091515     0.000116     0.277782   120.369297
	   56 D(7,10,14,11)   =    179.996267     0.000001     0.002416   179.998684
	   57 D(7,10,14,12)   =     59.971179     0.000047     0.064349    60.035527
	   58 D(7,10,14,13)   =    -59.987149    -0.000045    -0.060757   -60.047906
	   59 D(8,10,14,11)   =     60.008175    -0.000142    -0.338392    59.669783
	   60 D(8,10,14,12)   =    -60.016914    -0.000096    -0.276460   -60.293373
	   61 D(8,10,14,13)   =   -179.975241    -0.000189    -0.401565  -180.376806
	   62 D(9,10,14,11)   =    -59.941843     0.000142     0.336561   -59.605282
	   63 D(9,10,14,12)   =   -179.966932     0.000188     0.398493  -179.568439
	   64 D(9,10,14,13)   =     60.074741     0.000095     0.273388    60.348128
	 ---------------------------------------------------------------------------
	 Forces used to impose fixed constraints are not included.
	  Forces zeroed: 49 

  ==> Convergence Check <==

  Measures of convergence in internal coordinates in au.
  Criteria marked as inactive (o), active & met (*), and active & unmet ( ).
  --------------------------------------------------------------------------------------------- ~
   Step     Total Energy     Delta E     MAX Force     RMS Force      MAX Disp      RMS Disp    ~
  --------------------------------------------------------------------------------------------- ~
    Convergence Criteria    1.00e-06 *    3.00e-04 *             o    1.20e-03 *             o  ~
  --------------------------------------------------------------------------------------------- ~
      1    -157.81845571   -1.58e+02      7.80e-02      1.86e-02 o    5.29e-02      1.27e-02 o  ~
  ---------------------------------------------------------------------------------------------

	Writing optimization data to binary file.
	Structure for next step:
	Cartesian Geometry (in Angstrom)
	    H    -1.7008904491   0.4153353940   0.5343312449
	    H    -1.4764942755   2.0490003590  -0.0651075226
	    H    -1.2607493182   0.6799065123  -1.1398653793
	    C    -1.1285195313   1.0313780918  -0.1338846849
	    H     0.9185721922   1.5995911676  -0.4268989358
	    H     0.4775231990   1.3347878640   1.2559080019
	    C     0.3662720896   0.9717424904   0.2498646134
	    H     1.7520100747  -0.4790877524  -0.5345292117
	    H     1.3098722222  -0.7458765596   1.1464979246
	    C     0.9435751752  -0.4694233681   0.1741788279
	    H     0.3403090447  -2.4841895087  -0.3028961915
	    H    -0.4856452431  -1.2539108680  -1.2411657951
	    H    -0.9265776695  -1.5185481310   0.4320340925
	    C    -0.1107853474  -1.5065858076  -0.2671890970
			--------------------------
			 OPTKING Finished Execution 
			--------------------------

    Structure for next step:
    Molecular point group: c1
    Full point group: C1

    Geometry (in Angstrom), charge = 0, multiplicity = 1:

    H           -1.697209310793     0.416726759374     0.535514641555
    H           -1.472813137158     2.050391724358    -0.063924125946
    H           -1.257068179874     0.681297877639    -1.138681982670
    C           -1.124838392957     1.032769457206    -0.132701288234
    H            0.922253330482     1.600982533021    -0.425715539106
    H            0.481204337295     1.336179229403     1.257091398550
    C            0.369953227942     0.973133855760     0.251048010089
    H            1.755691212992    -0.477696387008    -0.533345815069
    H            1.313553360511    -0.744485194258     1.147681321296
    C            0.947256313498    -0.468032002743     0.175362224618
    H            0.343990182975    -2.482798143286    -0.301712794790
    H           -0.481964104835    -1.252519502611    -1.239982398408
    H           -0.922896531241    -1.517156765673     0.433217489124
    C           -0.107104209098    -1.505194442236    -0.266005700359

gradient() will perform analytic gradient computation.
    SCF Algorithm Type (re)set to DF.

*** tstart() called on lski1497
*** at Thu Feb 16 16:23:02 2017


         ---------------------------------------------------------
                                   SCF
            by Justin Turney, Rob Parrish, and Andy Simmonett
                              RHF Reference
                        1 Threads,   1000 MiB Core
         ---------------------------------------------------------

  ==> Geometry <==

    Molecular point group: c1
    Full point group: C1

    Geometry (in Angstrom), charge = 0, multiplicity = 1:

       Center              X                  Y                   Z               Mass       
    ------------   -----------------  -----------------  -----------------  -----------------
           H         -1.697209310793     0.416726759374     0.535514641555     1.007825032070
           H         -1.472813137158     2.050391724358    -0.063924125946     1.007825032070
           H         -1.257068179874     0.681297877639    -1.138681982670     1.007825032070
           C         -1.124838392957     1.032769457206    -0.132701288234    12.000000000000
           H          0.922253330482     1.600982533021    -0.425715539106     1.007825032070
           H          0.481204337295     1.336179229403     1.257091398550     1.007825032070
           C          0.369953227942     0.973133855760     0.251048010089    12.000000000000
           H          1.755691212992    -0.477696387008    -0.533345815069     1.007825032070
           H          1.313553360511    -0.744485194258     1.147681321296     1.007825032070
           C          0.947256313498    -0.468032002743     0.175362224618    12.000000000000
           H          0.343990182975    -2.482798143286    -0.301712794790     1.007825032070
           H         -0.481964104835    -1.252519502611    -1.239982398408     1.007825032070
           H         -0.922896531241    -1.517156765673     0.433217489124     1.007825032070
           C         -0.107104209098    -1.505194442236    -0.266005700359    12.000000000000

  Running in c1 symmetry.

  Rotational constants: A =      0.38538  B =      0.19338  C =      0.14226 [cm^-1]
  Rotational constants: A =  11553.26136  B =   5797.35395  C =   4264.75206 [MHz]
  Nuclear repulsion =  134.550746730668493

  Charge       = 0
  Multiplicity = 1
  Electrons    = 34
  Nalpha       = 17
  Nbeta        = 17

  ==> Algorithm <==

  SCF Algorithm Type is DF.
  DIIS enabled.
  MOM disabled.
  Fractional occupation disabled.
  Guess Type is READ.
  Energy threshold   = 1.00e-10
  Density threshold  = 1.00e-10
  Integral threshold = 0.00e+00

  ==> Primary Basis <==

  Basis Set: 6-31G(D)
    Number of shells: 44
    Number of basis function: 80
    Number of Cartesian functions: 80
    Spherical Harmonics?: false
    Max angular momentum: 2

  ==> Pre-Iterations <==

   -------------------------------------------------------
    Irrep   Nso     Nmo     Nalpha   Nbeta   Ndocc  Nsocc
   -------------------------------------------------------
     A         80      80       0       0       0       0
   -------------------------------------------------------
    Total      80      80      17      17      17       0
   -------------------------------------------------------

  ==> Integral Setup <==

  ==> DFJK: Density-Fitted J/K Matrices <==

    J tasked:                  Yes
    K tasked:                  Yes
    wK tasked:                  No
    OpenMP threads:              1
    Integrals threads:           1
    Memory (MB):               715
    Algorithm:                Core
    Integral Cache:           NONE
    Schwarz Cutoff:          1E-12
    Fitting Condition:       1E-12

   => Auxiliary Basis Set <=

  Basis Set: 
    Number of shells: 186
    Number of basis function: 574
    Number of Cartesian functions: 574
    Spherical Harmonics?: false
    Max angular momentum: 3

  Minimum eigenvalue in the overlap matrix is 3.6383318406E-03.
  Using Symmetric Orthogonalization.
  SCF Guess was Projection but file not found.
  Switching over to SAD guess.

  SCF Guess: Superposition of Atomic Densities via on-the-fly atomic UHF.

  ==> Iterations <==

                           Total Energy        Delta E     RMS |[F,P]|

   @DF-RHF iter   0:  -158.78688232966942   -1.58787e+02   4.57765e-02 
   @DF-RHF iter   1:  -157.17387824968910    1.61300e+00   4.56229e-03 
   @DF-RHF iter   2:  -157.27032828460563   -9.64500e-02   1.49713e-03 DIIS
   @DF-RHF iter   3:  -157.28071613538884   -1.03879e-02   5.88505e-04 DIIS
   @DF-RHF iter   4:  -157.28244456947698   -1.72843e-03   8.41455e-05 DIIS
   @DF-RHF iter   5:  -157.28249753581633   -5.29663e-05   1.76838e-05 DIIS
   @DF-RHF iter   6:  -157.28249977354864   -2.23773e-06   4.54060e-06 DIIS
   @DF-RHF iter   7:  -157.28249988097787   -1.07429e-07   1.15153e-06 DIIS
   @DF-RHF iter   8:  -157.28249989018065   -9.20278e-09   2.71176e-07 DIIS
   @DF-RHF iter   9:  -157.28249989078688   -6.06235e-10   7.42552e-08 DIIS
   @DF-RHF iter  10:  -157.28249989082940   -4.25189e-11   2.13161e-08 DIIS
   @DF-RHF iter  11:  -157.28249989083201   -2.61480e-12   4.75184e-09 DIIS
   @DF-RHF iter  12:  -157.28249989083218   -1.70530e-13   1.03292e-09 DIIS
   @DF-RHF iter  13:  -157.28249989083224   -5.68434e-14   2.06650e-10 DIIS
   @DF-RHF iter  14:  -157.28249989083236   -1.13687e-13   7.18946e-11 DIIS

  ==> Post-Iterations <==

    Orbital Energies (a.u.)
    -----------------------

    Doubly Occupied:                                                      

       1A    -11.209862     2A    -11.209312     3A    -11.201878  
       4A    -11.201791     5A     -1.068914     6A     -0.969739  
       7A     -0.883537     8A     -0.769332     9A     -0.646051  
      10A     -0.618078    11A     -0.566762    12A     -0.533672  
      13A     -0.527756    14A     -0.521425    15A     -0.454289  
      16A     -0.453794    17A     -0.452130  

    Virtual:                                                              

      18A      0.226297    19A      0.275315    20A      0.280304  
      21A      0.300606    22A      0.305857    23A      0.313690  
      24A      0.352409    25A      0.361194    26A      0.373637  
      27A      0.381486    28A      0.427593    29A      0.439950  
      30A      0.491606    31A      0.704881    32A      0.733140  
      33A      0.743591    34A      0.780894    35A      0.787332  
      36A      0.811118    37A      0.858324    38A      0.919101  
      39A      0.933368    40A      1.010202    41A      1.122938  
      42A      1.149020    43A      1.155297    44A      1.171776  
      45A      1.184671    46A      1.199584    47A      1.211648  
      48A      1.213451    49A      1.222693    50A      1.268520  
      51A      1.270805    52A      1.280241    53A      1.325404  
      54A      1.605977    55A      1.699119    56A      1.706369  
      57A      1.709280    58A      1.933200    59A      2.091436  
      60A      2.177272    61A      2.187552    62A      2.264806  
      63A      2.280276    64A      2.327438    65A      2.369488  
      66A      2.427819    67A      2.547245    68A      2.591627  
      69A      2.643749    70A      2.695580    71A      2.711150  
      72A      2.743577    73A      2.818569    74A      2.895576  
      75A      2.989839    76A      3.090067    77A      4.565039  
      78A      4.724388    79A      4.769193    80A      5.025337  

    Final Occupation by Irrep:
              A 
    DOCC [    17 ]

  Energy converged.

  @DF-RHF Final Energy:  -157.28249989083236

   => Energetics <=

    Nuclear Repulsion Energy =            134.5507467306684930
    One-Electron Energy =                -477.0898451496931330
    Two-Electron Energy =                 185.2565985281922849
    DFT Exchange-Correlation Energy =       0.0000000000000000
    Empirical Dispersion Energy =           0.0000000000000000
    PCM Polarization Energy =               0.0000000000000000
    EFP Energy =                            0.0000000000000000
    Total Energy =                       -157.2824998908323550


  Saving occupied orbitals to File 180.

*** tstop() called on lski1497 at Thu Feb 16 16:23:09 2017
Module time:
	user time   =       5.70 seconds =       0.09 minutes
	system time =       0.16 seconds =       0.00 minutes
	total time  =          7 seconds =       0.12 minutes
Total time:
	user time   =      30.09 seconds =       0.50 minutes
	system time =       0.89 seconds =       0.01 minutes
	total time  =         36 seconds =       0.60 minutes


Properties will be evaluated at   0.000000,   0.000000,   0.000000 Bohr

Properties computed using the SCF density matrix

  Nuclear Dipole Moment: (a.u.)
     X:    -0.9518      Y:    -0.3647      Z:    -0.3092

  Electronic Dipole Moment: (a.u.)
     X:     0.9819      Y:     0.3760      Z:     0.3187

  Dipole Moment: (a.u.)
     X:     0.0302      Y:     0.0113      Z:     0.0095     Total:     0.0336

  Dipole Moment: (Debye)
     X:     0.0767      Y:     0.0286      Z:     0.0240     Total:     0.0853


  //>>>>>>>>>>>>>>>>>>>>>>>>>>>>>>>>>>>//
  //               DFMP2               //
  //<<<<<<<<<<<<<<<<<<<<<<<<<<<<<<<<<<<//


*** tstart() called on lski1497
*** at Thu Feb 16 16:23:09 2017


*** tstop() called on lski1497 at Thu Feb 16 16:23:09 2017
Module time:
	user time   =       0.53 seconds =       0.01 minutes
	system time =       0.01 seconds =       0.00 minutes
	total time  =          0 seconds =       0.00 minutes
Total time:
	user time   =      30.63 seconds =       0.51 minutes
	system time =       0.90 seconds =       0.02 minutes
	total time  =         36 seconds =       0.60 minutes
	 --------------------------------------------------------
	                          DF-MP2                         
	      2nd-Order Density-Fitted Moller-Plesset Theory     
	              RMP2 Wavefunction,   1 Threads             
	                                                         
	        Rob Parrish, Justin Turney, Andy Simmonett,      
	           Ed Hohenstein, and C. David Sherrill          
	 --------------------------------------------------------

   => Auxiliary Basis Set <=

  Basis Set: 
    Number of shells: 132
    Number of basis function: 364
    Number of Cartesian functions: 414
    Spherical Harmonics?: true
    Max angular momentum: 3

	 --------------------------------------------------------
	                 NBF =    80, NAUX =   364
	 --------------------------------------------------------
	   CLASS    FOCC     OCC    AOCC    AVIR     VIR    FVIR
	   PAIRS       0      17      17      63      63       0
	 --------------------------------------------------------

DGAS Warning! /src/lib/libfock/apps.cc:80 is not currently checking restricted

         ------------------------------------------------------------
                                     CPHF                           
                                  Rob Parrish                       
         ------------------------------------------------------------

  ==> Geometry <==

    Molecular point group: c1
    Full point group: C1

    Geometry (in Angstrom), charge = 0, multiplicity = 1:

       Center              X                  Y                   Z               Mass       
    ------------   -----------------  -----------------  -----------------  -----------------
           H         -1.697209310793     0.416726759374     0.535514641555     1.007825032070
           H         -1.472813137158     2.050391724358    -0.063924125946     1.007825032070
           H         -1.257068179874     0.681297877639    -1.138681982670     1.007825032070
           C         -1.124838392957     1.032769457206    -0.132701288234    12.000000000000
           H          0.922253330482     1.600982533021    -0.425715539106     1.007825032070
           H          0.481204337295     1.336179229403     1.257091398550     1.007825032070
           C          0.369953227942     0.973133855760     0.251048010089    12.000000000000
           H          1.755691212992    -0.477696387008    -0.533345815069     1.007825032070
           H          1.313553360511    -0.744485194258     1.147681321296     1.007825032070
           C          0.947256313498    -0.468032002743     0.175362224618    12.000000000000
           H          0.343990182975    -2.482798143286    -0.301712794790     1.007825032070
           H         -0.481964104835    -1.252519502611    -1.239982398408     1.007825032070
           H         -0.922896531241    -1.517156765673     0.433217489124     1.007825032070
           C         -0.107104209098    -1.505194442236    -0.266005700359    12.000000000000

  Nuclear repulsion =  134.550746730668493
  Reference energy  = -157.282499890832355

  ==> Basis Set <==

  Basis Set: 6-31G(D)
    Number of shells: 44
    Number of basis function: 80
    Number of Cartesian functions: 80
    Spherical Harmonics?: false
    Max angular momentum: 2

  ==> CGRSolver (by Rob Parrish) <==

   Number of roots    =         1
   Preconditioning    =    JACOBI
   Convergence cutoff =     1E-06
   Maximum iterations =       100

  ==> CPHFRHamiltonian (by Rob Parrish) <== 

  ==> DFJK: Density-Fitted J/K Matrices <==

    J tasked:                  Yes
    K tasked:                  Yes
    wK tasked:                  No
    OpenMP threads:              1
    Integrals threads:           1
    Memory (MB):               715
    Algorithm:                Core
    Integral Cache:           NONE
    Schwarz Cutoff:          1E-12
    Fitting Condition:       1E-12

   => Auxiliary Basis Set <=

  Basis Set: 
    Number of shells: 186
    Number of basis function: 574
    Number of Cartesian functions: 574
    Spherical Harmonics?: false
    Max angular momentum: 3

  ==> CPHF Iterations <==

  => Iterations <=

             Iter  Converged  Remaining    Residual
  CGR           1          0          1   7.476E-02
  CGR           2          0          1   8.567E-03
  CGR           3          0          1   2.125E-03
  CGR           4          0          1   4.227E-04
  CGR           5          0          1   7.448E-05
  CGR           6          0          1   1.304E-05
  CGR           7          0          1   1.563E-06
  CGR           8          1          0   3.819E-07

    CGRSolver converged.

  ==> DFCorrGrad: Density-Fitted Correlated Gradients <==

    OpenMP threads:              1
    Integrals threads:           1
    Memory (MB):               715
    Schwarz Cutoff:          0E+00
    Fitting Condition:       1E-12

   => Auxiliary Basis Set <=

  Basis Set: 
    Number of shells: 186
    Number of basis function: 510
    Number of Cartesian functions: 574
    Spherical Harmonics?: true
    Max angular momentum: 3

	-----------------------------------------------------------
	 ==================> DF-MP2 Energies <==================== 
	-----------------------------------------------------------
	 Reference Energy          =    -157.2824998908323550 [Eh]
	 Singles Energy            =      -0.0000000000000000 [Eh]
	 Same-Spin Energy          =      -0.1245895800360657 [Eh]
	 Opposite-Spin Energy      =      -0.4215300111848320 [Eh]
	 Correlation Energy        =      -0.5461195912208977 [Eh]
	 Total Energy              =    -157.8286194820532558 [Eh]
	-----------------------------------------------------------
	 ================> DF-SCS-MP2 Energies <================== 
	-----------------------------------------------------------
	 SCS Same-Spin Scale       =       0.3333333333333333 [-]
	 SCS Opposite-Spin Scale   =       1.2000000000000000 [-]
	 SCS Same-Spin Energy      =      -0.0415298600120219 [Eh]
	 SCS Opposite-Spin Energy  =      -0.5058360134217983 [Eh]
	 SCS Correlation Energy    =      -0.5473658734338201 [Eh]
	 SCS Total Energy          =    -157.8298657642661738 [Eh]
	-----------------------------------------------------------


  -Total Gradient:
     Atom            X                  Y                   Z
    ------   -----------------  -----------------  -----------------
       1        0.009823392747     0.003588510112    -0.005931367468
       2        0.005725814076    -0.009676651314    -0.000069061615
       3        0.005417436603     0.001100976611     0.010854591279
       4       -0.023092107245    -0.007596749950    -0.007522766600
       5       -0.006721169329    -0.011140111365     0.003709566184
       6       -0.003173137360    -0.009159369442    -0.009796745676
       7        0.017013061585     0.020354726681     0.008042954592
       8       -0.012684398049     0.003095132298     0.004817172145
       9       -0.008982882387     0.005173773722    -0.009206947728
      10        0.026730722961    -0.003890447900     0.006397229437
      11       -0.002636435587     0.011197396449     0.001084184088
      12        0.004985580422     0.002005921094     0.010984329026
      13        0.009047268520     0.004668568061    -0.005779554043
      14       -0.021453146957    -0.009721675058    -0.007583583619


			-----------------------------------------
			 OPTKING 2.0: for geometry optimizations 
			  - R.A. King,  Bethel University        
			-----------------------------------------

	Previous internal coordinate definitions found.
	---Fragment 1 Geometry and Gradient---
	 H          -3.2072607876        0.7874994475        1.0119760127
	 H          -2.7832134741        3.8746788242       -0.1207990913
	 H          -2.3755145903        1.2874664037       -2.1517970997
	 C          -2.1256365064        1.9516514325       -0.2507690922
	 H           1.7428062198        3.0254185309       -0.8044857794
	 H           0.9093444114        2.5250128080        2.3755584673
	 C           0.6991102828        1.8389564780        0.4744119853
	 H           3.3177755665       -0.9027153461       -1.0078775246
	 H           2.4822561123       -1.4068731271        2.1688033851
	 C           1.7900550102       -0.8844523066        0.3313865786
	 H           0.6500472382       -4.6918085340       -0.5701545529
	 H          -0.9107801640       -2.3669188360       -2.3432271426
	 H          -1.7440216930       -2.8670107878        0.8186624104
	 C          -0.2023976229       -2.8444052726       -0.5026779235
	             0.0098233927        0.0035885101       -0.0059313675
	             0.0057258141       -0.0096766513       -0.0000690616
	             0.0054174366        0.0011009766        0.0108545913
	            -0.0230921072       -0.0075967499       -0.0075227666
	            -0.0067211693       -0.0111401114        0.0037095662
	            -0.0031731374       -0.0091593694       -0.0097967457
	             0.0170130616        0.0203547267        0.0080429546
	            -0.0126843980        0.0030951323        0.0048171721
	            -0.0089828824        0.0051737737       -0.0092069477
	             0.0267307230       -0.0038904479        0.0063972294
	            -0.0026364356        0.0111973964        0.0010841841
	             0.0049855804        0.0020059211        0.0109843290
	             0.0090472685        0.0046685681       -0.0057795540
	            -0.0214531470       -0.0097216751       -0.0075835836

	---Fragment 1 Intrafragment Coordinates---
	 - Coordinate -           - BOHR/RAD -       - ANG/DEG -
	 R(1,4)           =         2.029701	       1.074072
	 R(2,4)           =         2.036500	       1.077670
	 R(3,4)           =         2.029160	       1.073785
	 R(4,7)           =         2.918524	       1.544416
	 R(5,7)           =         2.032873	       1.075750
	 R(6,7)           =         2.032051	       1.075315
	 R(7,10)          =         2.937273	       1.554338
	 R(8,10)          =         2.031721	       1.075141
	 R(9,10)          =         2.031789	       1.075176
	 R(10,14)         =         2.916667	       1.543434
	 R(11,14)         =         2.035710	       1.077251
	 R(12,14)         =         2.029143	       1.073776
	 R(13,14)         =         2.030531	       1.074511
	 B(1,4,2)         =         1.906914	     109.258134
	 B(1,4,3)         =         1.906558	     109.237736
	 B(1,4,7)         =         1.916696	     109.818603
	 B(2,4,3)         =         1.906157	     109.214759
	 B(2,4,7)         =         1.910412	     109.458546
	 B(3,4,7)         =         1.917004	     109.836246
	 B(4,7,5)         =         1.894477	     108.545536
	 B(4,7,6)         =         1.896068	     108.636723
	 B(4,7,10)        =         1.964036	     112.530992
	 B(5,7,6)         =         1.916032	     109.780526
	 B(5,7,10)        =         1.896338	     108.652177
	 B(6,7,10)        =         1.896701	     108.672960
	 B(7,10,8)        =         1.896221	     108.645442
	 B(7,10,9)        =         1.897479	     108.717526
	 B(7,10,14)       =         1.964117	     112.535641
	 B(8,10,9)        =         1.915197	     109.732680
	 B(8,10,14)       =         1.895602	     108.609966
	 B(9,10,14)       =         1.895002	     108.575645
	 B(10,14,11)      =         1.910541	     109.465948
	 B(10,14,12)      =         1.917439	     109.861134
	 B(10,14,13)      =         1.917754	     109.879193
	 B(11,14,12)      =         1.906748	     109.248601
	 B(11,14,13)      =         1.906451	     109.231615
	 B(12,14,13)      =         1.904799	     109.136953
	 D(1,4,7,5)       =        -3.135204	    -179.633974
	 D(1,4,7,6)       =        -1.052492	     -60.303375
	 D(1,4,7,10)      =         1.048511	      60.075244
	 D(2,4,7,5)       =        -1.041785	     -59.689885
	 D(2,4,7,6)       =         1.040927	      59.640714
	 D(2,4,7,10)      =        -3.141255	    -179.980667
	 D(3,4,7,5)       =         1.050894	      60.211785
	 D(3,4,7,6)       =         3.133606	     179.542385
	 D(3,4,7,10)      =        -1.048576	     -60.078997
	 D(4,7,10,8)      =         2.099980	     120.320010
	 D(4,7,10,9)      =        -2.099679	    -120.302726
	 D(4,7,10,14)     =         0.000202	       0.011558
	 D(5,7,10,8)      =         0.001584	       0.090738
	 D(5,7,10,9)      =         2.085110	     119.468002
	 D(5,7,10,14)     =        -2.098195	    -120.217714
	 D(6,7,10,8)      =        -2.082566	    -119.322250
	 D(6,7,10,9)      =         0.000960	       0.055014
	 D(6,7,10,14)     =         2.100841	     120.369297
	 D(7,10,14,11)    =         3.141570	     179.998684
	 D(7,10,14,12)    =         1.047818	      60.035527
	 D(7,10,14,13)    =        -1.048034	     -60.047906
	 D(8,10,14,11)    =         1.041434	      59.669783
	 D(8,10,14,12)    =        -1.052318	     -60.293373
	 D(8,10,14,13)    =         3.135016	     179.623194
	 D(9,10,14,11)    =        -1.040308	     -59.605282
	 D(9,10,14,12)    =        -3.134060	    -179.568439
	 D(9,10,14,13)    =         1.053274	      60.348128

	Current energy   :      -157.8286194821

	Energy change for the previous step:
		Projected    :        -0.0144412637
		Actual       :        -0.0101637755

	Performing BFGS update.
	Previous computed or guess Hessian on step 1.
	Steps to be used in Hessian update: 1
	Adding user-defined constraint: Fragment 1; Coordinate 49:
		Value =     0.000202; Fixed value    =     0.000020
		Force =    -0.000095; Force constant =     0.525000
	Removing off-diagonal coupling between coordinate 49 and others.
	Taking RFO optimization step.
	Going to follow RFO solution 1.
	Using RFO vector 1.

	Determining step-restricting scale parameter for RS-RFO.
	Maximum step size allowed    0.10000

	 Iter      |step|        alpha        rfo_root  
	------------------------------------------------
	    0     0.19205       1.00000           1
	    1     0.14504       7.29296           1
	    2     0.11698      18.20102           1
	    3     0.10362      28.27931           1
	    4     0.10022      31.70840           1
	    5     0.10000      31.94479           1
	------------------------------------------------
	Norm of target step-size    0.10000
	Projected energy change by RFO approximation:        -0.0056434090

	Back-transformation to cartesian coordinates...
	Successfully converged to displaced geometry.

	--- Internal Coordinate Step in ANG or DEG, aJ/ANG or AJ/DEG ---
	 ---------------------------------------------------------------------------
	   Coordinate                Previous        Force       Change         New 
	   ----------                --------       ------       ------       ------
	    1 R(1,4)          =      1.074072     0.090487     0.012449     1.086521
	    2 R(2,4)          =      1.077670     0.090549     0.010906     1.088575
	    3 R(3,4)          =      1.073785     0.092246     0.012649     1.086434
	    4 R(4,7)          =      1.544416    -0.018408    -0.005045     1.539371
	    5 R(5,7)          =      1.075750     0.101223     0.012272     1.088022
	    6 R(6,7)          =      1.075315     0.103695     0.012556     1.087870
	    7 R(7,10)         =      1.554338     0.111270     0.004593     1.558931
	    8 R(8,10)         =      1.075141     0.104970     0.012702     1.087842
	    9 R(9,10)         =      1.075176     0.104770     0.012679     1.087856
	   10 R(10,14)        =      1.543434    -0.014528    -0.004476     1.538958
	   11 R(11,14)        =      1.077251     0.093110     0.011200     1.088452
	   12 R(12,14)        =      1.073776     0.092536     0.012685     1.086461
	   13 R(13,14)        =      1.074511     0.088005     0.012164     1.086675
	   14 B(1,4,2)        =    109.258134    -0.000305    -0.564151   108.693983
	   15 B(1,4,3)        =    109.237736    -0.000260    -0.621903   108.615832
	   16 B(1,4,7)        =    109.818603     0.000400     0.745974   110.564577
	   17 B(2,4,3)        =    109.214759    -0.000298    -0.546054   108.668705
	   18 B(2,4,7)        =    109.458546     0.000064     0.229975   109.688521
	   19 B(3,4,7)        =    109.836246     0.000391     0.723140   110.559386
	   20 B(4,7,5)        =    108.545536    -0.000636    -0.427948   108.117589
	   21 B(4,7,6)        =    108.636723    -0.000644    -0.445212   108.191511
	   22 B(4,7,10)       =    112.530992     0.002167     1.499678   114.030670
	   23 B(5,7,6)        =    109.780526     0.000102    -0.466188   109.314338
	   24 B(5,7,10)       =    108.652177    -0.000503    -0.103982   108.548195
	   25 B(6,7,10)       =    108.672960    -0.000502    -0.106179   108.566781
	   26 B(7,10,8)       =    108.645442    -0.000501    -0.096686   108.548756
	   27 B(7,10,9)       =    108.717526    -0.000512    -0.133185   108.584341
	   28 B(7,10,14)      =    112.535641     0.002170     1.506714   114.042355
	   29 B(8,10,9)       =    109.732680     0.000105    -0.456453   109.276226
	   30 B(8,10,14)      =    108.609966    -0.000642    -0.443702   108.166264
	   31 B(9,10,14)      =    108.575645    -0.000638    -0.427243   108.148401
	   32 B(10,14,11)     =    109.465948     0.000068     0.238349   109.704297
	   33 B(10,14,12)     =    109.861134     0.000391     0.722408   110.583542
	   34 B(10,14,13)     =    109.879193     0.000385     0.712333   110.591526
	   35 B(11,14,12)     =    109.248601    -0.000303    -0.557431   108.691170
	   36 B(11,14,13)     =    109.231615    -0.000300    -0.555298   108.676317
	   37 B(12,14,13)     =    109.136953    -0.000250    -0.594265   108.542687
	   38 D(1,4,7,5)      =   -179.633974     0.000090     0.610745  -179.023229
	   39 D(1,4,7,6)      =    -60.303375    -0.000050    -0.436368   -60.739742
	   40 D(1,4,7,10)     =     60.075244     0.000020     0.081535    60.156778
	   41 D(2,4,7,5)      =    -59.689885     0.000070     0.523125   -59.166760
	   42 D(2,4,7,6)      =     59.640714    -0.000071    -0.523988    59.116727
	   43 D(2,4,7,10)     =   -179.980667    -0.000000    -0.006085  -179.986752
	   44 D(3,4,7,5)      =     60.211785     0.000050     0.443350    60.655135
	   45 D(3,4,7,6)      =    179.542385    -0.000090    -0.603763   178.938622
	   46 D(3,4,7,10)     =    -60.078997    -0.000020    -0.085860   -60.164857
	   47 D(4,7,10,8)     =    120.320010     0.000053     0.344183   120.664193
	   48 D(4,7,10,9)     =   -120.302726    -0.000052    -0.335429  -120.638154
	   49 D(4,7,10,14)    =      0.011558     0.000000     0.002835     0.014393
	   50 D(5,7,10,8)     =      0.090738    -0.000000    -0.006228     0.084510
	   51 D(5,7,10,9)     =    119.468002    -0.000106    -0.685840   118.782162
	   52 D(5,7,10,14)    =   -120.217714    -0.000053    -0.347576  -120.565291
	   53 D(6,7,10,8)     =   -119.322250     0.000105     0.673737  -118.648514
	   54 D(6,7,10,9)     =      0.055014    -0.000001    -0.005875     0.049139
	   55 D(6,7,10,14)    =    120.369297     0.000052     0.332388   120.701686
	   56 D(7,10,14,11)   =    179.998684     0.000001     0.012584   180.011268
	   57 D(7,10,14,12)   =     60.035527     0.000021     0.100770    60.136297
	   58 D(7,10,14,13)   =    -60.047906    -0.000020    -0.079246   -60.127152
	   59 D(8,10,14,11)   =     59.669783    -0.000070    -0.521600    59.148183
	   60 D(8,10,14,12)   =    -60.293373    -0.000050    -0.433414   -60.726788
	   61 D(8,10,14,13)   =    179.623194    -0.000091    -0.613430   179.009763
	   62 D(9,10,14,11)   =    -59.605282     0.000069     0.512141   -59.093141
	   63 D(9,10,14,12)   =   -179.568439     0.000090     0.600327  -178.968112
	   64 D(9,10,14,13)   =     60.348128     0.000049     0.420311    60.768439
	 ---------------------------------------------------------------------------
	 Forces used to impose fixed constraints are not included.
	  Forces zeroed: 49 

  ==> Convergence Check <==

  Measures of convergence in internal coordinates in au.
  Criteria marked as inactive (o), active & met (*), and active & unmet ( ).
  ---------------------------------------------------------------------------------------------
   Step     Total Energy     Delta E     MAX Force     RMS Force      MAX Disp      RMS Disp   
  ---------------------------------------------------------------------------------------------
    Convergence Criteria    1.00e-06 *    3.00e-04 *             o    1.20e-03 *             o
  ---------------------------------------------------------------------------------------------
      2    -157.82861948   -1.02e-02      2.85e-02      8.06e-03 o    2.63e-02      1.25e-02 o  ~
  ---------------------------------------------------------------------------------------------

	Writing optimization data to binary file.
	Structure for next step:
	Cartesian Geometry (in Angstrom)
	    H    -1.7190790219   0.4667150217   0.5798305303
	    H    -1.4636533268   2.1031395887  -0.0370778746
	    H    -1.3216729010   0.7152753007  -1.1215774719
	    C    -1.1347744374   1.0680812621  -0.1111642997
	    H     0.9085277592   1.6030108862  -0.4770653036
	    H     0.5102510757   1.3539675286   1.2345355640
	    C     0.3644834706   0.9749318566   0.2253053007
	    H     1.7455456174  -0.4838706236  -0.5853622260
	    H     1.3459047532  -0.7344052133   1.1251043267
	    C     0.9435204711  -0.4704854113   0.1494692964
	    H     0.3877594324  -2.5174263373  -0.2792982057
	    H    -0.5047483279  -1.3235904518  -1.2286417067
	    H    -0.9025776291  -1.5720725259   0.4719918789
	    C    -0.0894788359  -1.5396718824  -0.2482043682
			--------------------------
			 OPTKING Finished Execution 
			--------------------------

    Structure for next step:
    Molecular point group: c1
    Full point group: C1

    Geometry (in Angstrom), charge = 0, multiplicity = 1:

    H           -1.718792044964     0.466681151408     0.582157980965
    H           -1.463366349885     2.103105718430    -0.034750424007
    H           -1.321385924154     0.715241430367    -1.119250021243
    C           -1.134487460484     1.068047391818    -0.108836849101
    H            0.908814736117     1.602977015895    -0.474737853021
    H            0.510538052608     1.353933658270     1.236863014660
    C            0.364770447483     0.974897986351     0.227632751274
    H            1.745832594271    -0.483904493913    -0.583034775373
    H            1.346191730131    -0.734439083576     1.127431777300
    C            0.943807447959    -0.470519281617     0.151796747030
    H            0.388046409249    -2.517460207557    -0.276970755072
    H           -0.504461351013    -1.323624322090    -1.226314256065
    H           -0.902290652171    -1.572106396185     0.474319329487
    C           -0.089191858968    -1.539705752680    -0.245876917568

gradient() will perform analytic gradient computation.
    SCF Algorithm Type (re)set to DF.

*** tstart() called on lski1497
*** at Thu Feb 16 16:23:32 2017


         ---------------------------------------------------------
                                   SCF
            by Justin Turney, Rob Parrish, and Andy Simmonett
                              RHF Reference
                        1 Threads,   1000 MiB Core
         ---------------------------------------------------------

  ==> Geometry <==

    Molecular point group: c1
    Full point group: C1

    Geometry (in Angstrom), charge = 0, multiplicity = 1:

       Center              X                  Y                   Z               Mass       
    ------------   -----------------  -----------------  -----------------  -----------------
           H         -1.718792044964     0.466681151408     0.582157980965     1.007825032070
           H         -1.463366349885     2.103105718430    -0.034750424007     1.007825032070
           H         -1.321385924154     0.715241430367    -1.119250021243     1.007825032070
           C         -1.134487460484     1.068047391818    -0.108836849101    12.000000000000
           H          0.908814736117     1.602977015895    -0.474737853021     1.007825032070
           H          0.510538052608     1.353933658270     1.236863014660     1.007825032070
           C          0.364770447483     0.974897986351     0.227632751274    12.000000000000
           H          1.745832594271    -0.483904493913    -0.583034775373     1.007825032070
           H          1.346191730131    -0.734439083576     1.127431777300     1.007825032070
           C          0.943807447959    -0.470519281617     0.151796747030    12.000000000000
           H          0.388046409249    -2.517460207557    -0.276970755072     1.007825032070
           H         -0.504461351013    -1.323624322090    -1.226314256065     1.007825032070
           H         -0.902290652171    -1.572106396185     0.474319329487     1.007825032070
           C         -0.089191858968    -1.539705752680    -0.245876917568    12.000000000000

  Running in c1 symmetry.

  Rotational constants: A =      0.38996  B =      0.18553  C =      0.13878 [cm^-1]
  Rotational constants: A =  11690.74134  B =   5562.08091  C =   4160.61378 [MHz]
  Nuclear repulsion =  133.432966886212995

  Charge       = 0
  Multiplicity = 1
  Electrons    = 34
  Nalpha       = 17
  Nbeta        = 17

  ==> Algorithm <==

  SCF Algorithm Type is DF.
  DIIS enabled.
  MOM disabled.
  Fractional occupation disabled.
  Guess Type is READ.
  Energy threshold   = 1.00e-10
  Density threshold  = 1.00e-10
  Integral threshold = 0.00e+00

  ==> Primary Basis <==

  Basis Set: 6-31G(D)
    Number of shells: 44
    Number of basis function: 80
    Number of Cartesian functions: 80
    Spherical Harmonics?: false
    Max angular momentum: 2

  ==> Pre-Iterations <==

   -------------------------------------------------------
    Irrep   Nso     Nmo     Nalpha   Nbeta   Ndocc  Nsocc
   -------------------------------------------------------
     A         80      80       0       0       0       0
   -------------------------------------------------------
    Total      80      80      17      17      17       0
   -------------------------------------------------------

  ==> Integral Setup <==

  ==> DFJK: Density-Fitted J/K Matrices <==

    J tasked:                  Yes
    K tasked:                  Yes
    wK tasked:                  No
    OpenMP threads:              1
    Integrals threads:           1
    Memory (MB):               715
    Algorithm:                Core
    Integral Cache:           NONE
    Schwarz Cutoff:          1E-12
    Fitting Condition:       1E-12

   => Auxiliary Basis Set <=

  Basis Set: 
    Number of shells: 186
    Number of basis function: 574
    Number of Cartesian functions: 574
    Spherical Harmonics?: false
    Max angular momentum: 3

  Minimum eigenvalue in the overlap matrix is 3.8306069223E-03.
  Using Symmetric Orthogonalization.
  SCF Guess was Projection but file not found.
  Switching over to SAD guess.

  SCF Guess: Superposition of Atomic Densities via on-the-fly atomic UHF.

  ==> Iterations <==

                           Total Energy        Delta E     RMS |[F,P]|

   @DF-RHF iter   0:  -158.67684417310610   -1.58677e+02   4.49211e-02 
   @DF-RHF iter   1:  -157.17588580773278    1.50096e+00   4.57451e-03 
   @DF-RHF iter   2:  -157.27327166723134   -9.73859e-02   1.53691e-03 DIIS
   @DF-RHF iter   3:  -157.28400763782938   -1.07360e-02   6.01098e-04 DIIS
   @DF-RHF iter   4:  -157.28584161274537   -1.83397e-03   8.39489e-05 DIIS
   @DF-RHF iter   5:  -157.28589445594193   -5.28432e-05   1.73977e-05 DIIS
   @DF-RHF iter   6:  -157.28589664627995   -2.19034e-06   4.40865e-06 DIIS
   @DF-RHF iter   7:  -157.28589674634608   -1.00066e-07   1.12265e-06 DIIS
   @DF-RHF iter   8:  -157.28589675488732   -8.54124e-09   2.61358e-07 DIIS
   @DF-RHF iter   9:  -157.28589675544205   -5.54735e-10   7.28085e-08 DIIS
   @DF-RHF iter  10:  -157.28589675548298   -4.09273e-11   2.10675e-08 DIIS
   @DF-RHF iter  11:  -157.28589675548548   -2.50111e-12   4.57944e-09 DIIS
   @DF-RHF iter  12:  -157.28589675548560   -1.13687e-13   9.88184e-10 DIIS
   @DF-RHF iter  13:  -157.28589675548577   -1.70530e-13   2.11580e-10 DIIS
   @DF-RHF iter  14:  -157.28589675548560    1.70530e-13   7.21795e-11 DIIS

  ==> Post-Iterations <==

    Orbital Energies (a.u.)
    -----------------------

    Doubly Occupied:                                                      

       1A    -11.214379     2A    -11.213858     3A    -11.206954  
       4A    -11.206921     5A     -1.065307     6A     -0.970258  
       7A     -0.878139     8A     -0.766269     9A     -0.640757  
      10A     -0.613416    11A     -0.565127    12A     -0.533629  
      13A     -0.522062    14A     -0.520579    15A     -0.454982  
      16A     -0.453253    17A     -0.450666  

    Virtual:                                                              

      18A      0.223177    19A      0.273144    20A      0.276830  
      21A      0.297542    22A      0.302916    23A      0.311904  
      24A      0.347861    25A      0.363481    26A      0.365351  
      27A      0.375111    28A      0.426543    29A      0.429497  
      30A      0.493606    31A      0.705187    32A      0.731886  
      33A      0.734269    34A      0.789732    35A      0.793776  
      36A      0.814279    37A      0.860357    38A      0.914787  
      39A      0.936532    40A      1.009446    41A      1.120746  
      42A      1.137025    43A      1.144007    44A      1.161460  
      45A      1.169626    46A      1.179205    47A      1.198042  
      48A      1.204788    49A      1.212686    50A      1.253093  
      51A      1.256382    52A      1.278130    53A      1.309936  
      54A      1.598714    55A      1.675042    56A      1.698883  
      57A      1.715588    58A      1.935201    59A      2.081925  
      60A      2.152558    61A      2.170169    62A      2.255001  
      63A      2.276418    64A      2.325220    65A      2.364185  
      66A      2.417661    67A      2.531493    68A      2.581061  
      69A      2.630217    70A      2.670725    71A      2.709161  
      72A      2.732781    73A      2.796555    74A      2.891084  
      75A      2.987322    76A      3.086152    77A      4.549132  
      78A      4.717082    79A      4.760362    80A      5.014825  

    Final Occupation by Irrep:
              A 
    DOCC [    17 ]

  Energy converged.

  @DF-RHF Final Energy:  -157.28589675548560

   => Energetics <=

    Nuclear Repulsion Energy =            133.4329668862129950
    One-Electron Energy =                -474.8846147895361582
    Two-Electron Energy =                 184.1657511478375966
    DFT Exchange-Correlation Energy =       0.0000000000000000
    Empirical Dispersion Energy =           0.0000000000000000
    PCM Polarization Energy =               0.0000000000000000
    EFP Energy =                            0.0000000000000000
    Total Energy =                       -157.2858967554855951


  Saving occupied orbitals to File 180.

*** tstop() called on lski1497 at Thu Feb 16 16:23:39 2017
Module time:
	user time   =       5.97 seconds =       0.10 minutes
	system time =       0.16 seconds =       0.00 minutes
	total time  =          7 seconds =       0.12 minutes
Total time:
	user time   =      56.07 seconds =       0.93 minutes
	system time =       1.56 seconds =       0.03 minutes
	total time  =         66 seconds =       1.10 minutes


Properties will be evaluated at   0.000000,   0.000000,   0.000000 Bohr

Properties computed using the SCF density matrix

  Nuclear Dipole Moment: (a.u.)
     X:    -0.9477      Y:    -0.3652      Z:    -0.2759

  Electronic Dipole Moment: (a.u.)
     X:     0.9759      Y:     0.3761      Z:     0.2839

  Dipole Moment: (a.u.)
     X:     0.0282      Y:     0.0108      Z:     0.0081     Total:     0.0313

  Dipole Moment: (Debye)
     X:     0.0718      Y:     0.0276      Z:     0.0205     Total:     0.0796


  //>>>>>>>>>>>>>>>>>>>>>>>>>>>>>>>>>>>//
  //               DFMP2               //
  //<<<<<<<<<<<<<<<<<<<<<<<<<<<<<<<<<<<//


*** tstart() called on lski1497
*** at Thu Feb 16 16:23:39 2017


*** tstop() called on lski1497 at Thu Feb 16 16:23:40 2017
Module time:
	user time   =       0.57 seconds =       0.01 minutes
	system time =       0.01 seconds =       0.00 minutes
	total time  =          1 seconds =       0.02 minutes
Total time:
	user time   =      56.66 seconds =       0.94 minutes
	system time =       1.57 seconds =       0.03 minutes
	total time  =         67 seconds =       1.12 minutes
	 --------------------------------------------------------
	                          DF-MP2                         
	      2nd-Order Density-Fitted Moller-Plesset Theory     
	              RMP2 Wavefunction,   1 Threads             
	                                                         
	        Rob Parrish, Justin Turney, Andy Simmonett,      
	           Ed Hohenstein, and C. David Sherrill          
	 --------------------------------------------------------

   => Auxiliary Basis Set <=

  Basis Set: 
    Number of shells: 132
    Number of basis function: 364
    Number of Cartesian functions: 414
    Spherical Harmonics?: true
    Max angular momentum: 3

	 --------------------------------------------------------
	                 NBF =    80, NAUX =   364
	 --------------------------------------------------------
	   CLASS    FOCC     OCC    AOCC    AVIR     VIR    FVIR
	   PAIRS       0      17      17      63      63       0
	 --------------------------------------------------------

DGAS Warning! /src/lib/libfock/apps.cc:80 is not currently checking restricted

         ------------------------------------------------------------
                                     CPHF                           
                                  Rob Parrish                       
         ------------------------------------------------------------

  ==> Geometry <==

    Molecular point group: c1
    Full point group: C1

    Geometry (in Angstrom), charge = 0, multiplicity = 1:

       Center              X                  Y                   Z               Mass       
    ------------   -----------------  -----------------  -----------------  -----------------
           H         -1.718792044964     0.466681151408     0.582157980965     1.007825032070
           H         -1.463366349885     2.103105718430    -0.034750424007     1.007825032070
           H         -1.321385924154     0.715241430367    -1.119250021243     1.007825032070
           C         -1.134487460484     1.068047391818    -0.108836849101    12.000000000000
           H          0.908814736117     1.602977015895    -0.474737853021     1.007825032070
           H          0.510538052608     1.353933658270     1.236863014660     1.007825032070
           C          0.364770447483     0.974897986351     0.227632751274    12.000000000000
           H          1.745832594271    -0.483904493913    -0.583034775373     1.007825032070
           H          1.346191730131    -0.734439083576     1.127431777300     1.007825032070
           C          0.943807447959    -0.470519281617     0.151796747030    12.000000000000
           H          0.388046409249    -2.517460207557    -0.276970755072     1.007825032070
           H         -0.504461351013    -1.323624322090    -1.226314256065     1.007825032070
           H         -0.902290652171    -1.572106396185     0.474319329487     1.007825032070
           C         -0.089191858968    -1.539705752680    -0.245876917568    12.000000000000

  Nuclear repulsion =  133.432966886212967
  Reference energy  = -157.285896755485595

  ==> Basis Set <==

  Basis Set: 6-31G(D)
    Number of shells: 44
    Number of basis function: 80
    Number of Cartesian functions: 80
    Spherical Harmonics?: false
    Max angular momentum: 2

  ==> CGRSolver (by Rob Parrish) <==

[...]
    Schwarz Cutoff:          1E-12
    Fitting Condition:       1E-12

   => Auxiliary Basis Set <=

  Basis Set: 
    Number of shells: 186
    Number of basis function: 574
    Number of Cartesian functions: 574
    Spherical Harmonics?: false
    Max angular momentum: 3

  ==> CPHF Iterations <==

  => Iterations <=

             Iter  Converged  Remaining    Residual
  CGR           1          0          1   7.597E-02
  CGR           2          0          1   8.907E-03
  CGR           3          0          1   2.229E-03
  CGR           4          0          1   4.268E-04
  CGR           5          0          1   7.572E-05
  CGR           6          0          1   1.452E-05
  CGR           7          0          1   2.051E-06
  CGR           8          1          0   5.023E-07

    CGRSolver converged.

  ==> DFCorrGrad: Density-Fitted Correlated Gradients <==

    OpenMP threads:              1
    Integrals threads:           1
    Memory (MB):               715
    Schwarz Cutoff:          0E+00
    Fitting Condition:       1E-12

   => Auxiliary Basis Set <=

  Basis Set: 
    Number of shells: 186
    Number of basis function: 510
    Number of Cartesian functions: 574
    Spherical Harmonics?: true
    Max angular momentum: 3

	-----------------------------------------------------------
	 ==================> DF-MP2 Energies <==================== 
	-----------------------------------------------------------
	 Reference Energy          =    -157.2879799255047431 [Eh]
	 Singles Energy            =      -0.0000000000000000 [Eh]
	 Same-Spin Energy          =      -0.1242217515487396 [Eh]
	 Opposite-Spin Energy      =      -0.4226122650487801 [Eh]
	 Correlation Energy        =      -0.5468340165975197 [Eh]
	 Total Energy              =    -157.8348139421022722 [Eh]
	-----------------------------------------------------------
	 ================> DF-SCS-MP2 Energies <================== 
	-----------------------------------------------------------
	 SCS Same-Spin Scale       =       0.3333333333333333 [-]
	 SCS Opposite-Spin Scale   =       1.2000000000000000 [-]
	 SCS Same-Spin Energy      =      -0.0414072505162465 [Eh]
	 SCS Opposite-Spin Energy  =      -0.5071347180585360 [Eh]
	 SCS Correlation Energy    =      -0.5485419685747825 [Eh]
	 SCS Total Energy          =    -157.8365218940795387 [Eh]
	-----------------------------------------------------------


  -Total Gradient:
     Atom            X                  Y                   Z
    ------   -----------------  -----------------  -----------------
       1       -0.000044399411    -0.000036209148     0.000016077415
       2       -0.000040696053     0.000019894715    -0.000005580501
       3       -0.000029874889    -0.000025121724    -0.000040279163
       4        0.000213688150    -0.000070983718     0.000033247093
       5        0.000026641384     0.000039036346     0.000001416095
       6        0.000024905092     0.000036199641     0.000018496924
       7       -0.000099841958    -0.000091655523    -0.000026514308
       8        0.000047323401    -0.000008285773     0.000001234301
       9        0.000040931744    -0.000012748596     0.000017886603
      10       -0.000130438898     0.000003124433    -0.000040108556
      11       -0.000015258776    -0.000041877383    -0.000009280758
      12       -0.000039792404     0.000000452031    -0.000039407105
      13       -0.000054099366    -0.000004417509     0.000017650498
      14        0.000100911984     0.000192592205     0.000055161461


			-----------------------------------------
			 OPTKING 2.0: for geometry optimizations 
			  - R.A. King,  Bethel University        
			-----------------------------------------

	Previous internal coordinate definitions found.
	---Fragment 1 Geometry and Gradient---
	 H          -3.3279449254        1.0317129223        1.1254947908
	 H          -2.7068380512        4.0965823587       -0.0255638307
	 H          -2.6018249511        1.4914564394       -2.1007577008
	 C          -2.1516316919        2.1118599755       -0.1834354929
	 H           1.7172646383        3.0457159447       -0.8844708678
	 H           1.0009783681        2.5924567614        2.2990188229
	 C           0.6593476363        1.8237917380        0.4081209643
	 H           3.3097668372       -0.9284219954       -1.0917794731
	 H           2.5929369724       -1.3818167833        2.0915771199
	 C           1.7483849851       -0.8943374903        0.2661527853
	 H           0.8612674065       -4.8090553056       -0.4907263298
	 H          -0.9316798946       -2.6764917389       -2.3187350266
	 H          -1.6583475681       -3.1355326782        0.9075064324
	 C          -0.1095949863       -2.9847589394       -0.4498167492
	            -0.0000443994       -0.0000362091        0.0000160774
	            -0.0000406961        0.0000198947       -0.0000055805
	            -0.0000298749       -0.0000251217       -0.0000402792
	             0.0002136882       -0.0000709837        0.0000332471
	             0.0000266414        0.0000390363        0.0000014161
	             0.0000249051        0.0000361996        0.0000184969
	            -0.0000998420       -0.0000916555       -0.0000265143
	             0.0000473234       -0.0000082858        0.0000012343
	             0.0000409317       -0.0000127486        0.0000178866
	            -0.0001304389        0.0000031244       -0.0000401086
	            -0.0000152588       -0.0000418774       -0.0000092808
	            -0.0000397924        0.0000004520       -0.0000394071
	            -0.0000540994       -0.0000044175        0.0000176505
	             0.0001009120        0.0001925922        0.0000551615

	---Fragment 1 Intrafragment Coordinates---
	 - Coordinate -           - BOHR/RAD -       - ANG/DEG -
	 R(1,4)           =         2.064880	       1.092687
	 R(2,4)           =         2.066954	       1.093785
	 R(3,4)           =         2.064873	       1.092684
	 R(4,7)           =         2.886958	       1.527712
	 R(5,7)           =         2.069561	       1.095164
	 R(6,7)           =         2.069554	       1.095161
	 R(7,10)          =         2.931618	       1.551345
	 R(8,10)          =         2.069554	       1.095161
	 R(9,10)          =         2.069560	       1.095164
	 R(10,14)         =         2.886964	       1.527716
	 R(11,14)         =         2.066955	       1.093786
	 R(12,14)         =         2.064875	       1.092685
	 R(13,14)         =         2.064871	       1.092683
	 B(1,4,2)         =         1.876385	     107.508957
	 B(1,4,3)         =         1.883078	     107.892446
	 B(1,4,7)         =         1.952602	     111.875835
	 B(2,4,3)         =         1.876391	     107.509260
	 B(2,4,7)         =         1.919526	     109.980718
	 B(3,4,7)         =         1.952574	     111.874257
	 B(4,7,5)         =         1.886866	     108.109434
	 B(4,7,6)         =         1.886923	     108.112700
	 B(4,7,10)        =         2.031185	     116.378346
	 B(5,7,6)         =         1.841054	     105.484620
	 B(5,7,10)        =         1.904232	     109.104460
	 B(6,7,10)        =         1.904233	     109.104523
	 B(7,10,8)        =         1.904251	     109.105544
	 B(7,10,9)        =         1.904214	     109.103450
	 B(7,10,14)       =         2.031182	     116.378170
	 B(8,10,9)        =         1.841061	     105.484997
	 B(8,10,14)       =         1.886933	     108.113312
	 B(9,10,14)       =         1.886852	     108.108667
	 B(10,14,11)      =         1.919520	     109.980420
	 B(10,14,12)      =         1.952596	     111.875506
	 B(10,14,13)      =         1.952566	     111.873808
	 B(11,14,12)      =         1.876384	     107.508894
	 B(11,14,13)      =         1.876397	     107.509653
	 B(12,14,13)      =         1.883092	     107.893250
	 D(1,4,7,5)       =        -3.076625	    -176.277608
	 D(1,4,7,6)       =        -1.091571	     -62.542438
	 D(1,4,7,10)      =         1.057518	      60.591335
	 D(2,4,7,5)       =        -0.992652	     -56.874742
	 D(2,4,7,6)       =         0.992402	      56.860427
	 D(2,4,7,10)      =         3.141491	     179.994200
	 D(3,4,7,5)       =         1.091311	      62.527488
	 D(3,4,7,6)       =         3.076364	     176.262657
	 D(3,4,7,10)      =        -1.057732	     -60.603570
	 D(4,7,10,8)      =         2.140170	     122.622725
	 D(4,7,10,9)      =        -2.139888	    -122.606551
	 D(4,7,10,14)     =         0.000072	       0.004143
	 D(5,7,10,8)      =         0.000176	       0.010063
	 D(5,7,10,9)      =         2.003303	     114.780787
	 D(5,7,10,14)     =        -2.139922	    -122.608520
	 D(6,7,10,8)      =        -2.002943	    -114.760207
	 D(6,7,10,9)      =         0.000184	       0.010517
	 D(6,7,10,14)     =         2.140144	     122.621211
	 D(7,10,14,11)    =        -3.141414	    -179.989748
	 D(7,10,14,12)    =         1.057807	      60.607877
	 D(7,10,14,13)    =        -1.057452	     -60.587511
	 D(8,10,14,11)    =         0.992652	      56.874759
	 D(8,10,14,12)    =        -1.091313	     -62.527617
	 D(8,10,14,13)    =         3.076614	     176.276995
	 D(9,10,14,11)    =        -0.992408	     -56.860772
	 D(9,10,14,12)    =        -3.076372	    -176.263147
	 D(9,10,14,13)    =         1.091554	      62.541464

	Current energy   :      -157.8348139421

	Energy change for the previous step:
		Projected    :        -0.0000028425
		Actual       :        -0.0000022876

	Performing BFGS update.
	Previous computed or guess Hessian on step 1.
	Steps to be used in Hessian update: 6 5
	Adding user-defined constraint: Fragment 1; Coordinate 49:
		Value =     0.000072; Fixed value    =     0.000020
		Force =    -0.000034; Force constant =     0.650000
	Removing off-diagonal coupling between coordinate 49 and others.
	Taking RFO optimization step.
	Going to follow RFO solution 1.
	Using RFO vector 1.
	Norm of target step-size    0.00219
	Projected energy change by RFO approximation:        -0.0000005486

	Back-transformation to cartesian coordinates...
	Successfully converged to displaced geometry.

	--- Internal Coordinate Step in ANG or DEG, aJ/ANG or AJ/DEG ---
	 ---------------------------------------------------------------------------
	   Coordinate                Previous        Force       Change         New 
	   ----------                --------       ------       ------       ------
	    1 R(1,4)          =      1.092687    -0.000448    -0.000070     1.092618
	    2 R(2,4)          =      1.093785    -0.000244    -0.000057     1.093729
	    3 R(3,4)          =      1.092684    -0.000424    -0.000064     1.092619
	    4 R(4,7)          =      1.527712     0.000890     0.000215     1.527927
	    5 R(5,7)          =      1.095164    -0.000295    -0.000037     1.095127
	    6 R(6,7)          =      1.095161    -0.000284    -0.000034     1.095127
	    7 R(7,10)         =      1.551345     0.001140     0.000074     1.551419
	    8 R(8,10)         =      1.095161    -0.000289    -0.000035     1.095126
	    9 R(9,10)         =      1.095164    -0.000292    -0.000037     1.095127
	   10 R(10,14)        =      1.527716     0.000881     0.000212     1.527927
	   11 R(11,14)        =      1.093786    -0.000247    -0.000057     1.093729
	   12 R(12,14)        =      1.092685    -0.000425    -0.000065     1.092620
	   13 R(13,14)        =      1.092683    -0.000433    -0.000066     1.092617
	   14 B(1,4,2)        =    107.508957     0.000002     0.012254   107.521211
	   15 B(1,4,3)        =    107.892446     0.000002     0.017512   107.909958
	   16 B(1,4,7)        =    111.875835    -0.000001    -0.007860   111.867975
	   17 B(2,4,3)        =    107.509260     0.000002     0.012510   107.521770
	   18 B(2,4,7)        =    109.980718    -0.000004    -0.025026   109.955691
	   19 B(3,4,7)        =    111.874257    -0.000001    -0.007180   111.867077
	   20 B(4,7,5)        =    108.109434    -0.000006    -0.011988   108.097446
	   21 B(4,7,6)        =    108.112700    -0.000006    -0.013820   108.098881
	   22 B(4,7,10)       =    116.378346     0.000019     0.035103   116.413450
	   23 B(5,7,6)        =    105.484620     0.000004     0.014380   105.499000
	   24 B(5,7,10)       =    109.104460    -0.000006    -0.013092   109.091368
	   25 B(6,7,10)       =    109.104523    -0.000006    -0.011942   109.092582
	   26 B(7,10,8)       =    109.105544    -0.000006    -0.013883   109.091662
	   27 B(7,10,9)       =    109.103450    -0.000006    -0.011213   109.092237
	   28 B(7,10,14)      =    116.378170     0.000019     0.035249   116.413419
	   29 B(8,10,9)       =    105.484997     0.000004     0.014106   105.499103
	   30 B(8,10,14)      =    108.113312    -0.000006    -0.014901   108.098411
	   31 B(9,10,14)      =    108.108667    -0.000006    -0.010759   108.097908
	   32 B(10,14,11)     =    109.980420    -0.000004    -0.024739   109.955681
	   33 B(10,14,12)     =    111.875506    -0.000001    -0.007901   111.867605
	   34 B(10,14,13)     =    111.873808    -0.000001    -0.006284   111.867524
	   35 B(11,14,12)     =    107.508894     0.000002     0.012680   107.521574
	   36 B(11,14,13)     =    107.509653     0.000002     0.011637   107.521290
	   37 B(12,14,13)     =    107.893250     0.000002     0.016753   107.910002
	   38 D(1,4,7,5)      =   -176.277608     0.000000     0.023139  -176.254468
	   39 D(1,4,7,6)      =    -62.542438    -0.000000     0.026969   -62.515470
	   40 D(1,4,7,10)     =     60.591335     0.000000     0.025079    60.616414
	   41 D(2,4,7,5)      =    -56.874742     0.000000     0.016806   -56.857936
	   42 D(2,4,7,6)      =     56.860427    -0.000000     0.020635    56.881062
	   43 D(2,4,7,10)     =    179.994200     0.000000     0.018746   180.012946
	   44 D(3,4,7,5)      =     62.527488    -0.000000     0.011233    62.538720
	   45 D(3,4,7,6)      =    176.262657    -0.000000     0.015062   176.277719
	   46 D(3,4,7,10)     =    -60.603570    -0.000000     0.013172   -60.590398
	   47 D(4,7,10,8)     =    122.622725     0.000000    -0.006859   122.615866
	   48 D(4,7,10,9)     =   -122.606551    -0.000000    -0.003673  -122.610224
	   49 D(4,7,10,14)    =      0.004143    -0.000000    -0.001424     0.002719
	   50 D(5,7,10,8)     =      0.010063    -0.000000    -0.005840     0.004222
	   51 D(5,7,10,9)     =    114.780787    -0.000000    -0.002654   114.778133
	   52 D(5,7,10,14)    =   -122.608520    -0.000000    -0.000405  -122.608924
	   53 D(6,7,10,8)     =   -114.760207     0.000000    -0.009386  -114.769593
	   54 D(6,7,10,9)     =      0.010517    -0.000000    -0.006200     0.004317
	   55 D(6,7,10,14)    =    122.621211     0.000000    -0.003950   122.617260
	   56 D(7,10,14,11)   =   -179.989748     0.000000    -0.021923  -180.011671
	   57 D(7,10,14,12)   =     60.607877     0.000000    -0.016291    60.591586
	   58 D(7,10,14,13)   =    -60.587511    -0.000000    -0.027825   -60.615337
	   59 D(8,10,14,11)   =     56.874759    -0.000000    -0.016694    56.858065
	   60 D(8,10,14,12)   =    -62.527617    -0.000000    -0.011061   -62.538678
	   61 D(8,10,14,13)   =    176.276995    -0.000000    -0.022596   176.254399
	   62 D(9,10,14,11)   =    -56.860772     0.000000    -0.020277   -56.881049
	   63 D(9,10,14,12)   =   -176.263147     0.000000    -0.014645  -176.277792
	   64 D(9,10,14,13)   =     62.541464    -0.000000    -0.026179    62.515285
	 ---------------------------------------------------------------------------
	 Forces used to impose fixed constraints are not included.
	  Forces zeroed: 49 

  ==> Convergence Check <==

  Measures of convergence in internal coordinates in au.
  Criteria marked as inactive (o), active & met (*), and active & unmet ( ).
  ---------------------------------------------------------------------------------------------
   Step     Total Energy     Delta E     MAX Force     RMS Force      MAX Disp      RMS Disp   
  ---------------------------------------------------------------------------------------------
    Convergence Criteria    1.00e-06 *    3.00e-04 *             o    1.20e-03 *             o
  ---------------------------------------------------------------------------------------------
      7    -157.83481394   -2.29e-06      2.53e-04 *    6.34e-05 o    6.15e-04 *    2.74e-04 o  ~
  ---------------------------------------------------------------------------------------------


  **** Optimization is complete! (in 7 steps) ****

  ==> Optimization Summary <==

  Measures of convergence in internal coordinates in au.
  --------------------------------------------------------------------------------------------------------------- ~
   Step         Total Energy             Delta E       MAX Force       RMS Force        MAX Disp        RMS Disp  ~
  --------------------------------------------------------------------------------------------------------------- ~
      1    -157.818455706550   -157.818455706550      0.07804461      0.01859071      0.05290555      0.01265262  ~
      2    -157.828619482053     -0.010163775504      0.02852166      0.00805931      0.02629712      0.01253699  ~
      3    -157.832733880697     -0.004114398644      0.01398641      0.00364288      0.02626112      0.01252233  ~
      4    -157.834241537266     -0.001507656569      0.00666176      0.00165896      0.03216325      0.01249808  ~
      5    -157.834771070416     -0.000529533150      0.00220693      0.00051278      0.01048572      0.00384727  ~
      6    -157.834811654521     -0.000040584104      0.00070047      0.00016496      0.00139711      0.00047801  ~
      7    -157.834813942102     -0.000002287582      0.00025296      0.00006343      0.00061521      0.00027394  ~
  --------------------------------------------------------------------------------------------------------------- ~

	Writing optimization data to binary file.
	Final energy is   -157.8348139421023
	Final (previous) structure:
	Cartesian Geometry (in Angstrom)
	    H    -1.7610726060   0.5459589643   0.5955861917
	    H    -1.4323970040   2.1678180174  -0.0135277966
	    H    -1.3768264648   0.7892447553  -1.1116730960
	    C    -1.1385944526   1.1175481668  -0.0970698821
	    H     0.9087373077   1.6117234618  -0.4680418249
	    H     0.5296949387   1.3718690324   1.2165883632
	    C     0.3489117417   0.9651090210   0.2159683127
	    H     1.7514531760  -0.4912997599  -0.5777448140
	    H     1.3721231491  -0.7312259482   1.1068149419
	    C     0.9252054860  -0.4732630167   0.1408419880
	    H     0.4557630820  -2.5448424626  -0.2596811894
	    H    -0.4930237659  -1.4163384272  -1.2270217289
	    H    -0.8775597369  -1.6592524301   0.4802317207
	    C    -0.0579951689  -1.5794664039  -0.2380327717
	Saving final (previous) structure.
			--------------------------
			 OPTKING Finished Execution 
			--------------------------

    Final optimized geometry and variables:
    Molecular point group: c1
    Full point group: C1

    Geometry (in Angstrom), charge = 0, multiplicity = 1:

    H           -1.761072605980     0.545958964267     0.595586191666
    H           -1.432397004044     2.167818017352    -0.013527796581
    H           -1.376826464839     0.789244755338    -1.111673096011
    C           -1.138594452610     1.117548166778    -0.097069882075
    H            0.908737307715     1.611723461783    -0.468041824877
    H            0.529694938694     1.371869032375     1.216588363185
    C            0.348911741680     0.965109020980     0.215968312664
    H            1.751453175986    -0.491299759905    -0.577744813956
    H            1.372123149129    -0.731225948163     1.106814941868
    C            0.925205485970    -0.473263016679     0.140841987962
    H            0.455763082046    -2.544842462554    -0.259681189400
    H           -0.493023765914    -1.416338427188    -1.227021728851
    H           -0.877559736934    -1.659252430092     0.480231720701
    C           -0.057995168936    -1.579466403891    -0.238032771694

	Cleaning optimization helper files.

*** Psi4 exiting successfully. Buy a developer a beer!
