    -----------------------------------------------------------------------
          Psi4: An Open-Source Ab Initio Electronic Structure Package
                              Psi4 1.0.0 Driver

                          Git: Rev {master} 6a9a71b 

    J. M. Turney, A. C. Simmonett, R. M. Parrish, E. G. Hohenstein,
    F. A. Evangelista, J. T. Fermann, B. J. Mintz, L. A. Burns, J. J. Wilke,
    M. L. Abrams, N. J. Russ, M. L. Leininger, C. L. Janssen, E. T. Seidl,
    W. D. Allen, H. F. Schaefer, R. A. King, E. F. Valeev, C. D. Sherrill,
    and T. D. Crawford, WIREs Comput. Mol. Sci. 2, 556-565 (2012)
    (doi: 10.1002/wcms.93)

                         Additional Contributions by
    A. E. DePrince, U. Bozkaya, A. Yu. Sokolov, D. G. A. Smith, R. Di Remigio,
    R. M. Richard, J. F. Gonthier, H. R. McAlexander, M. Saitow, and
    B. P. Pritchard
    -----------------------------------------------------------------------


    Psi4 started on: Tue Feb 21 18:23:01 2017

    Process ID:  37420
    PSI4DATADIR: /Users/sternc1/anaconda/share/psi4
    Memory level set to 256.000 MB

  ==> Input File <==

--------------------------------------------------------------------------

memory 1000 mb

molecule butane {
  symmetry C1
  0 1 
  H      1.604   0.760   -8.260
  H      1.745   2.388   -8.880
  H      2.043   1.024   -9.930
  C      2.142   1.395   -8.932
  H      4.169   2.051   -9.210
  H      3.731   1.788   -7.539
  C      3.631   1.416   -8.537
  H      5.243   0.033   -8.859
  H      4.082   -0.495   -7.665
  C      4.203   -0.012   -8.612
  H      3.851   -1.802   -9.746
  H      3.574   -0.327   -10.641
  H      2.413   -0.856   -9.448
  C      3.453   -0.810   -9.694
  units Angstrom
}

dih_string = "4 7 10 14 30"
set optking fixed_dihedral = $dih_string

optimize('B3LYP/cc-PVDZ')
--------------------------------------------------------------------------

  Memory set to 1000.000 MiB by Python script.
gradient() will perform analytic gradient computation.

*** tstart() called on lski1497
*** at Tue Feb 21 18:23:02 2017


         ---------------------------------------------------------
                                   SCF
            by Justin Turney, Rob Parrish, and Andy Simmonett
                              RKS Reference
                        1 Threads,   1000 MiB Core
         ---------------------------------------------------------

  ==> Geometry <==

    Molecular point group: c1
    Full point group: C1

    Geometry (in Angstrom), charge = 0, multiplicity = 1:

       Center              X                  Y                   Z               Mass       
    ------------   -----------------  -----------------  -----------------  -----------------
           H         -1.733858154221     0.269838652350     0.696599809216     1.007825032070
           H         -1.592858154221     1.897838652350     0.076599809216     1.007825032070
           H         -1.294858154221     0.533838652350    -0.973400190784     1.007825032070
           C         -1.195858154221     0.904838652350     0.024599809216    12.000000000000
           H          0.831141845779     1.560838652350    -0.253400190784     1.007825032070
           H          0.393141845779     1.297838652350     1.417599809216     1.007825032070
           C          0.293141845779     0.925838652350     0.419599809216    12.000000000000
           H          1.905141845779    -0.457161347650     0.097599809216     1.007825032070
           H          0.744141845779    -0.985161347650     1.291599809216     1.007825032070
           C          0.865141845779    -0.502161347650     0.344599809216    12.000000000000
           H          0.513141845779    -2.292161347650    -0.789400190784     1.007825032070
           H          0.236141845779    -0.817161347650    -1.684400190784     1.007825032070
           H         -0.924858154221    -1.346161347650    -0.491400190784     1.007825032070
           C          0.115141845779    -1.300161347650    -0.737400190784    12.000000000000

  Running in c1 symmetry.

  Rotational constants: A =      0.38644  B =      0.20047  C =      0.14896 [cm^-1]
  Rotational constants: A =  11585.20562  B =   6009.97752  C =   4465.66260 [MHz]
  Nuclear repulsion =  136.011543648999321

  Charge       = 0
  Multiplicity = 1
  Electrons    = 34
  Nalpha       = 17
  Nbeta        = 17

  ==> Algorithm <==

  SCF Algorithm Type is DF.
  DIIS enabled.
  MOM disabled.
  Fractional occupation disabled.
  Guess Type is SAD.
  Energy threshold   = 1.00e-08
  Density threshold  = 1.00e-08
  Integral threshold = 0.00e+00

  ==> Primary Basis <==

  Basis Set: CC-PVDZ
    Number of shells: 54
    Number of basis function: 106
    Number of Cartesian functions: 110
    Spherical Harmonics?: true
    Max angular momentum: 2

  ==> DFT Potential <==

   => B3LYP Composite Functional <= 

    B3LYP Hybrid-GGA Exchange-Correlation Functional (VWN1-RPA)

    P.J. Stephens et. al., J. Phys. Chem., 98, 11623-11627, 1994

    Points   =           5000
    Deriv    =              1
    GGA      =           TRUE
    Meta     =          FALSE

    X_LRC        =          FALSE
    X_Hybrid     =           TRUE
    X_Alpha      =   2.000000E-01
    X_Omega      =   0.000000E+00
    C_LRC        =          FALSE
    C_Hybrid     =          FALSE
    C_Alpha      =   0.000000E+00
    C_Omega      =   0.000000E+00

   => Exchange Functionals <=

    0.8000    B3_X
    0.2000      HF 

   => Correlation Functionals <=

    0.1900 VWN3RPA_C
    0.8100   LYP_C

   => Molecular Quadrature <=

    Radial Scheme    =       TREUTLER
    Pruning Scheme   =           FLAT
    Nuclear Scheme   =       TREUTLER

    BS radius alpha  =              1
    Pruning alpha    =              1
    Radial Points    =             75
    Spherical Points =            302
    Total Points     =         312685
    Total Blocks     =            273
    Max Points       =           4983
    Max Functions    =            106

  ==> Pre-Iterations <==

   -------------------------------------------------------
    Irrep   Nso     Nmo     Nalpha   Nbeta   Ndocc  Nsocc
   -------------------------------------------------------
     A        106     106       0       0       0       0
   -------------------------------------------------------
    Total     106     106      17      17      17       0
   -------------------------------------------------------

  ==> Integral Setup <==

  ==> DFJK: Density-Fitted J/K Matrices <==

    J tasked:                  Yes
    K tasked:                  Yes
    wK tasked:                  No
    OpenMP threads:              1
    Integrals threads:           1
    Memory (MB):               715
    Algorithm:                Core
    Integral Cache:           NONE
    Schwarz Cutoff:          1E-12
    Fitting Condition:       1E-12

   => Auxiliary Basis Set <=

  Basis Set: 
    Number of shells: 186
    Number of basis function: 510
    Number of Cartesian functions: 574
    Spherical Harmonics?: true
    Max angular momentum: 3

  Minimum eigenvalue in the overlap matrix is 3.6827782865E-03.
  Using Symmetric Orthogonalization.
  SCF Guess: Superposition of Atomic Densities via on-the-fly atomic UHF.

  ==> Iterations <==

                           Total Energy        Delta E     RMS |[F,P]|

   @DF-RKS iter   0:  -159.05292469494859   -1.59053e+02   3.38712e-02 
   @DF-RKS iter   1:  -158.26804498033647    7.84880e-01   5.16253e-03 
   @DF-RKS iter   2:  -158.19881250234451    6.92325e-02   6.25051e-03 DIIS
   @DF-RKS iter   3:  -158.43719346719121   -2.38381e-01   3.96829e-04 DIIS
   @DF-RKS iter   4:  -158.43808147130036   -8.88004e-04   1.03995e-04 DIIS
   @DF-RKS iter   5:  -158.43813411563229   -5.26443e-05   4.26878e-05 DIIS
   @DF-RKS iter   6:  -158.43814385011422   -9.73448e-06   7.27988e-06 DIIS
   @DF-RKS iter   7:  -158.43814417457804   -3.24464e-07   1.00456e-06 DIIS
   @DF-RKS iter   8:  -158.43814418140528   -6.82724e-09   1.39649e-07 DIIS
   @DF-RKS iter   9:  -158.43814418150336   -9.80833e-11   7.14532e-08 DIIS
   @DF-RKS iter  10:  -158.43814418153084   -2.74838e-11   1.38689e-08 DIIS
   @DF-RKS iter  11:  -158.43814418153289   -2.04636e-12   1.47213e-09 DIIS

  ==> Post-Iterations <==

    Orbital Energies (a.u.)
    -----------------------

    Doubly Occupied:                                                      

       1A    -10.169660     2A    -10.169471     3A    -10.162174  
       4A    -10.162089     5A     -0.799213     6A     -0.712774  
       7A     -0.650214     8A     -0.561747     9A     -0.470932  
      10A     -0.458529    11A     -0.410880    12A     -0.389542  
      13A     -0.375161    14A     -0.359798    15A     -0.321763  
      16A     -0.319327    17A     -0.318086  

    Virtual:                                                              

      18A      0.061955    19A      0.096936    20A      0.101144  
      21A      0.110857    22A      0.133628    23A      0.136434  
      24A      0.161464    25A      0.171061    26A      0.176496  
      27A      0.190195    28A      0.206260    29A      0.240625  
      30A      0.269221    31A      0.414923    32A      0.428413  
      33A      0.442328    34A      0.447644    35A      0.465865  
      36A      0.484972    37A      0.492245    38A      0.597459  
      39A      0.598715    40A      0.631037    41A      0.632359  
      42A      0.656189    43A      0.669080    44A      0.671572  
      45A      0.677374    46A      0.690740    47A      0.703509  
      48A      0.706448    49A      0.735827    50A      0.744901  
      51A      0.781312    52A      0.827554    53A      0.876164  
      54A      0.917003    55A      0.973213    56A      1.076250  
      57A      1.188482    58A      1.211099    59A      1.211400  
      60A      1.284335    61A      1.316457    62A      1.365420  
      63A      1.432681    64A      1.434564    65A      1.504779  
      66A      1.571035    67A      1.581825    68A      1.597652  
      69A      1.603656    70A      1.639436    71A      1.646304  
      72A      1.667242    73A      1.687219    74A      1.699716  
      75A      1.700096    76A      1.709866    77A      1.723581  
      78A      1.773725    79A      1.777406    80A      1.813514  
      81A      1.822879    82A      1.863375    83A      1.888210  
      84A      1.929778    85A      1.972724    86A      1.974687  
      87A      2.014876    88A      2.111652    89A      2.128149  
      90A      2.162485    91A      2.231032    92A      2.270719  
      93A      2.288558    94A      2.322315    95A      2.362300  
      96A      2.373007    97A      2.500278    98A      2.501621  
      99A      2.528353   100A      2.555177   101A      2.576098  
     102A      2.599103   103A      2.649383   104A      2.669015  
     105A      2.715837   106A      2.778684  

    Final Occupation by Irrep:
              A 
    DOCC [    17 ]

  Energy converged.

  @DF-RKS Final Energy:  -158.43814418153289

   => Energetics <=

    Nuclear Repulsion Energy =            136.0115436489993215
    One-Electron Energy =                -480.4039919386359543
    Two-Electron Energy =                 206.6460190600163855
    DFT Exchange-Correlation Energy =     -20.6917149519126582
    Empirical Dispersion Energy =           0.0000000000000000
    PCM Polarization Energy =               0.0000000000000000
    EFP Energy =                            0.0000000000000000
    Total Energy =                       -158.4381441815328913


  Saving occupied orbitals to File 180.

*** tstop() called on lski1497 at Tue Feb 21 18:25:16 2017
Module time:
	user time   =     120.24 seconds =       2.00 minutes
	system time =       1.42 seconds =       0.02 minutes
	total time  =        134 seconds =       2.23 minutes
Total time:
	user time   =     120.24 seconds =       2.00 minutes
	system time =       1.42 seconds =       0.02 minutes
	total time  =        134 seconds =       2.23 minutes


Properties will be evaluated at   0.000000,   0.000000,   0.000000 Bohr

Properties computed using the SCF density matrix

  Nuclear Dipole Moment: (a.u.)
     X:    -0.8658      Y:    -0.3165      Z:    -0.5737

  Electronic Dipole Moment: (a.u.)
     X:     0.8798      Y:     0.3213      Z:     0.5828

  Dipole Moment: (a.u.)
     X:     0.0140      Y:     0.0048      Z:     0.0091     Total:     0.0173

  Dipole Moment: (Debye)
     X:     0.0355      Y:     0.0122      Z:     0.0231     Total:     0.0441


*** tstart() called on lski1497
*** at Tue Feb 21 18:25:16 2017


         ------------------------------------------------------------
                                   SCF GRAD                          
                          Rob Parrish, Justin Turney,                
                       Andy Simmonett, and Alex Sokolov              
         ------------------------------------------------------------

  ==> Geometry <==

    Molecular point group: c1
    Full point group: C1

    Geometry (in Angstrom), charge = 0, multiplicity = 1:

       Center              X                  Y                   Z               Mass       
    ------------   -----------------  -----------------  -----------------  -----------------
           H         -1.733858154221     0.269838652350     0.696599809216     1.007825032070
           H         -1.592858154221     1.897838652350     0.076599809216     1.007825032070
           H         -1.294858154221     0.533838652350    -0.973400190784     1.007825032070
           C         -1.195858154221     0.904838652350     0.024599809216    12.000000000000
           H          0.831141845779     1.560838652350    -0.253400190784     1.007825032070
           H          0.393141845779     1.297838652350     1.417599809216     1.007825032070
           C          0.293141845779     0.925838652350     0.419599809216    12.000000000000
           H          1.905141845779    -0.457161347650     0.097599809216     1.007825032070
           H          0.744141845779    -0.985161347650     1.291599809216     1.007825032070
           C          0.865141845779    -0.502161347650     0.344599809216    12.000000000000
           H          0.513141845779    -2.292161347650    -0.789400190784     1.007825032070
           H          0.236141845779    -0.817161347650    -1.684400190784     1.007825032070
           H         -0.924858154221    -1.346161347650    -0.491400190784     1.007825032070
           C          0.115141845779    -1.300161347650    -0.737400190784    12.000000000000

  Nuclear repulsion =  136.011543648999321

  ==> Basis Set <==

  Basis Set: CC-PVDZ
    Number of shells: 54
    Number of basis function: 106
    Number of Cartesian functions: 110
    Spherical Harmonics?: true
    Max angular momentum: 2

  ==> DFJKGrad: Density-Fitted SCF Gradients <==

    Gradient:                    1
    J tasked:                  Yes
    K tasked:                  Yes
    wK tasked:                  No
    OpenMP threads:              1
    Integrals threads:           1
    Memory (MB):               715
    Schwarz Cutoff:          0E+00
    Fitting Condition:       1E-12

   => Auxiliary Basis Set <=

  Basis Set: 
    Number of shells: 186
    Number of basis function: 510
    Number of Cartesian functions: 574
    Spherical Harmonics?: true
    Max angular momentum: 3

  ==> DFT Potential <==

   => B3LYP Composite Functional <= 

    B3LYP Hybrid-GGA Exchange-Correlation Functional (VWN1-RPA)

    P.J. Stephens et. al., J. Phys. Chem., 98, 11623-11627, 1994

    Points   =           5000
    Deriv    =              1
    GGA      =           TRUE
    Meta     =          FALSE

    X_LRC        =          FALSE
    X_Hybrid     =           TRUE
    X_Alpha      =   2.000000E-01
    X_Omega      =   0.000000E+00
    C_LRC        =          FALSE
    C_Hybrid     =          FALSE
    C_Alpha      =   0.000000E+00
    C_Omega      =   0.000000E+00

   => Exchange Functionals <=

    0.8000    B3_X
    0.2000      HF 

   => Correlation Functionals <=

    0.1900 VWN3RPA_C
    0.8100   LYP_C

   => Molecular Quadrature <=

    Radial Scheme    =       TREUTLER
    Pruning Scheme   =           FLAT
    Nuclear Scheme   =       TREUTLER

    BS radius alpha  =              1
    Pruning alpha    =              1
    Radial Points    =             75
    Spherical Points =            302
    Total Points     =         312685
    Total Blocks     =            273
    Max Points       =           4983
    Max Functions    =            106


  -Total Gradient:
     Atom            X                  Y                   Z
    ------   -----------------  -----------------  -----------------
       1        0.015045532851     0.012031072186    -0.012620591636
       2        0.011571683009    -0.019279127819    -0.001068587823
       3        0.007667264609     0.002024388909     0.017241783896
       4       -0.026123374141    -0.015891337347    -0.009872415231
       5       -0.011145442574    -0.015788660512     0.012735317787
       6       -0.004518444502    -0.011986225709    -0.019422457666
       7        0.019658388871     0.025516575838     0.007495199388
       8       -0.023117482247     0.001783054633     0.001076100919
       9        0.000317332183     0.011906789417    -0.020194601299
      10        0.023279160252    -0.009996845389     0.021060951458
      11       -0.006852105903     0.021459765557     0.004311286549
      12       -0.000869765285    -0.006768241058     0.021850097894
      13        0.017280885846     0.007217878440    -0.000586465109
      14       -0.022173122119    -0.002222339710    -0.021992766172


*** tstop() called on lski1497 at Tue Feb 21 18:26:00 2017
Module time:
	user time   =      39.58 seconds =       0.66 minutes
	system time =       0.64 seconds =       0.01 minutes
	total time  =         44 seconds =       0.73 minutes
Total time:
	user time   =     159.85 seconds =       2.66 minutes
	system time =       2.06 seconds =       0.03 minutes
	total time  =        178 seconds =       2.97 minutes

			-----------------------------------------
			 OPTKING 2.0: for geometry optimizations 
			  - R.A. King,  Bethel University        
			-----------------------------------------

	Internal coordinates to be generated automatically.
	Detected frag 1 with atoms:  1 2 3 4 5 6 7 8 9 10 11 12 13 14
	---Fragment 1 Bond Connectivity---
	 1 : 4
	 2 : 4
	 3 : 4
	 4 : 1 2 3 7
	 5 : 7
	 6 : 7
	 7 : 4 5 6 10
	 8 : 10
	 9 : 10
	 10 : 7 8 9 14
	 11 : 14
	 12 : 14
	 13 : 14
	 14 : 10 11 12 13

	Assuming in current code that numbering for constraints corresponds to unified fragment.
	Fixed dihedral atom list: 
	     4     7    10    14
	---Fragment 1 Geometry and Gradient---
	 H          -3.2765170647        0.5099211530        1.3163828636
	 H          -3.0100656800        3.5863952973        0.1447526613
	 H          -2.4469272924        1.0088088521       -1.8394597783
	 C          -2.2598444053        1.7098972474        0.0464869023
	 H           1.5706304661        2.9495575906       -0.4788569626
	 H           0.7429304199        2.4525596176        2.6788754055
	 C           0.5539578066        1.7495814962        0.7929287248
	 H           3.6001963328       -0.8639097456        0.1844369100
	 H           1.4062242925       -1.8616851438        2.4407699127
	 C           1.6348811546       -0.9489474216        0.6511992649
	 H           0.9696975558       -4.3315571994       -1.4917501698
	 H           0.4462434170       -1.5442111534       -3.1830550588
	 H          -1.7477286232       -2.5438762777       -0.9286117822
	 C           0.2175865550       -2.4569488756       -1.3934844109
	             0.0150455329        0.0120310722       -0.0126205916
	             0.0115716830       -0.0192791278       -0.0010685878
	             0.0076672646        0.0020243889        0.0172417839
	            -0.0261233741       -0.0158913373       -0.0098724152
	            -0.0111454426       -0.0157886605        0.0127353178
	            -0.0045184445       -0.0119862257       -0.0194224577
	             0.0196583889        0.0255165758        0.0074951994
	            -0.0231174822        0.0017830546        0.0010761009
	             0.0003173322        0.0119067894       -0.0201946013
	             0.0232791603       -0.0099968454        0.0210609515
	            -0.0068521059        0.0214597656        0.0043112865
	            -0.0008697653       -0.0067682411        0.0218500979
	             0.0172808858        0.0072178784       -0.0005864651
	            -0.0221731221       -0.0022223397       -0.0219927662

	Previous optimization step data not found.  Starting new optimization.

	---Fragment 1 Intrafragment Coordinates---
	 - Coordinate -           - BOHR/RAD -       - ANG/DEG -
	 R(1,4)           =         2.021436	       1.069698
	 R(2,4)           =         2.023298	       1.070683
	 R(3,4)           =         2.020723	       1.069320
	 R(4,7)           =         2.911397	       1.540645
	 R(5,7)           =         2.022623	       1.070326
	 R(6,7)           =         2.021555	       1.069761
	 R(7,10)          =         2.910419	       1.540128
	 R(8,10)          =         2.021772	       1.069876
	 R(9,10)          =         2.021865	       1.069925
	 R(10,14)         =         2.909214	       1.539490
	 R(11,14)         =         2.022247	       1.070127
	 R(12,14)         =         2.021865	       1.069925
	 R(13,14)         =         2.021417	       1.069688
	 B(1,4,2)         =         1.910870	     109.484805
	 B(1,4,3)         =         1.911121	     109.499161
	 B(1,4,7)         =         1.910399	     109.457783
	 B(2,4,3)         =         1.910042	     109.437340
	 B(2,4,7)         =         1.910564	     109.467262
	 B(3,4,7)         =         1.910803	     109.480971
	 B(4,7,5)         =         1.909937	     109.431343
	 B(4,7,6)         =         1.911630	     109.528316
	 B(4,7,10)        =         1.911154	     109.501062
	 B(5,7,6)         =         1.910605	     109.469614
	 B(5,7,10)        =         1.910047	     109.437654
	 B(6,7,10)        =         1.910425	     109.459295
	 B(7,10,8)        =         1.910567	     109.467409
	 B(7,10,9)        =         1.910771	     109.479093
	 B(7,10,14)       =         1.911240	     109.506012
	 B(8,10,9)        =         1.910561	     109.467071
	 B(8,10,14)       =         1.910398	     109.457761
	 B(9,10,14)       =         1.910262	     109.449971
	 B(10,14,11)      =         1.910781	     109.479712
	 B(10,14,12)      =         1.910262	     109.449971
	 B(10,14,13)      =         1.911671	     109.530705
	 B(11,14,12)      =         1.910709	     109.475582
	 B(11,14,13)      =         1.910182	     109.445352
	 B(12,14,13)      =         1.910193	     109.445992
	 D(1,4,7,5)       =         3.140997	     179.965873
	 D(1,4,7,6)       =        -1.047644	     -60.025575
	 D(1,4,7,10)      =         1.047427	      60.013132
	 D(2,4,7,5)       =        -1.047689	     -60.028143
	 D(2,4,7,6)       =         1.046856	      59.980409
	 D(2,4,7,10)      =        -3.141259	    -179.980883
	 D(3,4,7,5)       =         1.046044	      59.933911
	 D(3,4,7,6)       =         3.140588	     179.942463
	 D(3,4,7,10)      =        -1.047526	     -60.018830
	 D(4,7,10,8)      =         2.617862	     149.992457
	 D(4,7,10,9)      =        -1.570973	     -90.010140
	 D(4,7,10,14)     =         0.523424	      29.989969
	 D(5,7,10,8)      =         0.524359	      30.043581
	 D(5,7,10,9)      =         2.618709	     150.040984
	 D(5,7,10,14)     =        -1.570079	     -89.958907
	 D(6,7,10,8)      =        -1.569516	     -89.926618
	 D(6,7,10,9)      =         0.524834	      30.070786
	 D(6,7,10,14)     =         2.619231	     150.070894
	 D(7,10,14,11)    =         3.141237	     179.979599
	 D(7,10,14,12)    =         1.046885	      59.982071
	 D(7,10,14,13)    =        -1.047380	     -60.010432
	 D(8,10,14,11)    =         1.046695	      59.971207
	 D(8,10,14,12)    =        -1.047657	     -60.026321
	 D(8,10,14,13)    =         3.141264	     179.981177
	 D(9,10,14,11)    =        -1.047241	     -60.002472
	 D(9,10,14,12)    =         3.141593	     180.000000
	 D(9,10,14,13)    =         1.047328	      60.007497

	Current energy   :      -158.4381441815

	Generating empirical Hessian (Schlegel '84) for each fragment.
	Adding user-defined constraint: Fragment 1; Coordinate 49:
		Value =     0.523424; Fixed value    =     0.523599
		Force =     0.000088; Force constant =     0.500000
	Removing off-diagonal coupling between coordinate 49 and others.
	Taking RFO optimization step.
	Going to follow RFO solution 1.
	Using RFO vector 1.

	Determining step-restricting scale parameter for RS-RFO.
	Maximum step size allowed    0.10000

	 Iter      |step|        alpha        rfo_root  
	------------------------------------------------
	    0     0.43306       1.00000           1
	    1     0.29313       4.46273           1
	    2     0.19863      14.14559           1
	    3     0.14252      33.16331           1
	    4     0.11329      57.40617           1
	    5     0.10204      73.15018           1
	    6     0.10006      76.51107           1
	    7     0.10000      76.61953           1
	------------------------------------------------
	Norm of target step-size    0.10000
	Projected energy change by RFO approximation:        -0.0107706448

	Back-transformation to cartesian coordinates...
	Could not converge backtransformation.
	Using first guess instead.

	--- Internal Coordinate Step in ANG or DEG, aJ/ANG or AJ/DEG ---
	 ---------------------------------------------------------------------------
	   Coordinate                Previous        Force       Change         New 
	   ----------                --------       ------       ------       ------
	    1 R(1,4)          =      1.069698     0.186501     0.010000     1.079698
	    2 R(2,4)          =      1.070683     0.183088     0.010545     1.081228
	    3 R(3,4)          =      1.069320     0.144201     0.008440     1.077760
	    4 R(4,7)          =      1.540645     0.049209     0.004149     1.544794
	    5 R(5,7)          =      1.070326     0.189304     0.009941     1.080267
	    6 R(6,7)          =      1.069761     0.187112     0.010032     1.079792
	    7 R(7,10)         =      1.540128     0.217948     0.012400     1.552527
	    8 R(8,10)         =      1.069876     0.186580     0.010007     1.079883
	    9 R(9,10)         =      1.069925     0.191845     0.010070     1.079995
	   10 R(10,14)        =      1.539490     0.054136     0.004427     1.543917
	   11 R(11,14)        =      1.070127     0.186615     0.010725     1.080852
	   12 R(12,14)        =      1.069925     0.185315     0.009942     1.079867
	   13 R(13,14)        =      1.069688     0.142079     0.008333     1.078021
	   14 B(1,4,2)        =    109.484805    -0.000326    -0.226159   109.258646
	   15 B(1,4,3)        =    109.499161    -0.000318    -0.291024   109.208137
	   16 B(1,4,7)        =    109.457783     0.000318     0.221424   109.679207
	   17 B(2,4,3)        =    109.437340    -0.000431    -0.306547   109.130793
	   18 B(2,4,7)        =    109.467262     0.000150     0.124839   109.592102
	   19 B(3,4,7)        =    109.480971     0.000607     0.473359   109.954330
	   20 B(4,7,5)        =    109.431343    -0.000970    -0.701148   108.730195
	   21 B(4,7,6)        =    109.528316    -0.001130    -0.763477   108.764839
	   22 B(4,7,10)       =    109.501062     0.003630     2.564669   112.065731
	   23 B(5,7,6)        =    109.469614     0.000418     0.216080   109.685694
	   24 B(5,7,10)       =    109.437654    -0.000915    -0.612541   108.825113
	   25 B(6,7,10)       =    109.459295    -0.001032    -0.711265   108.748030
	   26 B(7,10,8)       =    109.467409    -0.001033    -0.712860   108.754548
	   27 B(7,10,9)       =    109.479093    -0.000920    -0.615974   108.863118
	   28 B(7,10,14)      =    109.506012     0.003631     2.565363   112.071375
	   29 B(8,10,9)       =    109.467071     0.000417     0.215674   109.682745
	   30 B(8,10,14)      =    109.457761    -0.001123    -0.757662   108.700099
	   31 B(9,10,14)      =    109.449971    -0.000973    -0.702518   108.747453
	   32 B(10,14,11)     =    109.479712     0.000152     0.126051   109.605763
	   33 B(10,14,12)     =    109.449971     0.000320     0.223071   109.673042
	   34 B(10,14,13)     =    109.530705     0.000602     0.470222   110.000927
	   35 B(11,14,12)     =    109.475582    -0.000328    -0.226955   109.248627
	   36 B(11,14,13)     =    109.445352    -0.000432    -0.308015   109.137338
	   37 B(12,14,13)     =    109.445992    -0.000315    -0.288982   109.157010
	   38 D(1,4,7,5)      =    179.965873     0.000106     0.320683   180.286556
	   39 D(1,4,7,6)      =    -60.025575    -0.000072    -0.290642   -60.316217
	   40 D(1,4,7,10)     =     60.013132    -0.000010    -0.064551    59.948581
	   41 D(2,4,7,5)      =    -60.028143     0.000080     0.256158   -59.771984
	   42 D(2,4,7,6)      =     59.980409    -0.000098    -0.355167    59.625242
	   43 D(2,4,7,10)     =   -179.980883    -0.000036    -0.129076  -180.109960
	   44 D(3,4,7,5)      =     59.933911     0.000065     0.248473    60.182383
	   45 D(3,4,7,6)      =    179.942463    -0.000113    -0.362853   179.579610
	   46 D(3,4,7,10)     =    -60.018830    -0.000051    -0.136762   -60.155592
	   47 D(4,7,10,8)     =    149.992457     0.000116     0.357472   150.349928
	   48 D(4,7,10,9)     =    -90.010140    -0.000042    -0.174895   -90.185035
	   49 D(4,7,10,14)    =     29.989969     0.000066     0.158351    30.148320
	   50 D(5,7,10,8)     =     30.043581     0.000008     0.023575    30.067156
	   51 D(5,7,10,9)     =    150.040984    -0.000149    -0.508791   149.532193
	   52 D(5,7,10,14)    =    -89.958907    -0.000042    -0.175546   -90.134453
	   53 D(6,7,10,8)     =    -89.926618     0.000163     0.551124   -89.375493
	   54 D(6,7,10,9)     =     30.070786     0.000006     0.018758    30.089544
	   55 D(6,7,10,14)    =    150.070894     0.000114     0.352004   150.422898
	   56 D(7,10,14,11)   =    179.979599    -0.000035    -0.127670   179.851928
	   57 D(7,10,14,12)   =     59.982071    -0.000010    -0.063934    59.918137
	   58 D(7,10,14,13)   =    -60.010432    -0.000051    -0.137747   -60.148178
	   59 D(8,10,14,11)   =     59.971207    -0.000097    -0.352581    59.618626
	   60 D(8,10,14,12)   =    -60.026321    -0.000072    -0.288845   -60.315165
	   61 D(8,10,14,13)   =    179.981177    -0.000113    -0.362657   179.618519
	   62 D(9,10,14,11)   =    -60.002472     0.000080     0.254978   -59.747494
	   63 D(9,10,14,12)   =    180.000000     0.000105     0.318714   180.318714
	   64 D(9,10,14,13)   =     60.007497     0.000064     0.244902    60.252399
	 ---------------------------------------------------------------------------
	 Forces used to impose fixed constraints are not included.
	  Forces zeroed: 49 

  ==> Convergence Check <==

  Measures of convergence in internal coordinates in au.
  Criteria marked as inactive (o), active & met (*), and active & unmet ( ).
  --------------------------------------------------------------------------------------------- ~
   Step     Total Energy     Delta E     MAX Force     RMS Force      MAX Disp      RMS Disp    ~
  --------------------------------------------------------------------------------------------- ~
    Convergence Criteria    1.00e-06 *    3.00e-04 *             o    1.20e-03 *             o  ~
  --------------------------------------------------------------------------------------------- ~
      1    -158.43814418   -1.58e+02      4.77e-02      1.40e-02 o    4.48e-02      1.27e-02 o  ~
  ---------------------------------------------------------------------------------------------

	Writing optimization data to binary file.
	Structure for next step:
	Cartesian Geometry (in Angstrom)
	    H    -1.7838418604   0.3330257109   0.7106449626
	    H    -1.5875931244   1.9813285920   0.1194775507
	    H    -1.3550595302   0.6204109435  -0.9705921245
	    C    -1.2218126544   0.9668658030   0.0412288489
	    H     0.8217633069   1.5676782983  -0.2552926170
	    H     0.3874938444   1.2826732758   1.4326003100
	    C     0.2752932439   0.9253738107   0.4198319058
	    H     1.9091153552  -0.4423985053   0.0816297722
	    H     0.7431199114  -0.9956605483   1.2868339288
	    C     0.8602061746  -0.5099086812   0.3293760866
	    H     0.5895456405  -2.3459818274  -0.7784972323
	    H     0.2635492932  -0.8887113003  -1.7133799099
	    H    -0.8986109442  -1.4452973648  -0.5167733215
	    C     0.1508171844  -1.3586570738  -0.7476908313
			--------------------------
			 OPTKING Finished Execution 
			--------------------------

    Structure for next step:
    Molecular point group: c1
    Full point group: C1

    Geometry (in Angstrom), charge = 0, multiplicity = 1:

    H           -1.781369410631     0.333911612795     0.712282714817
    H           -1.585120674618     1.982214493852     0.121115302864
    H           -1.352587080420     0.621296845378    -0.968954372317
    C           -1.219340204552     0.967751704894     0.042866601156
    H            0.824235756742     1.568564200195    -0.253654864801
    H            0.389966294248     1.283559177651     1.434238062217
    C            0.277765693682     0.926259712561     0.421469657966
    H            1.911587804959    -0.441512603440     0.083267524378
    H            0.745592361233    -0.994774646394     1.288471680991
    C            0.862678624398    -0.509022779352     0.331013838860
    H            0.592018090253    -2.345095925498    -0.776859480126
    H            0.266021742989    -0.887825398373    -1.711742157679
    H           -0.896138494356    -1.444411462893    -0.515135569286
    C            0.153289634222    -1.357771171947    -0.746053079058

gradient() will perform analytic gradient computation.

*** tstart() called on lski1497
*** at Tue Feb 21 18:26:01 2017


         ---------------------------------------------------------
                                   SCF
            by Justin Turney, Rob Parrish, and Andy Simmonett
                              RKS Reference
                        1 Threads,   1000 MiB Core
         ---------------------------------------------------------

  ==> Geometry <==

    Molecular point group: c1
    Full point group: C1

    Geometry (in Angstrom), charge = 0, multiplicity = 1:

       Center              X                  Y                   Z               Mass       
    ------------   -----------------  -----------------  -----------------  -----------------
           H         -1.781369410631     0.333911612795     0.712282714817     1.007825032070
           H         -1.585120674618     1.982214493852     0.121115302864     1.007825032070
           H         -1.352587080420     0.621296845378    -0.968954372317     1.007825032070
           C         -1.219340204552     0.967751704894     0.042866601156    12.000000000000
           H          0.824235756742     1.568564200195    -0.253654864801     1.007825032070
           H          0.389966294248     1.283559177651     1.434238062217     1.007825032070
           C          0.277765693682     0.926259712561     0.421469657966    12.000000000000
           H          1.911587804959    -0.441512603440     0.083267524378     1.007825032070
           H          0.745592361233    -0.994774646394     1.288471680991     1.007825032070
           C          0.862678624398    -0.509022779352     0.331013838860    12.000000000000
           H          0.592018090253    -2.345095925498    -0.776859480126     1.007825032070
           H          0.266021742989    -0.887825398373    -1.711742157679     1.007825032070
           H         -0.896138494356    -1.444411462893    -0.515135569286     1.007825032070
           C          0.153289634222    -1.357771171947    -0.746053079058    12.000000000000

  Running in c1 symmetry.

  Rotational constants: A =      0.39239  B =      0.18635  C =      0.14184 [cm^-1]
  Rotational constants: A =  11763.69750  B =   5586.56012  C =   4252.30987 [MHz]
  Nuclear repulsion =  134.101530467948635

  Charge       = 0
  Multiplicity = 1
  Electrons    = 34
  Nalpha       = 17
  Nbeta        = 17

  ==> Algorithm <==

  SCF Algorithm Type is DF.
  DIIS enabled.
  MOM disabled.
  Fractional occupation disabled.
  Guess Type is READ.
  Energy threshold   = 1.00e-08
  Density threshold  = 1.00e-08
  Integral threshold = 0.00e+00

  ==> Primary Basis <==

  Basis Set: CC-PVDZ
    Number of shells: 54
    Number of basis function: 106
    Number of Cartesian functions: 110
    Spherical Harmonics?: true
    Max angular momentum: 2

  ==> DFT Potential <==

   => B3LYP Composite Functional <= 

    B3LYP Hybrid-GGA Exchange-Correlation Functional (VWN1-RPA)

    P.J. Stephens et. al., J. Phys. Chem., 98, 11623-11627, 1994

    Points   =           5000
    Deriv    =              1
    GGA      =           TRUE
    Meta     =          FALSE

    X_LRC        =          FALSE
    X_Hybrid     =           TRUE
    X_Alpha      =   2.000000E-01
    X_Omega      =   0.000000E+00
    C_LRC        =          FALSE
    C_Hybrid     =          FALSE
    C_Alpha      =   0.000000E+00
    C_Omega      =   0.000000E+00

   => Exchange Functionals <=

    0.8000    B3_X
    0.2000      HF 

   => Correlation Functionals <=

    0.1900 VWN3RPA_C
    0.8100   LYP_C

   => Molecular Quadrature <=

    Radial Scheme    =       TREUTLER
    Pruning Scheme   =           FLAT
    Nuclear Scheme   =       TREUTLER

    BS radius alpha  =              1
    Pruning alpha    =              1
    Radial Points    =             75
    Spherical Points =            302
    Total Points     =         312731
    Total Blocks     =            271
    Max Points       =           4920
    Max Functions    =            106

  ==> Pre-Iterations <==

   -------------------------------------------------------
    Irrep   Nso     Nmo     Nalpha   Nbeta   Ndocc  Nsocc
   -------------------------------------------------------
     A        106     106       0       0       0       0
   -------------------------------------------------------
    Total     106     106      17      17      17       0
   -------------------------------------------------------

  ==> Integral Setup <==

  ==> DFJK: Density-Fitted J/K Matrices <==

    J tasked:                  Yes
    K tasked:                  Yes
    wK tasked:                  No
    OpenMP threads:              1
    Integrals threads:           1
    Memory (MB):               715
    Algorithm:                Core
    Integral Cache:           NONE
    Schwarz Cutoff:          1E-12
    Fitting Condition:       1E-12

   => Auxiliary Basis Set <=

  Basis Set: 
    Number of shells: 186
    Number of basis function: 510
    Number of Cartesian functions: 574
    Spherical Harmonics?: true
    Max angular momentum: 3

  Minimum eigenvalue in the overlap matrix is 3.8792835087E-03.
  Using Symmetric Orthogonalization.
  SCF Guess was Projection but file not found.
  Switching over to SAD guess.

  SCF Guess: Superposition of Atomic Densities via on-the-fly atomic UHF.

  ==> Iterations <==

                           Total Energy        Delta E     RMS |[F,P]|

   @DF-RKS iter   0:  -158.97109269275231   -1.58971e+02   3.30323e-02 
   @DF-RKS iter   1:  -158.28014316458894    6.90950e-01   5.08909e-03 
   @DF-RKS iter   2:  -158.21214233492444    6.80008e-02   6.15739e-03 DIIS
   @DF-RKS iter   3:  -158.44577126862282   -2.33629e-01   3.84904e-04 DIIS
   @DF-RKS iter   4:  -158.44661619494912   -8.44926e-04   1.07312e-04 DIIS
   @DF-RKS iter   5:  -158.44667227926934   -5.60843e-05   4.48646e-05 DIIS
   @DF-RKS iter   6:  -158.44668313788580   -1.08586e-05   7.09811e-06 DIIS
   @DF-RKS iter   7:  -158.44668344961391   -3.11728e-07   9.70750e-07 DIIS
   @DF-RKS iter   8:  -158.44668345600383   -6.38991e-09   1.40660e-07 DIIS
   @DF-RKS iter   9:  -158.44668345610225   -9.84244e-11   7.37512e-08 DIIS
   @DF-RKS iter  10:  -158.44668345613130   -2.90470e-11   1.42597e-08 DIIS
   @DF-RKS iter  11:  -158.44668345613258   -1.27898e-12   1.75601e-09 DIIS

  ==> Post-Iterations <==

    Orbital Energies (a.u.)
    -----------------------

    Doubly Occupied:                                                      

       1A    -10.173515     2A    -10.173351     3A    -10.166950  
       4A    -10.166886     5A     -0.792462     6A     -0.714181  
       7A     -0.645356     8A     -0.559927     9A     -0.467470  
      10A     -0.451919    11A     -0.411338    12A     -0.384804  
      13A     -0.374605    14A     -0.363221    15A     -0.321307  
      16A     -0.319143    17A     -0.317634  

    Virtual:                                                              

      18A      0.059029    19A      0.096593    20A      0.100560  
      21A      0.108594    22A      0.132668    23A      0.133873  
      24A      0.158646    25A      0.167235    26A      0.169199  
      27A      0.190032    28A      0.199917    29A      0.235039  
      30A      0.271685    31A      0.411112    32A      0.424122  
      33A      0.436524    34A      0.447083    35A      0.465205  
      36A      0.485338    37A      0.500059    38A      0.587409  
      39A      0.596753    40A      0.621043    41A      0.630399  
      42A      0.650830    43A      0.665298    44A      0.665342  
      45A      0.672405    46A      0.685834    47A      0.690410  
      48A      0.702295    49A      0.726889    50A      0.728422  
      51A      0.765740    52A      0.824318    53A      0.881172  
      54A      0.899244    55A      0.968493    56A      1.079939  
      57A      1.180321    58A      1.209091    59A      1.212020  
      60A      1.282878    61A      1.289627    62A      1.347089  
      63A      1.421941    64A      1.432047    65A      1.476693  
      66A      1.560293    67A      1.573494    68A      1.593233  
      69A      1.595752    70A      1.634218    71A      1.643900  
      72A      1.646801    73A      1.676039    74A      1.683765  
      75A      1.698139    76A      1.700337    77A      1.706943  
      78A      1.756799    79A      1.763137    80A      1.798734  
      81A      1.809791    82A      1.836070    83A      1.865311  
      84A      1.916665    85A      1.957345    86A      1.962171  
      87A      2.019614    88A      2.083133    89A      2.120157  
      90A      2.141567    91A      2.209051    92A      2.261353  
      93A      2.270349    94A      2.289685    95A      2.340827  
      96A      2.350070    97A      2.474754    98A      2.479462  
      99A      2.499195   100A      2.518866   101A      2.549632  
     102A      2.567226   103A      2.628631   104A      2.648587  
     105A      2.686377   106A      2.755183  

    Final Occupation by Irrep:
              A 
    DOCC [    17 ]

  Energy converged.

  @DF-RKS Final Energy:  -158.44668345613258

   => Energetics <=

    Nuclear Repulsion Energy =            134.1015304679486349
    One-Electron Energy =                -476.6442356142118228
    Two-Electron Energy =                 204.7459612638245403
    DFT Exchange-Correlation Energy =     -20.6499395736939313
    Empirical Dispersion Energy =           0.0000000000000000
    PCM Polarization Energy =               0.0000000000000000
    EFP Energy =                            0.0000000000000000
    Total Energy =                       -158.4466834561325754


  Saving occupied orbitals to File 180.

*** tstop() called on lski1497 at Tue Feb 21 18:28:16 2017
Module time:
	user time   =     119.68 seconds =       1.99 minutes
	system time =       1.60 seconds =       0.03 minutes
	total time  =        135 seconds =       2.25 minutes
Total time:
	user time   =     280.24 seconds =       4.67 minutes
	system time =       3.69 seconds =       0.06 minutes
	total time  =        314 seconds =       5.23 minutes


Properties will be evaluated at   0.000000,   0.000000,   0.000000 Bohr

Properties computed using the SCF density matrix

  Nuclear Dipole Moment: (a.u.)
     X:    -0.8304      Y:    -0.3038      Z:    -0.5503

  Electronic Dipole Moment: (a.u.)
     X:     0.8445      Y:     0.3088      Z:     0.5594

  Dipole Moment: (a.u.)
     X:     0.0141      Y:     0.0050      Z:     0.0092     Total:     0.0175

  Dipole Moment: (Debye)
     X:     0.0358      Y:     0.0126      Z:     0.0233     Total:     0.0445


*** tstart() called on lski1497
*** at Tue Feb 21 18:28:16 2017


         ------------------------------------------------------------
                                   SCF GRAD                          
                          Rob Parrish, Justin Turney,                
                       Andy Simmonett, and Alex Sokolov              
         ------------------------------------------------------------

  ==> Geometry <==

    Molecular point group: c1
    Full point group: C1

    Geometry (in Angstrom), charge = 0, multiplicity = 1:

       Center              X                  Y                   Z               Mass       
    ------------   -----------------  -----------------  -----------------  -----------------
           H         -1.781369410631     0.333911612795     0.712282714817     1.007825032070
           H         -1.585120674618     1.982214493852     0.121115302864     1.007825032070
           H         -1.352587080420     0.621296845378    -0.968954372317     1.007825032070
           C         -1.219340204552     0.967751704894     0.042866601156    12.000000000000
           H          0.824235756742     1.568564200195    -0.253654864801     1.007825032070
           H          0.389966294248     1.283559177651     1.434238062217     1.007825032070
           C          0.277765693682     0.926259712561     0.421469657966    12.000000000000
           H          1.911587804959    -0.441512603440     0.083267524378     1.007825032070
           H          0.745592361233    -0.994774646394     1.288471680991     1.007825032070
           C          0.862678624398    -0.509022779352     0.331013838860    12.000000000000
           H          0.592018090253    -2.345095925498    -0.776859480126     1.007825032070
           H          0.266021742989    -0.887825398373    -1.711742157679     1.007825032070
           H         -0.896138494356    -1.444411462893    -0.515135569286     1.007825032070
           C          0.153289634222    -1.357771171947    -0.746053079058    12.000000000000

  Nuclear repulsion =  134.101530467948635

  ==> Basis Set <==

  Basis Set: CC-PVDZ
    Number of shells: 54
    Number of basis function: 106
    Number of Cartesian functions: 110
    Spherical Harmonics?: true
    Max angular momentum: 2

  ==> DFJKGrad: Density-Fitted SCF Gradients <==

    Gradient:                    1
    J tasked:                  Yes
    K tasked:                  Yes
    wK tasked:                  No
    OpenMP threads:              1
    Integrals threads:           1
    Memory (MB):               715
    Schwarz Cutoff:          0E+00
    Fitting Condition:       1E-12

   => Auxiliary Basis Set <=

  Basis Set: 
    Number of shells: 186
    Number of basis function: 510
    Number of Cartesian functions: 574
    Spherical Harmonics?: true
    Max angular momentum: 3

  ==> DFT Potential <==

   => B3LYP Composite Functional <= 

    B3LYP Hybrid-GGA Exchange-Correlation Functional (VWN1-RPA)

    P.J. Stephens et. al., J. Phys. Chem., 98, 11623-11627, 1994

    Points   =           5000
    Deriv    =              1
    GGA      =           TRUE
    Meta     =          FALSE

    X_LRC        =          FALSE
    X_Hybrid     =           TRUE
    X_Alpha      =   2.000000E-01
    X_Omega      =   0.000000E+00
    C_LRC        =          FALSE
    C_Hybrid     =          FALSE
    C_Alpha      =   0.000000E+00
    C_Omega      =   0.000000E+00

   => Exchange Functionals <=

    0.8000    B3_X
    0.2000      HF 

   => Correlation Functionals <=

    0.1900 VWN3RPA_C
    0.8100   LYP_C

   => Molecular Quadrature <=

    Radial Scheme    =       TREUTLER
    Pruning Scheme   =           FLAT
    Nuclear Scheme   =       TREUTLER

    BS radius alpha  =              1
    Pruning alpha    =              1
    Radial Points    =             75
    Spherical Points =            302
    Total Points     =         312731
    Total Blocks     =            271
    Max Points       =           4920
    Max Functions    =            106


  -Total Gradient:
     Atom            X                  Y                   Z
    ------   -----------------  -----------------  -----------------
       1        0.011356144301     0.007898596680    -0.008143675840
       2        0.007453161130    -0.012173387851    -0.000900258509
       3        0.005968792292     0.002190142706     0.013119885978
       4       -0.023226200313    -0.006856096798    -0.008732565770
       5       -0.008061241320    -0.011832725949     0.007267008103
       6       -0.004982665121    -0.009205671976    -0.012422727456
       7        0.015492725205     0.021624232157     0.008346364660
       8       -0.016080713471     0.001424210687    -0.001568011480
       9       -0.001592171584     0.008336759888    -0.013846300274
      10        0.021112195326    -0.008344307510     0.015968860157
      11       -0.004485917360     0.013547964562     0.002933029656
      12       -0.000059769692    -0.003711850057     0.015521937319
      13        0.013512045132     0.005011135134    -0.000160114796
      14       -0.016396173740    -0.007905271959    -0.017376888084


*** tstop() called on lski1497 at Tue Feb 21 18:29:00 2017
Module time:
	user time   =      39.50 seconds =       0.66 minutes
	system time =       0.66 seconds =       0.01 minutes
	total time  =         44 seconds =       0.73 minutes
Total time:
	user time   =     319.77 seconds =       5.33 minutes
	system time =       4.35 seconds =       0.07 minutes
	total time  =        358 seconds =       5.97 minutes

			-----------------------------------------
			 OPTKING 2.0: for geometry optimizations 
			  - R.A. King,  Bethel University        
			-----------------------------------------

	Previous internal coordinate definitions found.
	---Fragment 1 Geometry and Gradient---
	 H          -3.3663003276        0.6310015008        1.3460192602
	 H          -2.9954439626        3.7458425300        0.2288747529
	 H          -2.5560191529        1.1740808850       -1.8310583989
	 C          -2.3042190494        1.8287856869        0.0810061364
	 H           1.5575798492        2.9641567602       -0.4793382267
	 H           0.7369294972        2.4255753211        2.7103171470
	 C           0.5249010902        1.7503771847        0.7964622269
	 H           3.6123774303       -0.8343379047        0.1573528168
	 H           1.4089653695       -1.8798516456        2.4348586071
	 C           1.6302263408       -0.9619136484        0.6255255016
	 H           1.1187520563       -4.4315890545       -1.4680516612
	 H           0.5027082396       -1.6777468567       -3.2347238881
	 H          -1.6934563315       -2.7295420881       -0.9734651473
	 C           0.2896754277       -2.5658156661       -1.4098360000
	             0.0113561443        0.0078985967       -0.0081436758
	             0.0074531611       -0.0121733879       -0.0009002585
	             0.0059687923        0.0021901427        0.0131198860
	            -0.0232262003       -0.0068560968       -0.0087325658
	            -0.0080612413       -0.0118327259        0.0072670081
	            -0.0049826651       -0.0092056720       -0.0124227275
	             0.0154927252        0.0216242322        0.0083463647
	            -0.0160807135        0.0014242107       -0.0015680115
	            -0.0015921716        0.0083367599       -0.0138463003
	             0.0211121953       -0.0083443075        0.0159688602
	            -0.0044859174        0.0135479646        0.0029330297
	            -0.0000597697       -0.0037118501        0.0155219373
	             0.0135120451        0.0050111351       -0.0001601148
	            -0.0163961737       -0.0079052720       -0.0173768881

	---Fragment 1 Intrafragment Coordinates---
	 - Coordinate -           - BOHR/RAD -       - ANG/DEG -
	 R(1,4)           =         2.040334	       1.079698
	 R(2,4)           =         2.043224	       1.081228
	 R(3,4)           =         2.036672	       1.077760
	 R(4,7)           =         2.919237	       1.544794
	 R(5,7)           =         2.041410	       1.080267
	 R(6,7)           =         2.040512	       1.079792
	 R(7,10)          =         2.933852	       1.552527
	 R(8,10)          =         2.040682	       1.079883
	 R(9,10)          =         2.040895	       1.079995
	 R(10,14)         =         2.917580	       1.543917
	 R(11,14)         =         2.042515	       1.080852
	 R(12,14)         =         2.040653	       1.079867
	 R(13,14)         =         2.037164	       1.078021
	 B(1,4,2)         =         1.906923	     109.258646
	 B(1,4,3)         =         1.906042	     109.208137
	 B(1,4,7)         =         1.914263	     109.679207
	 B(2,4,3)         =         1.904692	     109.130793
	 B(2,4,7)         =         1.912743	     109.592102
	 B(3,4,7)         =         1.919065	     109.954330
	 B(4,7,5)         =         1.897700	     108.730195
	 B(4,7,6)         =         1.898305	     108.764839
	 B(4,7,10)        =         1.955916	     112.065731
	 B(5,7,6)         =         1.914376	     109.685694
	 B(5,7,10)        =         1.899357	     108.825113
	 B(6,7,10)        =         1.898011	     108.748030
	 B(7,10,8)        =         1.898125	     108.754548
	 B(7,10,9)        =         1.900020	     108.863118
	 B(7,10,14)       =         1.956014	     112.071375
	 B(8,10,9)        =         1.914325	     109.682745
	 B(8,10,14)       =         1.897175	     108.700099
	 B(9,10,14)       =         1.898001	     108.747453
	 B(10,14,11)      =         1.912981	     109.605763
	 B(10,14,12)      =         1.914156	     109.673042
	 B(10,14,13)      =         1.919878	     110.000927
	 B(11,14,12)      =         1.906748	     109.248627
	 B(11,14,13)      =         1.904806	     109.137338
	 B(12,14,13)      =         1.905149	     109.157010
	 D(1,4,7,5)       =        -3.136591	    -179.713444
	 D(1,4,7,6)       =        -1.052717	     -60.316217
	 D(1,4,7,10)      =         1.046300	      59.948581
	 D(2,4,7,5)       =        -1.043218	     -59.771984
	 D(2,4,7,6)       =         1.040657	      59.625242
	 D(2,4,7,10)      =         3.139673	     179.890040
	 D(3,4,7,5)       =         1.050381	      60.182383
	 D(3,4,7,6)       =         3.134255	     179.579610
	 D(3,4,7,10)      =        -1.049913	     -60.155592
	 D(4,7,10,8)      =         2.624101	     150.349928
	 D(4,7,10,9)      =        -1.574026	     -90.185035
	 D(4,7,10,14)     =         0.526187	      30.148320
	 D(5,7,10,8)      =         0.524771	      30.067156
	 D(5,7,10,9)      =         2.609829	     149.532193
	 D(5,7,10,14)     =        -1.573143	     -90.134453
	 D(6,7,10,8)      =        -1.559897	     -89.375493
	 D(6,7,10,9)      =         0.525162	      30.089544
	 D(6,7,10,14)     =         2.625375	     150.422898
	 D(7,10,14,11)    =         3.139008	     179.851928
	 D(7,10,14,12)    =         1.045769	      59.918137
	 D(7,10,14,13)    =        -1.049784	     -60.148178
	 D(8,10,14,11)    =         1.040541	      59.618626
	 D(8,10,14,12)    =        -1.052698	     -60.315165
	 D(8,10,14,13)    =         3.134935	     179.618519
	 D(9,10,14,11)    =        -1.042790	     -59.747494
	 D(9,10,14,12)    =        -3.136030	    -179.681286
	 D(9,10,14,13)    =         1.051603	      60.252399

	Current energy   :      -158.4466834561

	Energy change for the previous step:
		Projected    :        -0.0107706448
		Actual       :        -0.0085392746

	Performing BFGS update.
	Previous computed or guess Hessian on step 1.
	Steps to be used in Hessian update: 1
	Adding user-defined constraint: Fragment 1; Coordinate 49:
		Value =     0.526187; Fixed value    =     0.523600
		Force =    -0.001358; Force constant =     0.525000
	Removing off-diagonal coupling between coordinate 49 and others.
	Taking RFO optimization step.
	Going to follow RFO solution 1.
	Using RFO vector 1.

	Determining step-restricting scale parameter for RS-RFO.
	Maximum step size allowed    0.10000

	 Iter      |step|        alpha        rfo_root  
	------------------------------------------------
	    0     0.21919       1.00000           1
	    1     0.16820       5.83510           1
	    2     0.12979      18.07240           1
	    3     0.10853      33.57787           1
	    4     0.10102      42.09553           1
	    5     0.10002      43.40683           1
	    6     0.10000      43.43025           1
	------------------------------------------------
	Norm of target step-size    0.10000
	Projected energy change by RFO approximation:        -0.0059352902

	Back-transformation to cartesian coordinates...
	Successfully converged to displaced geometry.

	--- Internal Coordinate Step in ANG or DEG, aJ/ANG or AJ/DEG ---
	 ---------------------------------------------------------------------------
	   Coordinate                Previous        Force       Change         New 
	   ----------                --------       ------       ------       ------
	    1 R(1,4)          =      1.079698     0.128497     0.014305     1.094003
	    2 R(2,4)          =      1.081228     0.115411     0.012576     1.093803
	    3 R(3,4)          =      1.077760     0.113354     0.013876     1.091636
	    4 R(4,7)          =      1.544794     0.004938    -0.001136     1.543658
	    5 R(5,7)          =      1.080267     0.128980     0.014160     1.094428
	    6 R(6,7)          =      1.079792     0.125360     0.013732     1.093525
	    7 R(7,10)         =      1.552527     0.076760     0.003193     1.555721
	    8 R(8,10)         =      1.079883     0.124991     0.013694     1.093577
	    9 R(9,10)         =      1.079995     0.130606     0.014326     1.094321
	   10 R(10,14)        =      1.543917     0.008564    -0.000673     1.543244
	   11 R(11,14)        =      1.080852     0.117651     0.012806     1.093658
	   12 R(12,14)        =      1.079867     0.127715     0.014225     1.094092
	   13 R(13,14)        =      1.078021     0.111966     0.013734     1.091755
	   14 B(1,4,2)        =    109.258646    -0.000277    -0.524737   108.733909
	   15 B(1,4,3)        =    109.208137    -0.000280    -0.581035   108.627102
	   16 B(1,4,7)        =    109.679207     0.000303     0.624825   110.304031
	   17 B(2,4,3)        =    109.130793    -0.000303    -0.500728   108.630066
	   18 B(2,4,7)        =    109.592102     0.000141     0.284910   109.877012
	   19 B(3,4,7)        =    109.954330     0.000406     0.665645   110.619975
	   20 B(4,7,5)        =    108.730195    -0.000421    -0.306894   108.423302
	   21 B(4,7,6)        =    108.764839    -0.000456    -0.291170   108.473670
	   22 B(4,7,10)       =    112.065731     0.001606     1.353890   113.419621
	   23 B(5,7,6)        =    109.685694     0.000055    -0.251471   109.434223
	   24 B(5,7,10)       =    108.825113    -0.000361    -0.201664   108.623449
	   25 B(6,7,10)       =    108.748030    -0.000436    -0.332337   108.415693
	   26 B(7,10,8)       =    108.754548    -0.000439    -0.326749   108.427799
	   27 B(7,10,9)       =    108.863118    -0.000364    -0.212762   108.650356
	   28 B(7,10,14)      =    112.071375     0.001607     1.347639   113.419014
	   29 B(8,10,9)       =    109.682745     0.000055    -0.253825   109.428920
	   30 B(8,10,14)      =    108.700099    -0.000450    -0.280994   108.419105
	   31 B(9,10,14)      =    108.747453    -0.000421    -0.303139   108.444314
	   32 B(10,14,11)     =    109.605763     0.000142     0.273192   109.878955
	   33 B(10,14,12)     =    109.673042     0.000304     0.621262   110.294304
	   34 B(10,14,13)     =    110.000927     0.000401     0.651539   110.652466
	   35 B(11,14,12)     =    109.248627    -0.000277    -0.516724   108.731902
	   36 B(11,14,13)     =    109.137338    -0.000303    -0.492169   108.645169
	   37 B(12,14,13)     =    109.157010    -0.000276    -0.568290   108.588720
	   38 D(1,4,7,5)      =   -179.713444     0.000061     0.380528  -179.332916
	   39 D(1,4,7,6)      =    -60.316217    -0.000041    -0.263469   -60.579686
	   40 D(1,4,7,10)     =     59.948581    -0.000004    -0.018729    59.929852
	   41 D(2,4,7,5)      =    -59.771984     0.000046     0.301099   -59.470885
	   42 D(2,4,7,6)      =     59.625242    -0.000056    -0.342898    59.282344
	   43 D(2,4,7,10)     =    179.890040    -0.000019    -0.098158   179.791883
	   44 D(3,4,7,5)      =     60.182383     0.000038     0.279518    60.461901
	   45 D(3,4,7,6)      =    179.579610    -0.000064    -0.364479   179.215131
	   46 D(3,4,7,10)     =    -60.155592    -0.000026    -0.119739   -60.275331
	   47 D(4,7,10,8)     =    150.349928     0.000068     0.504641   150.854569
	   48 D(4,7,10,9)     =    -90.185035    -0.000024    -0.111172   -90.296207
	   49 D(4,7,10,14)    =     30.148320     0.000032     0.224856    30.373176
	   50 D(5,7,10,8)     =     30.067156     0.000011     0.163209    30.230364
	   51 D(5,7,10,9)     =    149.532193    -0.000081    -0.452605   149.079588
	   52 D(5,7,10,14)    =    -90.134453    -0.000025    -0.116576   -90.251029
	   53 D(6,7,10,8)     =    -89.375493     0.000102     0.772394   -88.603100
	   54 D(6,7,10,9)     =     30.089544     0.000010     0.156581    30.246125
	   55 D(6,7,10,14)    =    150.422898     0.000067     0.492609   150.915508
	   56 D(7,10,14,11)   =    179.851928    -0.000018    -0.088996   179.762932
	   57 D(7,10,14,12)   =     59.918137    -0.000003    -0.009863    59.908274
	   58 D(7,10,14,13)   =    -60.148178    -0.000026    -0.115475   -60.263654
	   59 D(8,10,14,11)   =     59.618626    -0.000055    -0.342006    59.276620
	   60 D(8,10,14,12)   =    -60.315165    -0.000040    -0.262873   -60.578038
	   61 D(8,10,14,13)   =    179.618519    -0.000063    -0.368486   179.250033
	   62 D(9,10,14,11)   =    -59.747494     0.000045     0.296110   -59.451384
	   63 D(9,10,14,12)   =   -179.681286     0.000060     0.375244  -179.306042
	   64 D(9,10,14,13)   =     60.252399     0.000037     0.269631    60.522030
	 ---------------------------------------------------------------------------
	 Forces used to impose fixed constraints are not included.
	  Forces zeroed: 49 

  ==> Convergence Check <==

  Measures of convergence in internal coordinates in au.
  Criteria marked as inactive (o), active & met (*), and active & unmet ( ).
  ---------------------------------------------------------------------------------------------
   Step     Total Energy     Delta E     MAX Force     RMS Force      MAX Disp      RMS Disp   
  ---------------------------------------------------------------------------------------------
    Convergence Criteria    1.00e-06 *    3.00e-04 *             o    1.20e-03 *             o
  ---------------------------------------------------------------------------------------------
      2    -158.44668346   -8.54e-03      2.11e-02      7.73e-03 o    2.71e-02      1.25e-02 o  ~
  ---------------------------------------------------------------------------------------------

	Writing optimization data to binary file.
	Structure for next step:
	Cartesian Geometry (in Angstrom)
	    H    -1.7967709841   0.3715634891   0.7639062193
	    H    -1.5795232192   2.0307234023   0.1623347587
	    H    -1.4135331486   0.6543244160  -0.9462383899
	    C    -1.2268350996   0.9992447090   0.0725078304
	    H     0.8176151546   1.5752508580  -0.2975261271
	    H     0.4279541158   1.2943232802   1.4227096756
	    C     0.2794370308   0.9289540643   0.4027858895
	    H     1.9237952606  -0.4314356561   0.0323860057
	    H     0.7780833079  -0.9900713199   1.2833328752
	    C     0.8675119483  -0.5080114673   0.3049879375
	    H     0.6169692556  -2.3835459010  -0.7651025796
	    H     0.2385133394  -0.9427285206  -1.7359121164
	    H    -0.9012764118  -1.5036925768  -0.4962744572
	    C     0.1566595885  -1.3917550179  -0.7415716618
			--------------------------
			 OPTKING Finished Execution 
			--------------------------

    Structure for next step:
    Molecular point group: c1
    Full point group: C1

    Geometry (in Angstrom), charge = 0, multiplicity = 1:

    H           -1.797221381653     0.371333565865     0.765909971288
    H           -1.579973616755     2.030493479099     0.164338510775
    H           -1.413983546090     0.654094492845    -0.944234637847
    C           -1.227285497169     0.999014785856     0.074511582461
    H            0.817164757025     1.575020934837    -0.295522375110
    H            0.427503718294     1.294093357044     1.424713427664
    C            0.278986633307     0.928724141155     0.404789641560
    H            1.923344863037    -0.431665579333     0.034389757697
    H            0.777632910327    -0.990301243086     1.285336627260
    C            0.867061550753    -0.508241390490     0.306991689514
    H            0.616518858089    -2.383775824162    -0.763098827545
    H            0.238062941870    -0.942958443748    -1.733908364354
    H           -0.901726809300    -1.503922499971    -0.494270705157
    C            0.156209190917    -1.391984941076    -0.739567909748

gradient() will perform analytic gradient computation.

*** tstart() called on lski1497
*** at Tue Feb 21 18:29:00 2017


         ---------------------------------------------------------
                                   SCF
            by Justin Turney, Rob Parrish, and Andy Simmonett
                              RKS Reference
                        1 Threads,   1000 MiB Core
         ---------------------------------------------------------

  ==> Geometry <==

    Molecular point group: c1
    Full point group: C1

    Geometry (in Angstrom), charge = 0, multiplicity = 1:

       Center              X                  Y                   Z               Mass       
    ------------   -----------------  -----------------  -----------------  -----------------
           H         -1.797221381653     0.371333565865     0.765909971288     1.007825032070
           H         -1.579973616755     2.030493479099     0.164338510775     1.007825032070
           H         -1.413983546090     0.654094492845    -0.944234637847     1.007825032070
           C         -1.227285497169     0.999014785856     0.074511582461    12.000000000000
           H          0.817164757025     1.575020934837    -0.295522375110     1.007825032070
           H          0.427503718294     1.294093357044     1.424713427664     1.007825032070
           C          0.278986633307     0.928724141155     0.404789641560    12.000000000000
           H          1.923344863037    -0.431665579333     0.034389757697     1.007825032070
           H          0.777632910327    -0.990301243086     1.285336627260     1.007825032070
           C          0.867061550753    -0.508241390490     0.306991689514    12.000000000000
           H          0.616518858089    -2.383775824162    -0.763098827545     1.007825032070
           H          0.238062941870    -0.942958443748    -1.733908364354     1.007825032070
           H         -0.901726809300    -1.503922499971    -0.494270705157     1.007825032070
           C          0.156209190917    -1.391984941076    -0.739567909748    12.000000000000

  Running in c1 symmetry.

  Rotational constants: A =      0.39488  B =      0.17965  C =      0.13845 [cm^-1]
  Rotational constants: A =  11838.26717  B =   5385.89489  C =   4150.70522 [MHz]
  Nuclear repulsion =  132.924526965596669

  Charge       = 0
  Multiplicity = 1
  Electrons    = 34
  Nalpha       = 17
  Nbeta        = 17

  ==> Algorithm <==

  SCF Algorithm Type is DF.
  DIIS enabled.
  MOM disabled.
  Fractional occupation disabled.
  Guess Type is READ.
  Energy threshold   = 1.00e-08
  Density threshold  = 1.00e-08
  Integral threshold = 0.00e+00

  ==> Primary Basis <==

  Basis Set: CC-PVDZ
    Number of shells: 54
    Number of basis function: 106
    Number of Cartesian functions: 110
    Spherical Harmonics?: true
    Max angular momentum: 2

  ==> DFT Potential <==

   => B3LYP Composite Functional <= 

    B3LYP Hybrid-GGA Exchange-Correlation Functional (VWN1-RPA)

    P.J. Stephens et. al., J. Phys. Chem., 98, 11623-11627, 1994

    Points   =           5000
    Deriv    =              1
    GGA      =           TRUE
    Meta     =          FALSE

    X_LRC        =          FALSE
    X_Hybrid     =           TRUE
    X_Alpha      =   2.000000E-01
    X_Omega      =   0.000000E+00
    C_LRC        =          FALSE
    C_Hybrid     =          FALSE
    C_Alpha      =   0.000000E+00
    C_Omega      =   0.000000E+00

   => Exchange Functionals <=

    0.8000    B3_X
    0.2000      HF 

   => Correlation Functionals <=

    0.1900 VWN3RPA_C
    0.8100   LYP_C

   => Molecular Quadrature <=

    Radial Scheme    =       TREUTLER
    Pruning Scheme   =           FLAT
    Nuclear Scheme   =       TREUTLER

    BS radius alpha  =              1
    Pruning alpha    =              1
    Radial Points    =             75
    Spherical Points =            302
    Total Points     =         312754
    Total Blocks     =            270
    Max Points       =           4986
    Max Functions    =            106

  ==> Pre-Iterations <==

   -------------------------------------------------------
    Irrep   Nso     Nmo     Nalpha   Nbeta   Ndocc  Nsocc
   -------------------------------------------------------
     A        106     106       0       0       0       0
   -------------------------------------------------------
    Total     106     106      17      17      17       0
   -------------------------------------------------------

  ==> Integral Setup <==

  ==> DFJK: Density-Fitted J/K Matrices <==

    J tasked:                  Yes
    K tasked:                  Yes
    wK tasked:                  No
    OpenMP threads:              1
    Integrals threads:           1
    Memory (MB):               715
    Algorithm:                Core
    Integral Cache:           NONE
    Schwarz Cutoff:          1E-12
    Fitting Condition:       1E-12

   => Auxiliary Basis Set <=

  Basis Set: 
    Number of shells: 186
    Number of basis function: 510
    Number of Cartesian functions: 574
    Spherical Harmonics?: true
    Max angular momentum: 3

  Minimum eigenvalue in the overlap matrix is 3.9535793894E-03.
  Using Symmetric Orthogonalization.
  SCF Guess was Projection but file not found.
  Switching over to SAD guess.

  SCF Guess: Superposition of Atomic Densities via on-the-fly atomic UHF.

  ==> Iterations <==

                           Total Energy        Delta E     RMS |[F,P]|

   @DF-RKS iter   0:  -158.90247666604139   -1.58902e+02   3.23021e-02 
   @DF-RKS iter   1:  -158.28637886829699    6.16098e-01   5.04566e-03 
   @DF-RKS iter   2:  -158.21260379537983    7.37751e-02   6.18237e-03 DIIS
   @DF-RKS iter   3:  -158.45014327326584   -2.37539e-01   3.78636e-04 DIIS
   @DF-RKS iter   4:  -158.45097249909259   -8.29226e-04   1.07420e-04 DIIS
   @DF-RKS iter   5:  -158.45102947440873   -5.69753e-05   4.48727e-05 DIIS
   @DF-RKS iter   6:  -158.45104036188201   -1.08875e-05   7.25392e-06 DIIS
   @DF-RKS iter   7:  -158.45104068748998   -3.25608e-07   9.76083e-07 DIIS
   @DF-RKS iter   8:  -158.45104069396567   -6.47569e-09   1.51205e-07 DIIS
   @DF-RKS iter   9:  -158.45104069407415   -1.08486e-10   8.32016e-08 DIIS
   @DF-RKS iter  10:  -158.45104069411212   -3.79714e-11   1.41458e-08 DIIS
   @DF-RKS iter  11:  -158.45104069411349   -1.36424e-12   2.06520e-09 DIIS

  ==> Post-Iterations <==

    Orbital Energies (a.u.)
    -----------------------

    Doubly Occupied:                                                      

       1A    -10.177694     2A    -10.177547     3A    -10.171848  
       4A    -10.171811     5A     -0.789234     6A     -0.713387  
       7A     -0.641709     8A     -0.556999     9A     -0.464156  
      10A     -0.448131    11A     -0.409496    12A     -0.384166  
      13A     -0.373513    14A     -0.361353    15A     -0.320474  
      16A     -0.320428    17A     -0.315714  

    Virtual:                                                              

      18A      0.056305    19A      0.094211    20A      0.097959  
      21A      0.106366    22A      0.131196    23A      0.131535  
      24A      0.155319    25A      0.162120    26A      0.163247  
      27A      0.188186    28A      0.198176    29A      0.232206  
      30A      0.274225    31A      0.406525    32A      0.417253  
      33A      0.434746    34A      0.447124    35A      0.465013  
      36A      0.488461    37A      0.505260    38A      0.582314  
      39A      0.594936    40A      0.611327    41A      0.629418  
      42A      0.643948    43A      0.655761    44A      0.656921  
      45A      0.667377    46A      0.679117    47A      0.679828  
      48A      0.695551    49A      0.715805    50A      0.716313  
      51A      0.757698    52A      0.820275    53A      0.881979  
      54A      0.892246    55A      0.966835    56A      1.080249  
      57A      1.172533    58A      1.205785    59A      1.209373  
      60A      1.272365    61A      1.281079    62A      1.337619  
      63A      1.414538    64A      1.426712    65A      1.460070  
      66A      1.552936    67A      1.566144    68A      1.587059  
      69A      1.591080    70A      1.625273    71A      1.634974  
      72A      1.636577    73A      1.665898    74A      1.673482  
      75A      1.689203    76A      1.690707    77A      1.697223  
      78A      1.738590    79A      1.754781    80A      1.780388  
      81A      1.799506    82A      1.813948    83A      1.846674  
      84A      1.902412    85A      1.945807    86A      1.953220  
      87A      2.019808    88A      2.069278    89A      2.110902  
      90A      2.120271    91A      2.186515    92A      2.245516  
      93A      2.245721    94A      2.259116    95A      2.312313  
      96A      2.321264    97A      2.438677    98A      2.440635  
      99A      2.468258   100A      2.488800   101A      2.526183  
     102A      2.539816   103A      2.608113   104A      2.625394  
     105A      2.657350   106A      2.730285  

    Final Occupation by Irrep:
              A 
    DOCC [    17 ]

  Energy converged.

  @DF-RKS Final Energy:  -158.45104069411349

   => Energetics <=

    Nuclear Repulsion Energy =            132.9245269655966695
    One-Electron Energy =                -474.3412866741090284
    Two-Electron Energy =                 203.5730179523968957
    DFT Exchange-Correlation Energy =     -20.6072989379980243
    Empirical Dispersion Energy =           0.0000000000000000
    PCM Polarization Energy =               0.0000000000000000
    EFP Energy =                            0.0000000000000000
    Total Energy =                       -158.4510406941134875


  Saving occupied orbitals to File 180.

*** tstop() called on lski1497 at Tue Feb 21 18:31:15 2017
Module time:
	user time   =     120.20 seconds =       2.00 minutes
	system time =       1.45 seconds =       0.02 minutes
	total time  =        135 seconds =       2.25 minutes
Total time:
	user time   =     440.63 seconds =       7.34 minutes
	system time =       5.82 seconds =       0.10 minutes
	total time  =        493 seconds =       8.22 minutes


Properties will be evaluated at   0.000000,   0.000000,   0.000000 Bohr

Properties computed using the SCF density matrix

  Nuclear Dipole Moment: (a.u.)
     X:    -0.8369      Y:    -0.3071      Z:    -0.5216

  Electronic Dipole Moment: (a.u.)
     X:     0.8506      Y:     0.3121      Z:     0.5300

  Dipole Moment: (a.u.)
     X:     0.0137      Y:     0.0050      Z:     0.0084     Total:     0.0169

  Dipole Moment: (Debye)
     X:     0.0349      Y:     0.0127      Z:     0.0214     Total:     0.0429


*** tstart() called on lski1497
*** at Tue Feb 21 18:31:15 2017


         ------------------------------------------------------------
                                   SCF GRAD                          
                          Rob Parrish, Justin Turney,                
                       Andy Simmonett, and Alex Sokolov              
         ------------------------------------------------------------

  ==> Geometry <==

    Molecular point group: c1
    Full point group: C1

    Geometry (in Angstrom), charge = 0, multiplicity = 1:

       Center              X                  Y                   Z               Mass       
    ------------   -----------------  -----------------  -----------------  -----------------
           H         -1.797221381653     0.371333565865     0.765909971288     1.007825032070
           H         -1.579973616755     2.030493479099     0.164338510775     1.007825032070
           H         -1.413983546090     0.654094492845    -0.944234637847     1.007825032070
           C         -1.227285497169     0.999014785856     0.074511582461    12.000000000000
           H          0.817164757025     1.575020934837    -0.295522375110     1.007825032070
           H          0.427503718294     1.294093357044     1.424713427664     1.007825032070
           C          0.278986633307     0.928724141155     0.404789641560    12.000000000000
           H          1.923344863037    -0.431665579333     0.034389757697     1.007825032070
           H          0.777632910327    -0.990301243086     1.285336627260     1.007825032070
           C          0.867061550753    -0.508241390490     0.306991689514    12.000000000000
           H          0.616518858089    -2.383775824162    -0.763098827545     1.007825032070
           H          0.238062941870    -0.942958443748    -1.733908364354     1.007825032070
           H         -0.901726809300    -1.503922499971    -0.494270705157     1.007825032070
           C          0.156209190917    -1.391984941076    -0.739567909748    12.000000000000

  Nuclear repulsion =  132.924526965596669

  ==> Basis Set <==

  Basis Set: CC-PVDZ
    Number of shells: 54
    Number of basis function: 106
    Number of Cartesian functions: 110
    Spherical Harmonics?: true
    Max angular momentum: 2

  ==> DFJKGrad: Density-Fitted SCF Gradients <==

    Gradient:                    1
    J tasked:                  Yes
    K tasked:                  Yes
    wK tasked:                  No
    OpenMP threads:              1
    Integrals threads:           1
    Memory (MB):               715
    Schwarz Cutoff:          0E+00
    Fitting Condition:       1E-12

   => Auxiliary Basis Set <=

  Basis Set: 
    Number of shells: 186
    Number of basis function: 510
    Number of Cartesian functions: 574
    Spherical Harmonics?: true
    Max angular momentum: 3

  ==> DFT Potential <==

   => B3LYP Composite Functional <= 

    B3LYP Hybrid-GGA Exchange-Correlation Functional (VWN1-RPA)

    P.J. Stephens et. al., J. Phys. Chem., 98, 11623-11627, 1994

    Points   =           5000
    Deriv    =              1
    GGA      =           TRUE
    Meta     =          FALSE

    X_LRC        =          FALSE
    X_Hybrid     =           TRUE
    X_Alpha      =   2.000000E-01
    X_Omega      =   0.000000E+00
    C_LRC        =          FALSE
    C_Hybrid     =          FALSE
    C_Alpha      =   0.000000E+00
    C_Omega      =   0.000000E+00

   => Exchange Functionals <=

    0.8000    B3_X
    0.2000      HF 

   => Correlation Functionals <=

    0.1900 VWN3RPA_C
    0.8100   LYP_C

   => Molecular Quadrature <=

    Radial Scheme    =       TREUTLER
    Pruning Scheme   =           FLAT
    Nuclear Scheme   =       TREUTLER

[...]
       9       -0.000032679930     0.000000033522     0.000005043351
      10        0.004158647832     0.002256588255    -0.006042126473
      11        0.000003317322    -0.000023465348    -0.000006536125
      12        0.000002106570    -0.000000002546    -0.000008401599
      13       -0.000012980776     0.000001456398     0.000000974778
      14       -0.002613931584    -0.001359162637     0.002953878309


*** tstop() called on lski1497 at Tue Feb 21 19:03:36 2017
Module time:
	user time   =      38.58 seconds =       0.64 minutes
	system time =       0.61 seconds =       0.01 minutes
	total time  =         44 seconds =       0.73 minutes
Total time:
	user time   =    2096.97 seconds =      34.95 minutes
	system time =      28.98 seconds =       0.48 minutes
	total time  =       2434 seconds =      40.57 minutes

			-----------------------------------------
			 OPTKING 2.0: for geometry optimizations 
			  - R.A. King,  Bethel University        
			-----------------------------------------

	Previous internal coordinate definitions found.
	---Fragment 1 Geometry and Gradient---
	 H          -3.4817776617        0.7716900017        1.4850272162
	 H          -2.9761983183        3.9371055303        0.4865123285
	 H          -2.8080227864        1.4317235370       -1.7408179648
	 C          -2.3418439908        1.9717170743        0.2142074427
	 H           1.4922023262        2.9966859606       -0.5848941635
	 H           0.9194618073        2.4864872694        2.6491850929
	 C           0.4941810924        1.7353647212        0.7507439851
	 H           3.6612156307       -0.7951633729        0.0971808336
	 H           1.5135496221       -1.8868763085        2.3870043413
	 C           1.6251497400       -0.9528450368        0.5199104439
	 H           1.3305146804       -4.5447403325       -1.4731947037
	 H           0.3978158664       -1.9103759241       -3.3340271641
	 H          -1.6352258079       -3.0723061730       -0.9231504917
	 C           0.3557530566       -2.7050406355       -1.4049770678
	            -0.0000061908       -0.0000014772        0.0000060672
	            -0.0000157692        0.0000187678       -0.0000009638
	            -0.0000030448       -0.0000073286       -0.0000106578
	             0.0008150737        0.0006956312       -0.0040318742
	            -0.0000068746       -0.0000148833       -0.0000287894
	             0.0000217302        0.0000233124        0.0000065696
	            -0.0023271910       -0.0015805516        0.0071397372
	             0.0000241528       -0.0000065669        0.0000208962
	            -0.0000326799        0.0000000335        0.0000050434
	             0.0041586478        0.0022565883       -0.0060421265
	             0.0000033173       -0.0000234653       -0.0000065361
	             0.0000021066       -0.0000000025       -0.0000084016
	            -0.0000129808        0.0000014564        0.0000009748
	            -0.0026139316       -0.0013591626        0.0029538783

	---Fragment 1 Intrafragment Coordinates---
	 - Coordinate -           - BOHR/RAD -       - ANG/DEG -
	 R(1,4)           =         2.086743	       1.104257
	 R(2,4)           =         2.083100	       1.102329
	 R(3,4)           =         2.081115	       1.101279
	 R(4,7)           =         2.895992	       1.532493
	 R(5,7)           =         2.090671	       1.106336
	 R(6,7)           =         2.085456	       1.103576
	 R(7,10)          =         2.925551	       1.548135
	 R(8,10)          =         2.085456	       1.103576
	 R(9,10)          =         2.090672	       1.106336
	 R(10,14)         =         2.895988	       1.532491
	 R(11,14)         =         2.083101	       1.102329
	 R(12,14)         =         2.086743	       1.104257
	 R(13,14)         =         2.081115	       1.101278
	 B(1,4,2)         =         1.871941	     107.254305
	 B(1,4,3)         =         1.876030	     107.488578
	 B(1,4,7)         =         1.955410	     112.036719
	 B(2,4,3)         =         1.874857	     107.421391
	 B(2,4,7)         =         1.929437	     110.548591
	 B(3,4,7)         =         1.952210	     111.853397
	 B(4,7,5)         =         1.875369	     107.450736
	 B(4,7,6)         =         1.916612	     109.813757
	 B(4,7,10)        =         2.025229	     116.037070
	 B(5,7,6)         =         1.840995	     105.481237
	 B(5,7,10)        =         1.895908	     108.627516
	 B(6,7,10)        =         1.900692	     108.901635
	 B(7,10,8)        =         1.900693	     108.901691
	 B(7,10,9)        =         1.895910	     108.627637
	 B(7,10,14)       =         2.025227	     116.036962
	 B(8,10,9)        =         1.840994	     105.481183
	 B(8,10,14)       =         1.916612	     109.813756
	 B(9,10,14)       =         1.875369	     107.450728
	 B(10,14,11)      =         1.929437	     110.548600
	 B(10,14,12)      =         1.955409	     112.036672
	 B(10,14,13)      =         1.952209	     111.853358
	 B(11,14,12)      =         1.871941	     107.254316
	 B(11,14,13)      =         1.874858	     107.421435
	 B(12,14,13)      =         1.876030	     107.488607
	 D(1,4,7,5)       =        -3.135409	    -179.645712
	 D(1,4,7,6)       =        -1.141428	     -65.398980
	 D(1,4,7,10)      =         1.022835	      58.604101
	 D(2,4,7,5)       =        -1.048546	     -60.077266
	 D(2,4,7,6)       =         0.945436	      54.169466
	 D(2,4,7,10)      =         3.109698	     178.172547
	 D(3,4,7,5)       =         1.039891	      59.581383
	 D(3,4,7,6)       =         3.033873	     173.828115
	 D(3,4,7,10)      =        -1.085050	     -62.168804
	 D(4,7,10,8)      =         2.704601	     154.962250
	 D(4,7,10,9)      =        -1.581877	     -90.634873
	 D(4,7,10,14)     =         0.532122	      30.488349
	 D(5,7,10,8)      =         0.590603	      33.839036
	 D(5,7,10,9)      =         2.587309	     148.241913
	 D(5,7,10,14)     =        -1.581877	     -90.634865
	 D(6,7,10,8)      =        -1.406104	     -80.563812
	 D(6,7,10,9)      =         0.590603	      33.839065
	 D(6,7,10,14)     =         2.704602	     154.962287
	 D(7,10,14,11)    =         3.109696	     178.172434
	 D(7,10,14,12)    =         1.022833	      58.603998
	 D(7,10,14,13)    =        -1.085052	     -62.168882
	 D(8,10,14,11)    =         0.945434	      54.169361
	 D(8,10,14,12)    =        -1.141429	     -65.399074
	 D(8,10,14,13)    =         3.033872	     173.828045
	 D(9,10,14,11)    =        -1.048547	     -60.077302
	 D(9,10,14,12)    =        -3.135410	    -179.645737
	 D(9,10,14,13)    =         1.039891	      59.581383

	Current energy   :      -158.4536098794

	Energy change for the previous step:
		Projected    :        -0.0000065132
		Actual       :        -0.0000051260

	Performing BFGS update.
	Previous computed or guess Hessian on step 1.
	Steps to be used in Hessian update: 12 11
	Adding user-defined constraint: Fragment 1; Coordinate 49:
		Value =     0.532122; Fixed value    =     0.523600
		Force =    -0.006818; Force constant =     0.800000
	Removing off-diagonal coupling between coordinate 49 and others.
	Taking RFO optimization step.
	Going to follow RFO solution 1.
	Rejecting RFO root 1 because normalization gives large value.
	Rejecting RFO root 2 because normalization gives large value.
	Rejecting RFO root 3 because normalization gives large value.
	Rejecting RFO root 4 because normalization gives large value.
	Rejecting RFO root 5 because normalization gives large value.
	Rejecting RFO root 6 because normalization gives large value.
	Rejecting RFO root 7 because normalization gives large value.
	Rejecting RFO root 8 because normalization gives large value.
	Rejecting RFO root 9 because normalization gives large value.
	Rejecting RFO root 10 because normalization gives large value.
	Rejecting RFO root 11 because normalization gives large value.
	Rejecting RFO root 12 because normalization gives large value.
	Rejecting RFO root 13 because normalization gives large value.
	Rejecting RFO root 14 because normalization gives large value.
	Rejecting RFO root 15 because normalization gives large value.
	Rejecting RFO root 16 because normalization gives large value.
	Rejecting RFO root 17 because normalization gives large value.
	Rejecting RFO root 18 because normalization gives large value.
	Rejecting RFO root 19 because normalization gives large value.
	Rejecting RFO root 20 because normalization gives large value.
	Rejecting RFO root 21 because normalization gives large value.
	Rejecting RFO root 22 because normalization gives large value.
	Rejecting RFO root 23 because normalization gives large value.
	Rejecting RFO root 24 because normalization gives large value.
	Rejecting RFO root 25 because normalization gives large value.
	Rejecting RFO root 26 because normalization gives large value.
	Rejecting RFO root 27 because normalization gives large value.
	Rejecting RFO root 28 because normalization gives large value.
	Rejecting RFO root 29 because normalization gives large value.
	Rejecting RFO root 30 because normalization gives large value.
	Rejecting RFO root 31 because normalization gives large value.
	Using RFO vector 32.
	Norm of target step-size    0.00189
	Projected energy change by RFO approximation:         0.0000000345

	Back-transformation to cartesian coordinates...
	Successfully converged to displaced geometry.

	--- Internal Coordinate Step in ANG or DEG, aJ/ANG or AJ/DEG ---
	 ---------------------------------------------------------------------------
	   Coordinate                Previous        Force       Change         New 
	   ----------                --------       ------       ------       ------
	    1 R(1,4)          =      1.104257    -0.000073    -0.000011     1.104246
	    2 R(2,4)          =      1.102329    -0.000182    -0.000029     1.102300
	    3 R(3,4)          =      1.101279    -0.000103    -0.000019     1.101260
	    4 R(4,7)          =      1.532493    -0.000282    -0.000071     1.532422
	    5 R(5,7)          =      1.106336    -0.000046    -0.000012     1.106324
	    6 R(6,7)          =      1.103576    -0.000154    -0.000025     1.103551
	    7 R(7,10)         =      1.548135    -0.000285    -0.000037     1.548098
	    8 R(8,10)         =      1.103576    -0.000154    -0.000025     1.103551
	    9 R(9,10)         =      1.106336    -0.000047    -0.000012     1.106324
	   10 R(10,14)        =      1.532491    -0.000272    -0.000068     1.532423
	   11 R(11,14)        =      1.102329    -0.000183    -0.000029     1.102301
	   12 R(12,14)        =      1.104257    -0.000072    -0.000010     1.104246
	   13 R(13,14)        =      1.101278    -0.000102    -0.000019     1.101260
	   14 B(1,4,2)        =    107.254305     0.000001     0.001512   107.255817
	   15 B(1,4,3)        =    107.488578     0.000000     0.001441   107.490019
	   16 B(1,4,7)        =    112.036719     0.000000     0.002364   112.039083
	   17 B(2,4,3)        =    107.421391     0.000000    -0.000919   107.420472
	   18 B(2,4,7)        =    110.548591    -0.000001    -0.006345   110.542246
	   19 B(3,4,7)        =    111.853397     0.000000     0.002000   111.855397
	   20 B(4,7,5)        =    107.450736     0.000003    -0.002636   107.448101
	   21 B(4,7,6)        =    109.813757    -0.000003     0.001528   109.815285
	   22 B(4,7,10)       =    116.037070    -0.000000     0.003160   116.040230
	   23 B(5,7,6)        =    105.481237    -0.000000    -0.005559   105.475678
	   24 B(5,7,10)       =    108.627516     0.000001     0.002152   108.629669
	   25 B(6,7,10)       =    108.901635    -0.000001     0.000447   108.902083
	   26 B(7,10,8)       =    108.901691    -0.000001     0.000280   108.901971
	   27 B(7,10,9)       =    108.627637     0.000001     0.002032   108.629669
	   28 B(7,10,14)      =    116.036962    -0.000000     0.003272   116.040233
	   29 B(8,10,9)       =    105.481183    -0.000000    -0.005494   105.475689
	   30 B(8,10,14)      =    109.813756    -0.000003     0.001566   109.815322
	   31 B(9,10,14)      =    107.450728     0.000003    -0.002563   107.448165
	   32 B(10,14,11)     =    110.548600    -0.000001    -0.006290   110.542310
	   33 B(10,14,12)     =    112.036672     0.000000     0.002432   112.039104
	   34 B(10,14,13)     =    111.853358     0.000000     0.002045   111.855403
	   35 B(11,14,12)     =    107.254316     0.000001     0.001470   107.255786
	   36 B(11,14,13)     =    107.421435     0.000000    -0.001004   107.420431
	   37 B(12,14,13)     =    107.488607     0.000000     0.001387   107.489994
	   38 D(1,4,7,5)      =   -179.645712     0.000000     0.029945  -179.615767
	   39 D(1,4,7,6)      =    -65.398980     0.000000     0.022759   -65.376221
	   40 D(1,4,7,10)     =     58.604101    -0.000001     0.027050    58.631151
	   41 D(2,4,7,5)      =    -60.077266     0.000000     0.029118   -60.048149
	   42 D(2,4,7,6)      =     54.169466     0.000000     0.021931    54.191397
	   43 D(2,4,7,10)     =    178.172547    -0.000001     0.026223   178.198770
	   44 D(3,4,7,5)      =     59.581383     0.000000     0.024993    59.606376
	   45 D(3,4,7,6)      =    173.828115     0.000000     0.017806   173.845921
	   46 D(3,4,7,10)     =    -62.168804    -0.000001     0.022098   -62.146706
	   47 D(4,7,10,8)     =    154.962250     0.000001     0.003765   154.966014
	   48 D(4,7,10,9)     =    -90.634873     0.000001    -0.001498   -90.636372
	   49 D(4,7,10,14)    =     30.488349     0.000002    -0.001026    30.487323
	   50 D(5,7,10,8)     =     33.839036    -0.000000     0.003371    33.842407
	   51 D(5,7,10,9)     =    148.241913    -0.000000    -0.001892   148.240021
	   52 D(5,7,10,14)    =    -90.634865     0.000001    -0.001420   -90.636285
	   53 D(6,7,10,8)     =    -80.563812    -0.000000     0.008560   -80.555252
	   54 D(6,7,10,9)     =     33.839065    -0.000000     0.003297    33.842362
	   55 D(6,7,10,14)    =    154.962287     0.000001     0.003769   154.966056
	   56 D(7,10,14,11)   =    178.172434    -0.000001     0.026359   178.198792
	   57 D(7,10,14,12)   =     58.603998    -0.000001     0.027157    58.631156
	   58 D(7,10,14,13)   =    -62.168882    -0.000001     0.022194   -62.146688
	   59 D(8,10,14,11)   =     54.169361     0.000000     0.022177    54.191538
	   60 D(8,10,14,12)   =    -65.399074     0.000000     0.022976   -65.376098
	   61 D(8,10,14,13)   =    173.828045     0.000000     0.018012   173.846057
	   62 D(9,10,14,11)   =    -60.077302     0.000000     0.029228   -60.048074
	   63 D(9,10,14,12)   =   -179.645737     0.000000     0.030027  -179.615710
	   64 D(9,10,14,13)   =     59.581383     0.000000     0.025063    59.606446
	 ---------------------------------------------------------------------------
	 Forces used to impose fixed constraints are not included.
	  Forces zeroed: 49 

  ==> Convergence Check <==

  Measures of convergence in internal coordinates in au.
  Criteria marked as inactive (o), active & met (*), and active & unmet ( ).
  ---------------------------------------------------------------------------------------------
   Step     Total Energy     Delta E     MAX Force     RMS Force      MAX Disp      RMS Disp   
  ---------------------------------------------------------------------------------------------
    Convergence Criteria    1.00e-06 *    3.00e-04 *             o    1.20e-03 *             o
  ---------------------------------------------------------------------------------------------
     13    -158.45360988   -5.13e-06      4.75e-05 *    2.35e-05 o    5.24e-04 *    2.37e-04 o  ~
  ---------------------------------------------------------------------------------------------


  **** Optimization is complete! (in 13 steps) ****

  ==> Optimization Summary <==

  Measures of convergence in internal coordinates in au.
  --------------------------------------------------------------------------------------------------------------- ~
   Step         Total Energy             Delta E       MAX Force       RMS Force        MAX Disp        RMS Disp  ~
  --------------------------------------------------------------------------------------------------------------- ~
      1    -158.438144181533   -158.438144181533      0.04772220      0.01395881      0.04477403      0.01269949  ~
      2    -158.446683456133     -0.008539274600      0.02111349      0.00773082      0.02707149      0.01252810  ~
      3    -158.451040694113     -0.004357237981      0.01174835      0.00368438      0.03388920      0.01254500  ~
      4    -158.452805940563     -0.001765246449      0.00474879      0.00146534      0.04401290      0.01250518  ~
      5    -158.453437265172     -0.000631324610      0.00145972      0.00047441      0.04162364      0.01249355  ~
      6    -158.453612381544     -0.000175116372      0.00037018      0.00015041      0.02641745      0.01249977  ~
      7    -158.453647478944     -0.000035097400      0.00035193      0.00009149      0.00491032      0.00213966  ~
      8    -158.453641940678      0.000005538266      0.00023977      0.00005644      0.00571355      0.00262656  ~
      9    -158.453637638272      0.000004302407      0.00028770      0.00007452      0.00626554      0.00280088  ~
     10    -158.453636141616      0.000001496656      0.00030155      0.00006771      0.03582790      0.01249858  ~
     11    -158.453574570368      0.000061571248      0.00144911      0.00050183      0.03882677      0.01250144  ~
     12    -158.453604753444     -0.000030183076      0.00036068      0.00008543      0.00422618      0.00205139  ~
     13    -158.453609879399     -0.000005125955      0.00011428      0.00002752      0.00052407      0.00023674  ~
  --------------------------------------------------------------------------------------------------------------- ~

	Writing optimization data to binary file.
	Final energy is   -158.4536098793991
	Final (previous) structure:
	Cartesian Geometry (in Angstrom)
	    H    -1.8424773839   0.4083607610   0.7858425570
	    H    -1.5749363183   2.0834265145   0.2574512360
	    H    -1.4859416598   0.7576354648  -0.9212011913
	    C    -1.2392504660   1.0433877375   0.1133536966
	    H     0.7896394616   1.5857779116  -0.3095126608
	    H     0.4865582326   1.3157923924   1.4018883725
	    C     0.2615093710   0.9183154591   0.3972766064
	    H     1.9374318675  -0.4207823340   0.0514258822
	    H     0.8009359641  -0.9984919379   1.2631482942
	    C     0.8599922030  -0.5042238768   0.2751247574
	    H     0.7040780445  -2.4049730029  -0.7795810610
	    H     0.2105150897  -1.0109273989  -1.7642911881
	    H    -0.8653242284  -1.6257944046  -0.4885102003
	    C     0.1882564094  -1.4314458526  -0.7434818429
	Saving final (previous) structure.
			--------------------------
			 OPTKING Finished Execution 
			--------------------------

    Final optimized geometry and variables:
    Molecular point group: c1
    Full point group: C1

    Geometry (in Angstrom), charge = 0, multiplicity = 1:

    H           -1.842477383940     0.408360760995     0.785842556964
    H           -1.574936318278     2.083426514469     0.257451235952
    H           -1.485941659759     0.757635464772    -0.921201191294
    C           -1.239250466013     1.043387737533     0.113353696591
    H            0.789639461627     1.585777911646    -0.309512660754
    H            0.486558232595     1.315792392390     1.401888372512
    C            0.261509371011     0.918315459065     0.397276606427
    H            1.937431867479    -0.420782334044     0.051425882241
    H            0.800935964065    -0.998491937913     1.263148294230
    C            0.859992202966    -0.504223876772     0.275124757426
    H            0.704078044543    -2.404973002893    -0.779581060988
    H            0.210515089704    -1.010927398891    -1.764291188065
    H           -0.865324228431    -1.625794404552    -0.488510200289
    C            0.188256409420    -1.431445852623    -0.743481842876

	Cleaning optimization helper files.

*** Psi4 exiting successfully. Buy a developer a beer!
