    -----------------------------------------------------------------------
          Psi4: An Open-Source Ab Initio Electronic Structure Package
                              Psi4 1.0.0 Driver

                          Git: Rev {master} 6a9a71b 

    J. M. Turney, A. C. Simmonett, R. M. Parrish, E. G. Hohenstein,
    F. A. Evangelista, J. T. Fermann, B. J. Mintz, L. A. Burns, J. J. Wilke,
    M. L. Abrams, N. J. Russ, M. L. Leininger, C. L. Janssen, E. T. Seidl,
    W. D. Allen, H. F. Schaefer, R. A. King, E. F. Valeev, C. D. Sherrill,
    and T. D. Crawford, WIREs Comput. Mol. Sci. 2, 556-565 (2012)
    (doi: 10.1002/wcms.93)

                         Additional Contributions by
    A. E. DePrince, U. Bozkaya, A. Yu. Sokolov, D. G. A. Smith, R. Di Remigio,
    R. M. Richard, J. F. Gonthier, H. R. McAlexander, M. Saitow, and
    B. P. Pritchard
    -----------------------------------------------------------------------


    Psi4 started on: Thu Feb 16 16:34:22 2017

    Process ID:   2020
    PSI4DATADIR: /Users/sternc1/anaconda/share/psi4
    Memory level set to 256.000 MB

  ==> Input File <==

--------------------------------------------------------------------------

memory 1000 mb

molecule butane {
  symmetry C1
  0 1 
  H      1.604   0.760   -8.260
  H      1.745   2.388   -8.880
  H      2.043   1.024   -9.930
  C      2.142   1.395   -8.932
  H      4.169   2.051   -9.210
  H      3.731   1.788   -7.539
  C      3.631   1.416   -8.537
  H      4.429   -0.252   -9.630
  H      5.096   -0.070   -8.026
  C      4.203   -0.012   -8.612
  H      3.563   -2.002   -8.119
  H      2.273   -0.953   -8.653
  H      2.939   -0.771   -7.049
  C      3.166   -1.010   -8.067
  units Angstrom
}

dih_string = "4 7 10 14 320"
set optking fixed_dihedral = $dih_string

optimize('MP2/6-31G(d)')
--------------------------------------------------------------------------

  Memory set to 1000.000 MiB by Python script.
gradient() will perform analytic gradient computation.
    SCF Algorithm Type (re)set to DF.

*** tstart() called on lski1497
*** at Thu Feb 16 16:34:23 2017


         ---------------------------------------------------------
                                   SCF
            by Justin Turney, Rob Parrish, and Andy Simmonett
                              RHF Reference
                        1 Threads,   1000 MiB Core
         ---------------------------------------------------------

  ==> Geometry <==

    Molecular point group: c1
    Full point group: C1

    Geometry (in Angstrom), charge = 0, multiplicity = 1:

       Center              X                  Y                   Z               Mass       
    ------------   -----------------  -----------------  -----------------  -----------------
           H         -1.659583309871     0.321591293445     0.275715886722     1.007825032070
           H         -1.518583309871     1.949591293445    -0.344284113278     1.007825032070
           H         -1.220583309871     0.585591293445    -1.394284113278     1.007825032070
           C         -1.121583309871     0.956591293445    -0.396284113278    12.000000000000
           H          0.905416690129     1.612591293445    -0.674284113278     1.007825032070
           H          0.467416690129     1.349591293445     0.996715886722     1.007825032070
           C          0.367416690129     0.977591293445    -0.001284113278    12.000000000000
           H          1.165416690129    -0.690408706555    -1.094284113278     1.007825032070
           H          1.832416690129    -0.508408706555     0.509715886722     1.007825032070
           C          0.939416690129    -0.450408706555    -0.076284113278    12.000000000000
           H          0.299416690129    -2.440408706555     0.416715886722     1.007825032070
           H         -0.990583309871    -1.391408706555    -0.117284113278     1.007825032070
           H         -0.324583309871    -1.209408706555     1.486715886722     1.007825032070
           C         -0.097583309871    -1.448408706555     0.468715886722    12.000000000000

  Running in c1 symmetry.

  Rotational constants: A =      0.39417  B =      0.19303  C =      0.14785 [cm^-1]
  Rotational constants: A =  11816.92153  B =   5786.96044  C =   4432.31786 [MHz]
  Nuclear repulsion =  135.634122936721496

  Charge       = 0
  Multiplicity = 1
  Electrons    = 34
  Nalpha       = 17
  Nbeta        = 17

  ==> Algorithm <==

  SCF Algorithm Type is DF.
  DIIS enabled.
  MOM disabled.
  Fractional occupation disabled.
  Guess Type is SAD.
  Energy threshold   = 1.00e-10
  Density threshold  = 1.00e-10
  Integral threshold = 0.00e+00

  ==> Primary Basis <==

  Basis Set: 6-31G(D)
    Number of shells: 44
    Number of basis function: 80
    Number of Cartesian functions: 80
    Spherical Harmonics?: false
    Max angular momentum: 2

  ==> Pre-Iterations <==

   -------------------------------------------------------
    Irrep   Nso     Nmo     Nalpha   Nbeta   Ndocc  Nsocc
   -------------------------------------------------------
     A         80      80       0       0       0       0
   -------------------------------------------------------
    Total      80      80      17      17      17       0
   -------------------------------------------------------

  ==> Integral Setup <==

  ==> DFJK: Density-Fitted J/K Matrices <==

    J tasked:                  Yes
    K tasked:                  Yes
    wK tasked:                  No
    OpenMP threads:              1
    Integrals threads:           1
    Memory (MB):               715
    Algorithm:                Core
    Integral Cache:           NONE
    Schwarz Cutoff:          1E-12
    Fitting Condition:       1E-12

   => Auxiliary Basis Set <=

  Basis Set: 
    Number of shells: 186
    Number of basis function: 574
    Number of Cartesian functions: 574
    Spherical Harmonics?: false
    Max angular momentum: 3

  Minimum eigenvalue in the overlap matrix is 4.7273361281E-03.
  Using Symmetric Orthogonalization.
  SCF Guess: Superposition of Atomic Densities via on-the-fly atomic UHF.

  ==> Iterations <==

                           Total Energy        Delta E     RMS |[F,P]|

   @DF-RHF iter   0:  -158.85483336208733   -1.58855e+02   4.63249e-02 
   @DF-RHF iter   1:  -157.17005730474830    1.68478e+00   4.76822e-03 
   @DF-RHF iter   2:  -157.27112985935509   -1.01073e-01   1.60651e-03 DIIS
   @DF-RHF iter   3:  -157.28240600119301   -1.12761e-02   6.15418e-04 DIIS
   @DF-RHF iter   4:  -157.28434288651147   -1.93689e-03   8.74850e-05 DIIS
   @DF-RHF iter   5:  -157.28440114448023   -5.82580e-05   1.95704e-05 DIIS
   @DF-RHF iter   6:  -157.28440378885136   -2.64437e-06   5.34134e-06 DIIS
   @DF-RHF iter   7:  -157.28440394190392   -1.53053e-07   1.26643e-06 DIIS
   @DF-RHF iter   8:  -157.28440395344739   -1.15435e-08   3.04540e-07 DIIS
   @DF-RHF iter   9:  -157.28440395419915   -7.51754e-10   7.95872e-08 DIIS
   @DF-RHF iter  10:  -157.28440395424605   -4.68958e-11   2.31206e-08 DIIS
   @DF-RHF iter  11:  -157.28440395424894   -2.89901e-12   5.11591e-09 DIIS
   @DF-RHF iter  12:  -157.28440395424911   -1.70530e-13   1.10688e-09 DIIS
   @DF-RHF iter  13:  -157.28440395424911    0.00000e+00   2.27478e-10 DIIS
   @DF-RHF iter  14:  -157.28440395424900    1.13687e-13   7.39578e-11 DIIS

  ==> Post-Iterations <==

    Orbital Energies (a.u.)
    -----------------------

    Doubly Occupied:                                                      

       1A    -11.207775     2A    -11.207189     3A    -11.198963  
       4A    -11.198786     5A     -1.075986     6A     -0.970238  
       7A     -0.883979     8A     -0.776295     9A     -0.639686  
      10A     -0.629078    11A     -0.574130    12A     -0.539204  
      13A     -0.527499    14A     -0.507518    15A     -0.466944  
      16A     -0.453652    17A     -0.453318  

    Virtual:                                                              

      18A      0.233997    19A      0.282551    20A      0.291518  
      21A      0.304470    22A      0.316238    23A      0.320396  
      24A      0.349295    25A      0.353939    26A      0.368547  
      27A      0.379228    28A      0.390871    29A      0.419732  
      30A      0.451240    31A      0.714849    32A      0.732764  
      33A      0.755328    34A      0.756200    35A      0.775666  
      36A      0.840704    37A      0.846176    38A      0.929271  
      39A      0.951049    40A      0.996216    41A      1.118915  
      42A      1.138690    43A      1.177246    44A      1.182302  
      45A      1.183061    46A      1.208953    47A      1.213230  
      48A      1.216990    49A      1.237423    50A      1.269610  
      51A      1.270436    52A      1.308027    53A      1.327245  
      54A      1.584232    55A      1.715739    56A      1.736751  
      57A      1.739615    58A      1.911713    59A      1.957118  
      60A      2.062730    61A      2.164500    62A      2.284908  
      63A      2.313532    64A      2.321084    65A      2.353176  
      66A      2.452621    67A      2.502531    68A      2.634232  
      69A      2.671026    70A      2.683119    71A      2.715380  
      72A      2.750330    73A      2.802172    74A      2.938682  
      75A      2.946310    76A      3.095480    77A      4.589430  
      78A      4.691447    79A      4.797911    80A      4.960347  

    Final Occupation by Irrep:
              A 
    DOCC [    17 ]

  Energy converged.

  @DF-RHF Final Energy:  -157.28440395424900

   => Energetics <=

    Nuclear Repulsion Energy =            135.6341229367214964
    One-Electron Energy =                -479.2165695701737604
    Two-Electron Energy =                 186.2980426792032347
    DFT Exchange-Correlation Energy =       0.0000000000000000
    Empirical Dispersion Energy =           0.0000000000000000
    PCM Polarization Energy =               0.0000000000000000
    EFP Energy =                            0.0000000000000000
    Total Energy =                       -157.2844039542490293


  Saving occupied orbitals to File 180.

*** tstop() called on lski1497 at Thu Feb 16 16:34:30 2017
Module time:
	user time   =       5.18 seconds =       0.09 minutes
	system time =       0.18 seconds =       0.00 minutes
	total time  =          7 seconds =       0.12 minutes
Total time:
	user time   =       5.18 seconds =       0.09 minutes
	system time =       0.18 seconds =       0.00 minutes
	total time  =          7 seconds =       0.12 minutes


Properties will be evaluated at   0.000000,   0.000000,   0.000000 Bohr

Properties computed using the SCF density matrix

  Nuclear Dipole Moment: (a.u.)
     X:    -0.9786      Y:    -0.3948      Z:     0.0573

  Electronic Dipole Moment: (a.u.)
     X:     1.0068      Y:     0.4055      Z:    -0.0591

  Dipole Moment: (a.u.)
     X:     0.0283      Y:     0.0108      Z:    -0.0018     Total:     0.0303

  Dipole Moment: (Debye)
     X:     0.0719      Y:     0.0274      Z:    -0.0045     Total:     0.0770


  //>>>>>>>>>>>>>>>>>>>>>>>>>>>>>>>>>>>//
  //               DFMP2               //
  //<<<<<<<<<<<<<<<<<<<<<<<<<<<<<<<<<<<//


*** tstart() called on lski1497
*** at Thu Feb 16 16:34:30 2017


*** tstop() called on lski1497 at Thu Feb 16 16:34:30 2017
Module time:
	user time   =       0.58 seconds =       0.01 minutes
	system time =       0.00 seconds =       0.00 minutes
	total time  =          0 seconds =       0.00 minutes
Total time:
	user time   =       5.77 seconds =       0.10 minutes
	system time =       0.18 seconds =       0.00 minutes
	total time  =          7 seconds =       0.12 minutes
	 --------------------------------------------------------
	                          DF-MP2                         
	      2nd-Order Density-Fitted Moller-Plesset Theory     
	              RMP2 Wavefunction,   1 Threads             
	                                                         
	        Rob Parrish, Justin Turney, Andy Simmonett,      
	           Ed Hohenstein, and C. David Sherrill          
	 --------------------------------------------------------

   => Auxiliary Basis Set <=

  Basis Set: 
    Number of shells: 132
    Number of basis function: 364
    Number of Cartesian functions: 414
    Spherical Harmonics?: true
    Max angular momentum: 3

	 --------------------------------------------------------
	                 NBF =    80, NAUX =   364
	 --------------------------------------------------------
	   CLASS    FOCC     OCC    AOCC    AVIR     VIR    FVIR
	   PAIRS       0      17      17      63      63       0
	 --------------------------------------------------------

DGAS Warning! /src/lib/libfock/apps.cc:80 is not currently checking restricted

         ------------------------------------------------------------
                                     CPHF                           
                                  Rob Parrish                       
         ------------------------------------------------------------

  ==> Geometry <==

    Molecular point group: c1
    Full point group: C1

    Geometry (in Angstrom), charge = 0, multiplicity = 1:

       Center              X                  Y                   Z               Mass       
    ------------   -----------------  -----------------  -----------------  -----------------
           H         -1.659583309871     0.321591293445     0.275715886722     1.007825032070
           H         -1.518583309871     1.949591293445    -0.344284113278     1.007825032070
           H         -1.220583309871     0.585591293445    -1.394284113278     1.007825032070
           C         -1.121583309871     0.956591293445    -0.396284113278    12.000000000000
           H          0.905416690129     1.612591293445    -0.674284113278     1.007825032070
           H          0.467416690129     1.349591293445     0.996715886722     1.007825032070
           C          0.367416690129     0.977591293445    -0.001284113278    12.000000000000
           H          1.165416690129    -0.690408706555    -1.094284113278     1.007825032070
           H          1.832416690129    -0.508408706555     0.509715886722     1.007825032070
           C          0.939416690129    -0.450408706555    -0.076284113278    12.000000000000
           H          0.299416690129    -2.440408706555     0.416715886722     1.007825032070
           H         -0.990583309871    -1.391408706555    -0.117284113278     1.007825032070
           H         -0.324583309871    -1.209408706555     1.486715886722     1.007825032070
           C         -0.097583309871    -1.448408706555     0.468715886722    12.000000000000

  Nuclear repulsion =  135.634122936721496
  Reference energy  = -157.284403954249001

  ==> Basis Set <==

  Basis Set: 6-31G(D)
    Number of shells: 44
    Number of basis function: 80
    Number of Cartesian functions: 80
    Spherical Harmonics?: false
    Max angular momentum: 2

  ==> CGRSolver (by Rob Parrish) <==

   Number of roots    =         1
   Preconditioning    =    JACOBI
   Convergence cutoff =     1E-06
   Maximum iterations =       100

  ==> CPHFRHamiltonian (by Rob Parrish) <== 

  ==> DFJK: Density-Fitted J/K Matrices <==

    J tasked:                  Yes
    K tasked:                  Yes
    wK tasked:                  No
    OpenMP threads:              1
    Integrals threads:           1
    Memory (MB):               715
    Algorithm:                Core
    Integral Cache:           NONE
    Schwarz Cutoff:          1E-12
    Fitting Condition:       1E-12

   => Auxiliary Basis Set <=

  Basis Set: 
    Number of shells: 186
    Number of basis function: 574
    Number of Cartesian functions: 574
    Spherical Harmonics?: false
    Max angular momentum: 3

  ==> CPHF Iterations <==

  => Iterations <=

             Iter  Converged  Remaining    Residual
  CGR           1          0          1   7.577E-02
  CGR           2          0          1   8.681E-03
  CGR           3          0          1   2.264E-03
  CGR           4          0          1   4.346E-04
  CGR           5          0          1   7.754E-05
  CGR           6          0          1   1.411E-05
  CGR           7          0          1   1.891E-06
  CGR           8          1          0   4.754E-07

    CGRSolver converged.

  ==> DFCorrGrad: Density-Fitted Correlated Gradients <==

    OpenMP threads:              1
    Integrals threads:           1
    Memory (MB):               715
    Schwarz Cutoff:          0E+00
    Fitting Condition:       1E-12

   => Auxiliary Basis Set <=

  Basis Set: 
    Number of shells: 186
    Number of basis function: 510
    Number of Cartesian functions: 574
    Spherical Harmonics?: true
    Max angular momentum: 3

	-----------------------------------------------------------
	 ==================> DF-MP2 Energies <==================== 
	-----------------------------------------------------------
	 Reference Energy          =    -157.2844039542490009 [Eh]
	 Singles Energy            =      -0.0000000000000000 [Eh]
	 Same-Spin Energy          =      -0.1253857600789990 [Eh]
	 Opposite-Spin Energy      =      -0.4213397683773518 [Eh]
	 Correlation Energy        =      -0.5467255284563508 [Eh]
	 Total Energy              =    -157.8311294827053644 [Eh]
	-----------------------------------------------------------
	 ================> DF-SCS-MP2 Energies <================== 
	-----------------------------------------------------------
	 SCS Same-Spin Scale       =       0.3333333333333333 [-]
	 SCS Opposite-Spin Scale   =       1.2000000000000000 [-]
	 SCS Same-Spin Energy      =      -0.0417952533596663 [Eh]
	 SCS Opposite-Spin Energy  =      -0.5056077220528221 [Eh]
	 SCS Correlation Energy    =      -0.5474029754124885 [Eh]
	 SCS Total Energy          =    -157.8318069296614965 [Eh]
	-----------------------------------------------------------


  -Total Gradient:
     Atom            X                  Y                   Z
    ------   -----------------  -----------------  -----------------
       1        0.011881992943     0.001388528137    -0.006745441635
       2        0.008983906369    -0.014210241234     0.001095978474
       3        0.004783468868     0.005785057600     0.016158451954
       4       -0.025381206667    -0.011821004165    -0.009271159033
       5       -0.009683344546    -0.013246284565     0.007157898444
       6       -0.002295707756    -0.008154124995    -0.015887263122
       7        0.017503660778     0.026290721457     0.011791793489
       8       -0.005619308168     0.004864428141     0.016192705943
       9       -0.017202077742     0.002492439859    -0.005891156055
      10        0.029537796282    -0.007698926594    -0.013824381631
      11       -0.003846779937     0.017083909296    -0.001389799157
      12        0.010162355551     0.007430496736     0.005553234120
      13        0.005549845565    -0.001479366775    -0.016311215566
      14       -0.024374601540    -0.008725632897     0.011370353775


			-----------------------------------------
			 OPTKING 2.0: for geometry optimizations 
			  - R.A. King,  Bethel University        
			-----------------------------------------

	Previous internal coordinate definitions found.
	---Fragment 1 Geometry and Gradient---
	 H          -3.1361579504        0.6077194713        0.5210275164
	 H          -2.8697065656        3.6841936157       -0.6506026860
	 H          -2.3065681780        1.1066071704       -2.6348151255
	 C          -2.1194852909        1.8076955657       -0.7488684449
	 H           1.7109895805        3.0473559089       -1.2742123099
	 H           0.8832895343        2.5503579359        1.8835200582
	 C           0.6943169210        1.8473798145       -0.0024266224
	 H           2.2023183750       -1.3046833751       -2.0678972857
	 H           3.4627657057       -0.9607532190        0.9632234315
	 C           1.7752402690       -0.8511491033       -0.1441560824
	 H           0.5658155440       -4.6117041077        0.7874789011
	 H          -1.8719311675       -2.6293813943       -0.2216348538
	 H          -0.6133735630       -2.2854512381        2.8094858633
	 C          -0.1844057308       -2.7370957839        0.8857446600
	             0.0118819929        0.0013885281       -0.0067454416
	             0.0089839064       -0.0142102412        0.0010959785
	             0.0047834689        0.0057850576        0.0161584520
	            -0.0253812067       -0.0118210042       -0.0092711590
	            -0.0096833445       -0.0132462846        0.0071578984
	            -0.0022957078       -0.0081541250       -0.0158872631
	             0.0175036608        0.0262907215        0.0117917935
	            -0.0056193082        0.0048644281        0.0161927059
	            -0.0172020777        0.0024924399       -0.0058911561
	             0.0295377963       -0.0076989266       -0.0138243816
	            -0.0038467799        0.0170839093       -0.0013897992
	             0.0101623556        0.0074304967        0.0055532341
	             0.0055498456       -0.0014793668       -0.0163112156
	            -0.0243746015       -0.0087256329        0.0113703538

	Previous optimization step data not found.  Starting new optimization.

	---Fragment 1 Intrafragment Coordinates---
	 - Coordinate -           - BOHR/RAD -       - ANG/DEG -
	 R(1,4)           =         2.021436	       1.069698
	 R(2,4)           =         2.023298	       1.070683
	 R(3,4)           =         2.020723	       1.069320
	 R(4,7)           =         2.911397	       1.540645
	 R(5,7)           =         2.022623	       1.070326
	 R(6,7)           =         2.021555	       1.069761
	 R(7,10)          =         2.910419	       1.540128
	 R(8,10)          =         2.022095	       1.070047
	 R(9,10)          =         2.021397	       1.069677
	 R(10,14)         =         2.908213	       1.538960
	 R(11,14)         =         2.021545	       1.069756
	 R(12,14)         =         2.021295	       1.069623
	 R(13,14)         =         2.022072	       1.070035
	 B(1,4,2)         =         1.910870	     109.484805
	 B(1,4,3)         =         1.911121	     109.499161
	 B(1,4,7)         =         1.910399	     109.457783
	 B(2,4,3)         =         1.910042	     109.437340
	 B(2,4,7)         =         1.910564	     109.467262
	 B(3,4,7)         =         1.910803	     109.480971
	 B(4,7,5)         =         1.909937	     109.431343
	 B(4,7,6)         =         1.911630	     109.528316
	 B(4,7,10)        =         1.911154	     109.501062
	 B(5,7,6)         =         1.910605	     109.469614
	 B(5,7,10)        =         1.910047	     109.437654
	 B(6,7,10)        =         1.910425	     109.459295
	 B(7,10,8)        =         1.909993	     109.434564
	 B(7,10,9)        =         1.910970	     109.490537
	 B(7,10,14)       =         1.911099	     109.497890
	 B(8,10,9)        =         1.909962	     109.432742
	 B(8,10,14)       =         1.911105	     109.498247
	 B(9,10,14)       =         1.910670	     109.473322
	 B(10,14,11)      =         1.911417	     109.516137
	 B(10,14,12)      =         1.911331	     109.511189
	 B(10,14,13)      =         1.912420	     109.573607
	 B(11,14,12)      =         1.909874	     109.427738
	 B(11,14,13)      =         1.909322	     109.396089
	 B(12,14,13)      =         1.909431	     109.402352
	 D(1,4,7,5)       =         3.140997	     179.965873
	 D(1,4,7,6)       =        -1.047644	     -60.025575
	 D(1,4,7,10)      =         1.047427	      60.013132
	 D(2,4,7,5)       =        -1.047689	     -60.028143
	 D(2,4,7,6)       =         1.046856	      59.980409
	 D(2,4,7,10)      =        -3.141259	    -179.980883
	 D(3,4,7,5)       =         1.046044	      59.933911
	 D(3,4,7,6)       =         3.140588	     179.942463
	 D(3,4,7,10)      =        -1.047526	     -60.018830
	 D(4,7,10,8)      =         1.396766	      80.028792
	 D(4,7,10,9)      =        -2.793032	    -160.028942
	 D(4,7,10,14)     =        -0.698100	     -39.998181
	 D(5,7,10,8)      =        -0.696737	     -39.920084
	 D(5,7,10,9)      =         1.396651	      80.022182
	 D(5,7,10,14)     =        -2.791603	    -159.947056
	 D(6,7,10,8)      =        -2.790612	    -159.890282
	 D(6,7,10,9)      =        -0.697224	     -39.948016
	 D(6,7,10,14)     =         1.397708	      80.082745
	 D(7,10,14,11)    =         3.141550	     179.997543
	 D(7,10,14,12)    =         1.047176	      59.998778
	 D(7,10,14,13)    =        -1.047270	     -60.004158
	 D(8,10,14,11)    =         1.047364	      60.009546
	 D(8,10,14,12)    =        -1.047009	     -59.989220
	 D(8,10,14,13)    =        -3.141456	    -179.992156
	 D(9,10,14,11)    =        -1.046520	     -59.961162
	 D(9,10,14,12)    =        -3.140893	    -179.959928
	 D(9,10,14,13)    =         1.047846	      60.037136

	Current energy   :      -157.8311294827

	Generating empirical Hessian (Schlegel '84) for each fragment.
	Adding user-defined constraint: Fragment 1; Coordinate 49:
		Value =    -0.698100; Fixed value    =    -0.698130
		Force =    -0.000015; Force constant =     0.500000
	Removing off-diagonal coupling between coordinate 49 and others.
	Taking RFO optimization step.
	Going to follow RFO solution 1.
	Using RFO vector 1.

	Determining step-restricting scale parameter for RS-RFO.
	Maximum step size allowed    0.10000

	 Iter      |step|        alpha        rfo_root  
	------------------------------------------------
	    0     0.41551       1.00000           1
	    1     0.28907       3.79863           1
	    2     0.19859      12.39997           1
	    3     0.14306      30.10667           1
	    4     0.11367      53.30298           1
	    5     0.10216      68.79924           1
	    6     0.10007      72.24584           1
	    7     0.10000      72.36513           1
	------------------------------------------------
	Norm of target step-size    0.10000
	Projected energy change by RFO approximation:        -0.0088013282

	Back-transformation to cartesian coordinates...
	Could not converge backtransformation.
	Using first guess instead.

	--- Internal Coordinate Step in ANG or DEG, aJ/ANG or AJ/DEG ---
	 ---------------------------------------------------------------------------
	   Coordinate                Previous        Force       Change         New 
	   ----------                --------       ------       ------       ------
	    1 R(1,4)          =      1.069698     0.090937     0.006919     1.076616
	    2 R(2,4)          =      1.070683     0.135586     0.009596     1.080279
	    3 R(3,4)          =      1.069320     0.144432     0.009340     1.078660
	    4 R(4,7)          =      1.540645     0.002633     0.001570     1.542215
	    5 R(5,7)          =      1.070326     0.141927     0.009303     1.079630
	    6 R(6,7)          =      1.069761     0.147239     0.009364     1.079125
	    7 R(7,10)         =      1.540128     0.122694     0.008696     1.548823
	    8 R(8,10)         =      1.070047     0.145685     0.009269     1.079315
	    9 R(9,10)         =      1.069677     0.146018     0.009559     1.079236
	   10 R(10,14)        =      1.538960     0.009275     0.002036     1.540996
	   11 R(11,14)        =      1.069756     0.141724     0.009982     1.079738
	   12 R(12,14)        =      1.069623     0.091702     0.006967     1.076590
	   13 R(13,14)        =      1.070035     0.140272     0.009079     1.079114
	   14 B(1,4,2)        =    109.484805    -0.000468    -0.433172   109.051633
	   15 B(1,4,3)        =    109.499161    -0.000271    -0.302353   109.196808
	   16 B(1,4,7)        =    109.457783     0.000625     0.617036   110.074819
	   17 B(2,4,3)        =    109.437340    -0.000271    -0.239578   109.197762
	   18 B(2,4,7)        =    109.467262     0.000167     0.169565   109.636827
	   19 B(3,4,7)        =    109.480971     0.000218     0.182634   109.663605
	   20 B(4,7,5)        =    109.431343    -0.000928    -0.772418   108.658925
	   21 B(4,7,6)        =    109.528316    -0.000809    -0.737425   108.790892
	   22 B(4,7,10)       =    109.501062     0.003051     2.701459   112.202521
	   23 B(5,7,6)        =    109.469614     0.000338     0.193976   109.663589
	   24 B(5,7,10)       =    109.437654    -0.000906    -0.783755   108.653899
	   25 B(6,7,10)       =    109.459295    -0.000746    -0.611832   108.847463
	   26 B(7,10,8)       =    109.434564    -0.000746    -0.612294   108.822270
	   27 B(7,10,9)       =    109.490537    -0.000916    -0.792902   108.697635
	   28 B(7,10,14)      =    109.497890     0.003059     2.707736   112.205625
	   29 B(8,10,9)       =    109.432742     0.000341     0.196813   109.629555
	   30 B(8,10,14)      =    109.498247    -0.000808    -0.735184   108.763063
	   31 B(9,10,14)      =    109.473322    -0.000932    -0.775309   108.698013
	   32 B(10,14,11)     =    109.516137     0.000164     0.166884   109.683021
	   33 B(10,14,12)     =    109.511189     0.000615     0.608434   110.119624
	   34 B(10,14,13)     =    109.573607     0.000204     0.169462   109.743069
	   35 B(11,14,12)     =    109.427738    -0.000461    -0.427092   109.000646
	   36 B(11,14,13)     =    109.396089    -0.000264    -0.234353   109.161736
	   37 B(12,14,13)     =    109.402352    -0.000259    -0.291071   109.111281
	   38 D(1,4,7,5)      =    179.965873     0.000107     0.462920   180.428793
	   39 D(1,4,7,6)      =    -60.025575    -0.000042    -0.201314   -60.226889
	   40 D(1,4,7,10)     =     60.013132     0.000064     0.253192    60.266324
	   41 D(2,4,7,5)      =    -60.028143     0.000087     0.416596   -59.611547
	   42 D(2,4,7,6)      =     59.980409    -0.000063    -0.247639    59.732771
	   43 D(2,4,7,10)     =   -179.980883     0.000044     0.206867  -179.774016
	   44 D(3,4,7,5)      =     59.933911     0.000065     0.339223    60.273134
	   45 D(3,4,7,6)      =    179.942463    -0.000085    -0.325011   179.617452
	   46 D(3,4,7,10)     =    -60.018830     0.000022     0.129495   -59.889335
	   47 D(4,7,10,8)     =     80.028792     0.000038     0.213881    80.242673
	   48 D(4,7,10,9)     =   -160.028942    -0.000099    -0.384415  -160.413356
	   49 D(4,7,10,14)    =    -39.998181    -0.000060    -0.169723   -40.167904
	   50 D(5,7,10,8)     =    -39.920084    -0.000002    -0.002632   -39.922716
	   51 D(5,7,10,9)     =     80.022182    -0.000139    -0.600928    79.421255
	   52 D(5,7,10,14)    =   -159.947056    -0.000100    -0.386236  -160.333292
	   53 D(6,7,10,8)     =   -159.890282     0.000135     0.593408  -159.296874
	   54 D(6,7,10,9)     =    -39.948016    -0.000003    -0.004887   -39.952903
	   55 D(6,7,10,14)    =     80.082745     0.000037     0.209804    80.292549
	   56 D(7,10,14,11)   =    179.997543     0.000045     0.210725   180.208268
	   57 D(7,10,14,12)   =     59.998778     0.000065     0.255795    60.254573
	   58 D(7,10,14,13)   =    -60.004158     0.000022     0.130521   -59.873637
	   59 D(8,10,14,11)   =     60.009546    -0.000062    -0.246156    59.763390
	   60 D(8,10,14,12)   =    -59.989220    -0.000042    -0.201086   -60.190306
	   61 D(8,10,14,13)   =   -179.992156    -0.000085    -0.326360  -180.318515
	   62 D(9,10,14,11)   =    -59.961162     0.000086     0.414664   -59.546498
	   63 D(9,10,14,12)   =   -179.959928     0.000106     0.459734  -179.500194
	   64 D(9,10,14,13)   =     60.037136     0.000064     0.334461    60.371597
	 ---------------------------------------------------------------------------
	 Forces used to impose fixed constraints are not included.
	  Forces zeroed: 49 

  ==> Convergence Check <==

  Measures of convergence in internal coordinates in au.
  Criteria marked as inactive (o), active & met (*), and active & unmet ( ).
  --------------------------------------------------------------------------------------------- ~
   Step     Total Energy     Delta E     MAX Force     RMS Force      MAX Disp      RMS Disp    ~
  --------------------------------------------------------------------------------------------- ~
    Convergence Criteria    1.00e-06 *    3.00e-04 *             o    1.20e-03 *             o  ~
  --------------------------------------------------------------------------------------------- ~
      1    -157.83112948   -1.58e+02      4.02e-02      1.11e-02 o    4.73e-02      1.27e-02 o  ~
  ---------------------------------------------------------------------------------------------

	Writing optimization data to binary file.
	Structure for next step:
	Cartesian Geometry (in Angstrom)
	    H    -1.7196496531   0.4130635497   0.2663202693
	    H    -1.4977400602   2.0385011154  -0.3614512632
	    H    -1.2597964570   0.6475859800  -1.4129205391
	    C    -1.1399805058   1.0202364071  -0.4077921685
	    H     0.9078125693   1.5968979429  -0.6966244486
	    H     0.4544132780   1.3574621489   0.9919502756
	    C     0.3499277996   0.9758574619  -0.0120272401
	    H     1.1619347211  -0.7046599296  -1.0885748341
	    H     1.8256996258  -0.4941957075   0.5323561667
	    C     0.9267271620  -0.4606207874  -0.0638582537
	    H     0.3775937970  -2.4898554082   0.4280774069
	    H    -0.9695099008  -1.4987006786  -0.1055262446
	    H    -0.3077987632  -1.2805907774   1.5065631244
	    C    -0.0657999509  -1.5067032089   0.4795301631
			--------------------------
			 OPTKING Finished Execution 
			--------------------------

    Structure for next step:
    Molecular point group: c1
    Full point group: C1

    Geometry (in Angstrom), charge = 0, multiplicity = 1:

    H           -1.716471468280     0.414311808809     0.266133095043
    H           -1.494561875383     2.039749374486    -0.361638437483
    H           -1.256618272220     0.648834239038    -1.413107713383
    C           -1.136802321027     1.021484666169    -0.407979342820
    H            0.910990754076     1.598146202019    -0.696811622919
    H            0.457591462758     1.358710407935     0.991763101364
    C            0.353105984417     0.977105720986    -0.012214414389
    H            1.165112905917    -0.703411670503    -1.088762008377
    H            1.828877810549    -0.492947448397     0.532168992444
    C            0.929905346798    -0.459372528294    -0.064045427943
    H            0.380771981800    -2.488607149138     0.427890232644
    H           -0.966331715956    -1.497452419540    -0.105713418922
    H           -0.304620578357    -1.279342518367     1.506375950075
    C           -0.062621766133    -1.505454949833     0.479342988857

gradient() will perform analytic gradient computation.
    SCF Algorithm Type (re)set to DF.

*** tstart() called on lski1497
*** at Thu Feb 16 16:34:52 2017


         ---------------------------------------------------------
                                   SCF
            by Justin Turney, Rob Parrish, and Andy Simmonett
                              RHF Reference
                        1 Threads,   1000 MiB Core
         ---------------------------------------------------------

  ==> Geometry <==

    Molecular point group: c1
    Full point group: C1

    Geometry (in Angstrom), charge = 0, multiplicity = 1:

       Center              X                  Y                   Z               Mass       
    ------------   -----------------  -----------------  -----------------  -----------------
           H         -1.716471468280     0.414311808809     0.266133095043     1.007825032070
           H         -1.494561875383     2.039749374486    -0.361638437483     1.007825032070
           H         -1.256618272220     0.648834239038    -1.413107713383     1.007825032070
           C         -1.136802321027     1.021484666169    -0.407979342820    12.000000000000
           H          0.910990754076     1.598146202019    -0.696811622919     1.007825032070
           H          0.457591462758     1.358710407935     0.991763101364     1.007825032070
           C          0.353105984417     0.977105720986    -0.012214414389    12.000000000000
           H          1.165112905917    -0.703411670503    -1.088762008377     1.007825032070
           H          1.828877810549    -0.492947448397     0.532168992444     1.007825032070
           C          0.929905346798    -0.459372528294    -0.064045427943    12.000000000000
           H          0.380771981800    -2.488607149138     0.427890232644     1.007825032070
           H         -0.966331715956    -1.497452419540    -0.105713418922     1.007825032070
           H         -0.304620578357    -1.279342518367     1.506375950075     1.007825032070
           C         -0.062621766133    -1.505454949833     0.479342988857    12.000000000000

  Running in c1 symmetry.

  Rotational constants: A =      0.40227  B =      0.18018  C =      0.14103 [cm^-1]
  Rotational constants: A =  12059.65923  B =   5401.77134  C =   4227.97412 [MHz]
  Nuclear repulsion =  133.936188796057507

  Charge       = 0
  Multiplicity = 1
  Electrons    = 34
  Nalpha       = 17
  Nbeta        = 17

  ==> Algorithm <==

  SCF Algorithm Type is DF.
  DIIS enabled.
  MOM disabled.
  Fractional occupation disabled.
  Guess Type is READ.
  Energy threshold   = 1.00e-10
  Density threshold  = 1.00e-10
  Integral threshold = 0.00e+00

  ==> Primary Basis <==

  Basis Set: 6-31G(D)
    Number of shells: 44
    Number of basis function: 80
    Number of Cartesian functions: 80
    Spherical Harmonics?: false
    Max angular momentum: 2

  ==> Pre-Iterations <==

   -------------------------------------------------------
    Irrep   Nso     Nmo     Nalpha   Nbeta   Ndocc  Nsocc
   -------------------------------------------------------
     A         80      80       0       0       0       0
   -------------------------------------------------------
    Total      80      80      17      17      17       0
   -------------------------------------------------------

  ==> Integral Setup <==

  ==> DFJK: Density-Fitted J/K Matrices <==

    J tasked:                  Yes
    K tasked:                  Yes
    wK tasked:                  No
    OpenMP threads:              1
    Integrals threads:           1
    Memory (MB):               715
    Algorithm:                Core
    Integral Cache:           NONE
    Schwarz Cutoff:          1E-12
    Fitting Condition:       1E-12

   => Auxiliary Basis Set <=

  Basis Set: 
    Number of shells: 186
    Number of basis function: 574
    Number of Cartesian functions: 574
    Spherical Harmonics?: false
    Max angular momentum: 3

  Minimum eigenvalue in the overlap matrix is 4.8767671536E-03.
  Using Symmetric Orthogonalization.
  SCF Guess was Projection but file not found.
  Switching over to SAD guess.

  SCF Guess: Superposition of Atomic Densities via on-the-fly atomic UHF.

  ==> Iterations <==

                           Total Energy        Delta E     RMS |[F,P]|

   @DF-RHF iter   0:  -158.73037882873390   -1.58730e+02   4.53780e-02 
   @DF-RHF iter   1:  -157.17601196300498    1.55437e+00   4.76984e-03 
   @DF-RHF iter   2:  -157.27730815451619   -1.01296e-01   1.64181e-03 DIIS
   @DF-RHF iter   3:  -157.28886960848334   -1.15615e-02   6.18096e-04 DIIS
   @DF-RHF iter   4:  -157.29086380448123   -1.99420e-03   8.58287e-05 DIIS
   @DF-RHF iter   5:  -157.29091998907305   -5.61846e-05   1.87347e-05 DIIS
   @DF-RHF iter   6:  -157.29092243340168   -2.44433e-06   5.07831e-06 DIIS
   @DF-RHF iter   7:  -157.29092256640266   -1.33001e-07   1.17317e-06 DIIS
   @DF-RHF iter   8:  -157.29092257613357   -9.73091e-09   2.73187e-07 DIIS
   @DF-RHF iter   9:  -157.29092257673076   -5.97197e-10   7.33226e-08 DIIS
   @DF-RHF iter  10:  -157.29092257677044   -3.96767e-11   2.14209e-08 DIIS
   @DF-RHF iter  11:  -157.29092257677317   -2.72848e-12   4.63687e-09 DIIS
   @DF-RHF iter  12:  -157.29092257677340   -2.27374e-13   1.02771e-09 DIIS
   @DF-RHF iter  13:  -157.29092257677323    1.70530e-13   2.42505e-10 DIIS
   @DF-RHF iter  14:  -157.29092257677340   -1.70530e-13   7.55070e-11 DIIS

  ==> Post-Iterations <==

    Orbital Energies (a.u.)
    -----------------------

    Doubly Occupied:                                                      

       1A    -11.211873     2A    -11.211317     3A    -11.203747  
       4A    -11.203631     5A     -1.069145     6A     -0.971880  
       7A     -0.878939     8A     -0.773172     9A     -0.636511  
      10A     -0.620632    11A     -0.573790    12A     -0.533537  
      13A     -0.528665    14A     -0.509175    15A     -0.463897  
      16A     -0.454675    17A     -0.452995  

    Virtual:                                                              

      18A      0.229394    19A      0.281967    20A      0.290468  
      21A      0.301064    22A      0.314871    23A      0.318191  
      24A      0.345267    25A      0.347721    26A      0.363633  
      27A      0.378241    28A      0.385798    29A      0.414678  
      30A      0.457090    31A      0.713463    32A      0.731062  
      33A      0.738403    34A      0.759519    35A      0.775331  
      36A      0.847341    37A      0.848787    38A      0.921429  
      39A      0.950115    40A      0.997651    41A      1.110884  
      42A      1.119272    43A      1.167411    44A      1.171285  
      45A      1.176199    46A      1.193264    47A      1.202292  
      48A      1.207132    49A      1.236038    50A      1.258669  
      51A      1.258933    52A      1.294490    53A      1.312478  
      54A      1.581996    55A      1.712315    56A      1.714681  
      57A      1.729503    58A      1.910303    59A      1.956769  
      60A      2.049583    61A      2.163362    62A      2.278115  
      63A      2.302521    64A      2.317813    65A      2.347599  
      66A      2.437294    67A      2.484976    68A      2.624013  
      69A      2.662855    70A      2.665943    71A      2.695436  
      72A      2.737819    73A      2.781346    74A      2.930324  
      75A      2.959205    76A      3.081683    77A      4.564915  
      78A      4.690762    79A      4.793284    80A      4.951779  

    Final Occupation by Irrep:
              A 
    DOCC [    17 ]

  Energy converged.

  @DF-RHF Final Energy:  -157.29092257677340

   => Energetics <=

    Nuclear Repulsion Energy =            133.9361887960575075
    One-Electron Energy =                -475.8590582126498703
    Two-Electron Energy =                 184.6319468398190793
    DFT Exchange-Correlation Energy =       0.0000000000000000
    Empirical Dispersion Energy =           0.0000000000000000
    PCM Polarization Energy =               0.0000000000000000
    EFP Energy =                            0.0000000000000000
    Total Energy =                       -157.2909225767732551


  Saving occupied orbitals to File 180.

*** tstop() called on lski1497 at Thu Feb 16 16:34:58 2017
Module time:
	user time   =       5.00 seconds =       0.08 minutes
	system time =       0.14 seconds =       0.00 minutes
	total time  =          6 seconds =       0.10 minutes
Total time:
	user time   =      28.96 seconds =       0.48 minutes
	system time =       0.88 seconds =       0.01 minutes
	total time  =         35 seconds =       0.58 minutes


Properties will be evaluated at   0.000000,   0.000000,   0.000000 Bohr

Properties computed using the SCF density matrix

  Nuclear Dipole Moment: (a.u.)
     X:    -0.9330      Y:    -0.3769      Z:     0.0547

  Electronic Dipole Moment: (a.u.)
     X:     0.9601      Y:     0.3874      Z:    -0.0563

  Dipole Moment: (a.u.)
     X:     0.0271      Y:     0.0105      Z:    -0.0017     Total:     0.0291

  Dipole Moment: (Debye)
     X:     0.0688      Y:     0.0268      Z:    -0.0043     Total:     0.0739


  //>>>>>>>>>>>>>>>>>>>>>>>>>>>>>>>>>>>//
  //               DFMP2               //
  //<<<<<<<<<<<<<<<<<<<<<<<<<<<<<<<<<<<//


*** tstart() called on lski1497
*** at Thu Feb 16 16:34:58 2017


*** tstop() called on lski1497 at Thu Feb 16 16:34:59 2017
Module time:
	user time   =       0.56 seconds =       0.01 minutes
	system time =       0.00 seconds =       0.00 minutes
	total time  =          1 seconds =       0.02 minutes
Total time:
	user time   =      29.54 seconds =       0.49 minutes
	system time =       0.88 seconds =       0.01 minutes
	total time  =         36 seconds =       0.60 minutes
	 --------------------------------------------------------
	                          DF-MP2                         
	      2nd-Order Density-Fitted Moller-Plesset Theory     
	              RMP2 Wavefunction,   1 Threads             
	                                                         
	        Rob Parrish, Justin Turney, Andy Simmonett,      
	           Ed Hohenstein, and C. David Sherrill          
	 --------------------------------------------------------

   => Auxiliary Basis Set <=

  Basis Set: 
    Number of shells: 132
    Number of basis function: 364
    Number of Cartesian functions: 414
    Spherical Harmonics?: true
    Max angular momentum: 3

	 --------------------------------------------------------
	                 NBF =    80, NAUX =   364
	 --------------------------------------------------------
	   CLASS    FOCC     OCC    AOCC    AVIR     VIR    FVIR
	   PAIRS       0      17      17      63      63       0
	 --------------------------------------------------------

DGAS Warning! /src/lib/libfock/apps.cc:80 is not currently checking restricted

         ------------------------------------------------------------
                                     CPHF                           
                                  Rob Parrish                       
         ------------------------------------------------------------

  ==> Geometry <==

    Molecular point group: c1
    Full point group: C1

    Geometry (in Angstrom), charge = 0, multiplicity = 1:

       Center              X                  Y                   Z               Mass       
    ------------   -----------------  -----------------  -----------------  -----------------
           H         -1.716471468280     0.414311808809     0.266133095043     1.007825032070
           H         -1.494561875383     2.039749374486    -0.361638437483     1.007825032070
           H         -1.256618272220     0.648834239038    -1.413107713383     1.007825032070
           C         -1.136802321027     1.021484666169    -0.407979342820    12.000000000000
           H          0.910990754076     1.598146202019    -0.696811622919     1.007825032070
           H          0.457591462758     1.358710407935     0.991763101364     1.007825032070
           C          0.353105984417     0.977105720986    -0.012214414389    12.000000000000
           H          1.165112905917    -0.703411670503    -1.088762008377     1.007825032070
           H          1.828877810549    -0.492947448397     0.532168992444     1.007825032070
           C          0.929905346798    -0.459372528294    -0.064045427943    12.000000000000
           H          0.380771981800    -2.488607149138     0.427890232644     1.007825032070
           H         -0.966331715956    -1.497452419540    -0.105713418922     1.007825032070
           H         -0.304620578357    -1.279342518367     1.506375950075     1.007825032070
           C         -0.062621766133    -1.505454949833     0.479342988857    12.000000000000

  Nuclear repulsion =  133.936188796057536
  Reference energy  = -157.290922576773397

  ==> Basis Set <==

  Basis Set: 6-31G(D)
    Number of shells: 44
    Number of basis function: 80
    Number of Cartesian functions: 80
    Spherical Harmonics?: false
    Max angular momentum: 2

  ==> CGRSolver (by Rob Parrish) <==

   Number of roots    =         1
   Preconditioning    =    JACOBI
   Convergence cutoff =     1E-06
   Maximum iterations =       100

  ==> CPHFRHamiltonian (by Rob Parrish) <== 

  ==> DFJK: Density-Fitted J/K Matrices <==

    J tasked:                  Yes
    K tasked:                  Yes
    wK tasked:                  No
    OpenMP threads:              1
    Integrals threads:           1
    Memory (MB):               715
    Algorithm:                Core
    Integral Cache:           NONE
    Schwarz Cutoff:          1E-12
    Fitting Condition:       1E-12

   => Auxiliary Basis Set <=

  Basis Set: 
    Number of shells: 186
    Number of basis function: 574
    Number of Cartesian functions: 574
    Spherical Harmonics?: false
    Max angular momentum: 3

  ==> CPHF Iterations <==

  => Iterations <=

             Iter  Converged  Remaining    Residual
  CGR           1          0          1   7.488E-02
  CGR           2          0          1   8.606E-03
  CGR           3          0          1   2.266E-03
  CGR           4          0          1   4.331E-04
  CGR           5          0          1   7.570E-05
  CGR           6          0          1   1.384E-05
  CGR           7          0          1   1.781E-06
  CGR           8          1          0   4.357E-07

    CGRSolver converged.

  ==> DFCorrGrad: Density-Fitted Correlated Gradients <==

    OpenMP threads:              1
    Integrals threads:           1
    Memory (MB):               715
    Schwarz Cutoff:          0E+00
    Fitting Condition:       1E-12

   => Auxiliary Basis Set <=

  Basis Set: 
    Number of shells: 186
    Number of basis function: 510
    Number of Cartesian functions: 574
    Spherical Harmonics?: true
    Max angular momentum: 3

	-----------------------------------------------------------
	 ==================> DF-MP2 Energies <==================== 
	-----------------------------------------------------------
	 Reference Energy          =    -157.2909225767733972 [Eh]
	 Singles Energy            =      -0.0000000000000000 [Eh]
	 Same-Spin Energy          =      -0.1247797155308156 [Eh]
	 Opposite-Spin Energy      =      -0.4216870892976976 [Eh]
	 Correlation Energy        =      -0.5464668048285132 [Eh]
	 Total Energy              =    -157.8373893816019233 [Eh]
	-----------------------------------------------------------
	 ================> DF-SCS-MP2 Energies <================== 
	-----------------------------------------------------------
	 SCS Same-Spin Scale       =       0.3333333333333333 [-]
	 SCS Opposite-Spin Scale   =       1.2000000000000000 [-]
	 SCS Same-Spin Energy      =      -0.0415932385102719 [Eh]
	 SCS Opposite-Spin Energy  =      -0.5060245071572371 [Eh]
	 SCS Correlation Energy    =      -0.5476177456675090 [Eh]
	 SCS Total Energy          =    -157.8385403224409060 [Eh]
	-----------------------------------------------------------


  -Total Gradient:
     Atom            X                  Y                   Z
    ------   -----------------  -----------------  -----------------
       1        0.008203883479     0.002423982611    -0.004789515696
       2        0.005062710238    -0.007762013182     0.001017747495
       3        0.004094346344     0.003263160237     0.009757054250
       4       -0.021817608179    -0.004169514008    -0.005193764941
       5       -0.007228378042    -0.008971208426     0.002129522225
       6       -0.002559503245    -0.006522597366    -0.009128587978
       7        0.014210469853     0.021710490564     0.006583298628
       8       -0.005387813558     0.003255297005     0.009505693742
       9       -0.011790423341     0.001321455069    -0.001212927593
      10        0.024483476415    -0.006336394091    -0.008374591044
      11       -0.002085678223     0.009409667440    -0.001184297672
      12        0.008024590367     0.004065164236     0.003920724277
      13        0.004012286030     0.000071866330    -0.009976764237
      14       -0.017222358141    -0.011759356421     0.006946408545


			-----------------------------------------
			 OPTKING 2.0: for geometry optimizations 
			  - R.A. King,  Bethel University        
			-----------------------------------------

	Previous internal coordinate definitions found.
	---Fragment 1 Geometry and Gradient---
	 H          -3.2436609900        0.7829358523        0.5029186645
	 H          -2.8243126331        3.8545676975       -0.6833976060
	 H          -2.3746643881        1.2261190174       -2.6703865746
	 C          -2.1482450540        1.9303262680       -0.7709692258
	 H           1.7215230348        3.0200586421       -1.3167831335
	 H           0.8647225454        2.5675905649        1.8741606503
	 C           0.6672736064        1.8464622155       -0.0230818981
	 H           2.2017443061       -1.3292554159       -2.0574620197
	 H           3.4560781924       -0.9315356754        1.0056536521
	 C           1.7572664350       -0.8680882714       -0.1210283189
	 H           0.7195547647       -4.7027859642        0.8085953546
	 H          -1.8261022967       -2.8297749700       -0.1997694103
	 H          -0.5756494675       -2.4176069899        2.8466379988
	 C          -0.1183379879       -2.8448975606        0.9058269727
	             0.0082038835        0.0024239826       -0.0047895157
	             0.0050627102       -0.0077620132        0.0010177475
	             0.0040943463        0.0032631602        0.0097570543
	            -0.0218176082       -0.0041695140       -0.0051937649
	            -0.0072283780       -0.0089712084        0.0021295222
	            -0.0025595032       -0.0065225974       -0.0091285880
	             0.0142104699        0.0217104906        0.0065832986
	            -0.0053878136        0.0032552970        0.0095056937
	            -0.0117904233        0.0013214551       -0.0012129276
	             0.0244834764       -0.0063363941       -0.0083745910
	            -0.0020856782        0.0094096674       -0.0011842977
	             0.0080245904        0.0040651642        0.0039207243
	             0.0040122860        0.0000718663       -0.0099767642
	            -0.0172223581       -0.0117593564        0.0069464085

	---Fragment 1 Intrafragment Coordinates---
	 - Coordinate -           - BOHR/RAD -       - ANG/DEG -
	 R(1,4)           =         2.034510	       1.076616
	 R(2,4)           =         2.041431	       1.080279
	 R(3,4)           =         2.038372	       1.078660
	 R(4,7)           =         2.914363	       1.542215
	 R(5,7)           =         2.040204	       1.079630
	 R(6,7)           =         2.039250	       1.079125
	 R(7,10)          =         2.926852	       1.548823
	 R(8,10)          =         2.039611	       1.079315
	 R(9,10)          =         2.039461	       1.079236
	 R(10,14)         =         2.912061	       1.540996
	 R(11,14)         =         2.040409	       1.079738
	 R(12,14)         =         2.034461	       1.076590
	 R(13,14)         =         2.039230	       1.079114
	 B(1,4,2)         =         1.903310	     109.051633
	 B(1,4,3)         =         1.905844	     109.196808
	 B(1,4,7)         =         1.921168	     110.074819
	 B(2,4,3)         =         1.905860	     109.197762
	 B(2,4,7)         =         1.913524	     109.636827
	 B(3,4,7)         =         1.913991	     109.663605
	 B(4,7,5)         =         1.896456	     108.658925
	 B(4,7,6)         =         1.898759	     108.790892
	 B(4,7,10)        =         1.958303	     112.202521
	 B(5,7,6)         =         1.913991	     109.663589
	 B(5,7,10)        =         1.896368	     108.653899
	 B(6,7,10)        =         1.899747	     108.847463
	 B(7,10,8)        =         1.899307	     108.822270
	 B(7,10,9)        =         1.897132	     108.697635
	 B(7,10,14)       =         1.958358	     112.205625
	 B(8,10,9)        =         1.913397	     109.629555
	 B(8,10,14)       =         1.898274	     108.763063
	 B(9,10,14)       =         1.897138	     108.698013
	 B(10,14,11)      =         1.914330	     109.683021
	 B(10,14,12)      =         1.921950	     110.119624
	 B(10,14,13)      =         1.915378	     109.743069
	 B(11,14,12)      =         1.902420	     109.000646
	 B(11,14,13)      =         1.905232	     109.161736
	 B(12,14,13)      =         1.904351	     109.111281
	 D(1,4,7,5)       =        -3.134109	    -179.571207
	 D(1,4,7,6)       =        -1.051158	     -60.226889
	 D(1,4,7,10)      =         1.051846	      60.266324
	 D(2,4,7,5)       =        -1.040418	     -59.611547
	 D(2,4,7,6)       =         1.042534	      59.732771
	 D(2,4,7,10)      =        -3.137648	    -179.774016
	 D(3,4,7,5)       =         1.051965	      60.273134
	 D(3,4,7,6)       =         3.134916	     179.617452
	 D(3,4,7,10)      =        -1.045266	     -59.889335
	 D(4,7,10,8)      =         1.400499	      80.242673
	 D(4,7,10,9)      =        -2.799741	    -160.413356
	 D(4,7,10,14)     =        -0.701062	     -40.167904
	 D(5,7,10,8)      =        -0.696783	     -39.922716
	 D(5,7,10,9)      =         1.386162	      79.421255
	 D(5,7,10,14)     =        -2.798344	    -160.333292
	 D(6,7,10,8)      =        -2.780255	    -159.296874
	 D(6,7,10,9)      =        -0.697310	     -39.952903
	 D(6,7,10,14)     =         1.401369	      80.292549
	 D(7,10,14,11)    =        -3.137958	    -179.791732
	 D(7,10,14,12)    =         1.051641	      60.254573
	 D(7,10,14,13)    =        -1.044992	     -59.873637
	 D(8,10,14,11)    =         1.043068	      59.763390
	 D(8,10,14,12)    =        -1.050519	     -60.190306
	 D(8,10,14,13)    =         3.136034	     179.681485
	 D(9,10,14,11)    =        -1.039282	     -59.546498
	 D(9,10,14,12)    =        -3.132869	    -179.500194
	 D(9,10,14,13)    =         1.053683	      60.371597

	Current energy   :      -157.8373893816

	Energy change for the previous step:
		Projected    :        -0.0088013282
		Actual       :        -0.0062598989

	Performing BFGS update.
	Previous computed or guess Hessian on step 1.
	Steps to be used in Hessian update: 1
	Adding user-defined constraint: Fragment 1; Coordinate 49:
		Value =    -0.701062; Fixed value    =    -0.698130
		Force =     0.001539; Force constant =     0.525000
	Removing off-diagonal coupling between coordinate 49 and others.
	Taking RFO optimization step.
	Going to follow RFO solution 1.
	Using RFO vector 1.

	Determining step-restricting scale parameter for RS-RFO.
	Maximum step size allowed    0.10000

	 Iter      |step|        alpha        rfo_root  
	------------------------------------------------
	    0     0.20143       1.00000           1
	    1     0.15705       4.88078           1
	    2     0.12477      14.23112           1
	    3     0.10690      25.93101           1
	    4     0.10075      32.03856           1
	    5     0.10001      32.87374           1
	    6     0.10000      32.88567           1
	------------------------------------------------
	Norm of target step-size    0.10000
	Projected energy change by RFO approximation:        -0.0045926011

	Back-transformation to cartesian coordinates...
	Could not converge backtransformation.
	Using first guess instead.

	--- Internal Coordinate Step in ANG or DEG, aJ/ANG or AJ/DEG ---
	 ---------------------------------------------------------------------------
	   Coordinate                Previous        Force       Change         New 
	   ----------                --------       ------       ------       ------
	    1 R(1,4)          =      1.076616     0.072361     0.012415     1.089031
	    2 R(2,4)          =      1.080279     0.073731     0.010743     1.091022
	    3 R(3,4)          =      1.078660     0.087941     0.012861     1.091521
	    4 R(4,7)          =      1.542215    -0.032318    -0.006934     1.535281
	    5 R(5,7)          =      1.079630     0.084415     0.012224     1.091853
	    6 R(6,7)          =      1.079125     0.091015     0.013142     1.092267
	    7 R(7,10)         =      1.548823     0.000003    -0.005885     1.542938
	    8 R(8,10)         =      1.079315     0.090090     0.013018     1.092333
	    9 R(9,10)         =      1.079236     0.086773     0.012545     1.091781
	   10 R(10,14)        =      1.540996    -0.027733    -0.006115     1.534882
	   11 R(11,14)        =      1.079738     0.077180     0.011217     1.090955
	   12 R(12,14)        =      1.076590     0.072801     0.012469     1.089059
	   13 R(13,14)        =      1.079114     0.085518     0.012520     1.091634
	   14 B(1,4,2)        =    109.051633    -0.000274    -0.611760   108.439873
	   15 B(1,4,3)        =    109.196808    -0.000224    -0.664475   108.532333
	   16 B(1,4,7)        =    110.074819     0.000344     0.750645   110.825463
	   17 B(2,4,3)        =    109.197762    -0.000223    -0.609216   108.588547
	   18 B(2,4,7)        =    109.636827     0.000139     0.404887   110.041714
	   19 B(3,4,7)        =    109.663605     0.000230     0.687200   110.350805
	   20 B(4,7,5)        =    108.658925    -0.000257    -0.073087   108.585838
	   21 B(4,7,6)        =    108.790892    -0.000250    -0.196554   108.594338
	   22 B(4,7,10)       =    112.202521     0.001022     1.168709   113.371230
	   23 B(5,7,6)        =    109.663589    -0.000028    -0.592627   109.070963
	   24 B(5,7,10)       =    108.653899    -0.000288    -0.240383   108.413516
	   25 B(6,7,10)       =    108.847463    -0.000211    -0.112755   108.734708
	   26 B(7,10,8)       =    108.822270    -0.000212    -0.112670   108.709600
	   27 B(7,10,9)       =    108.697635    -0.000294    -0.258901   108.438734
	   28 B(7,10,14)      =    112.205625     0.001027     1.177369   113.382995
	   29 B(8,10,9)       =    109.629555    -0.000025    -0.584319   109.045236
	   30 B(8,10,14)      =    108.763063    -0.000249    -0.189026   108.574037
	   31 B(9,10,14)      =    108.698013    -0.000259    -0.079597   108.618416
	   32 B(10,14,11)     =    109.683021     0.000135     0.391152   110.074174
	   33 B(10,14,12)     =    110.119624     0.000335     0.726755   110.846379
	   34 B(10,14,13)     =    109.743069     0.000218     0.652428   110.395497
	   35 B(11,14,12)     =    109.000646    -0.000267    -0.590977   108.409669
	   36 B(11,14,13)     =    109.161736    -0.000217    -0.592870   108.568866
	   37 B(12,14,13)     =    109.111281    -0.000213    -0.630352   108.480930
	   38 D(1,4,7,5)      =   -179.571207     0.000053     0.558018  -179.013189
	   39 D(1,4,7,6)      =    -60.226889    -0.000022    -0.307739   -60.534629
	   40 D(1,4,7,10)     =     60.266324     0.000028     0.166368    60.432692
	   41 D(2,4,7,5)      =    -59.611547     0.000044     0.531668   -59.079879
	   42 D(2,4,7,6)      =     59.732771    -0.000031    -0.334089    59.398681
	   43 D(2,4,7,10)     =   -179.774016     0.000019     0.140018  -179.633999
	   44 D(3,4,7,5)      =     60.273134     0.000034     0.463058    60.736192
	   45 D(3,4,7,6)      =    179.617452    -0.000041    -0.402700   179.214752
	   46 D(3,4,7,10)     =    -59.889335     0.000009     0.071407   -59.817928
	   47 D(4,7,10,8)     =     80.242673     0.000021     0.214945    80.457619
	   48 D(4,7,10,9)     =   -160.413356    -0.000053    -0.699438  -161.112794
	   49 D(4,7,10,14)    =    -40.167904    -0.000025    -0.226826   -40.394730
	   50 D(5,7,10,8)     =    -39.922716    -0.000009    -0.271267   -40.193983
	   51 D(5,7,10,9)     =     79.421255    -0.000083    -1.185650    78.235604
	   52 D(5,7,10,14)    =   -160.333292    -0.000054    -0.713039  -161.046331
	   53 D(6,7,10,8)     =   -159.296874     0.000066     0.642674  -158.654200
	   54 D(6,7,10,9)     =    -39.952903    -0.000009    -0.271709   -40.224613
	   55 D(6,7,10,14)    =     80.292549     0.000020     0.200902    80.493452
	   56 D(7,10,14,11)   =   -179.791732     0.000020     0.153057  -179.638675
	   57 D(7,10,14,12)   =     60.254573     0.000028     0.176634    60.431207
	   58 D(7,10,14,13)   =    -59.873637     0.000009     0.075629   -59.798008
	   59 D(8,10,14,11)   =     59.763390    -0.000030    -0.330854    59.432536
	   60 D(8,10,14,12)   =    -60.190306    -0.000022    -0.307277   -60.497583
	   61 D(8,10,14,13)   =    179.681485    -0.000041    -0.408282   179.273202
	   62 D(9,10,14,11)   =    -59.546498     0.000044     0.524333   -59.022165
	   63 D(9,10,14,12)   =   -179.500194     0.000052     0.547910  -178.952283
	   64 D(9,10,14,13)   =     60.371597     0.000033     0.446905    60.818502
	 ---------------------------------------------------------------------------
	 Forces used to impose fixed constraints are not included.
	  Forces zeroed: 49 

  ==> Convergence Check <==

  Measures of convergence in internal coordinates in au.
  Criteria marked as inactive (o), active & met (*), and active & unmet ( ).
  ---------------------------------------------------------------------------------------------
   Step     Total Energy     Delta E     MAX Force     RMS Force      MAX Disp      RMS Disp   
  ---------------------------------------------------------------------------------------------
    Convergence Criteria    1.00e-06 *    3.00e-04 *             o    1.20e-03 *             o
  ---------------------------------------------------------------------------------------------
      2    -157.83738938   -6.26e-03      1.35e-02      5.20e-03 o    2.48e-02      1.25e-02 o  ~
  ---------------------------------------------------------------------------------------------

	Writing optimization data to binary file.
	Structure for next step:
	Cartesian Geometry (in Angstrom)
	    H    -1.7478290786   0.4466438560   0.2634398020
	    H    -1.4847402577   2.0771040146  -0.3692939965
	    H    -1.2772694638   0.6710798130  -1.4280804160
	    C    -1.1368839403   1.0438981845  -0.4118538949
	    H     0.9196955859   1.5943390901  -0.7038882843
	    H     0.4543293948   1.3627421944   0.9973826169
	    C     0.3447537850   0.9708460098  -0.0162533327
	    H     1.1648934459  -0.7085428992  -1.0942752669
	    H     1.8332107385  -0.4834328961   0.5385664444
	    C     0.9198666811  -0.4602595904  -0.0591380947
	    H     0.4144773712  -2.5090960886   0.4331879343
	    H    -0.9664811647  -1.5426364773  -0.1012061702
	    H    -0.3024077534  -1.3090161657   1.5223234862
	    C    -0.0472870949  -1.5219153096   0.4824911466
			--------------------------
			 OPTKING Finished Execution 
			--------------------------

    Structure for next step:
    Molecular point group: c1
    Full point group: C1

    Geometry (in Angstrom), charge = 0, multiplicity = 1:

    H           -1.747235200662     0.446869765400     0.263412922475
    H           -1.484146379796     2.077329923951    -0.369320876057
    H           -1.276675585908     0.671305722435    -1.428107295538
    C           -1.136290062398     1.044124093853    -0.411880774467
    H            0.920289463798     1.594564999467    -0.703915163785
    H            0.454923272707     1.362968103751     0.997355737335
    C            0.345347662939     0.971071919226    -0.016280212187
    H            1.165487323862    -0.708316989796    -1.094302146404
    H            1.833804616477    -0.483206986718     0.538539564843
    C            0.920460559065    -0.460033681048    -0.059164974194
    H            0.415071249086    -2.508870179239     0.433161054778
    H           -0.965887286763    -1.542410567925    -0.101233049729
    H           -0.301813875459    -1.308790256273     1.522296606626
    C           -0.046693216974    -1.521689400192     0.482464267103

gradient() will perform analytic gradient computation.
    SCF Algorithm Type (re)set to DF.

*** tstart() called on lski1497
*** at Thu Feb 16 16:35:19 2017


         ---------------------------------------------------------
                                   SCF
            by Justin Turney, Rob Parrish, and Andy Simmonett
                              RHF Reference
                        1 Threads,   1000 MiB Core
         ---------------------------------------------------------

  ==> Geometry <==

    Molecular point group: c1
    Full point group: C1

    Geometry (in Angstrom), charge = 0, multiplicity = 1:

       Center              X                  Y                   Z               Mass       
    ------------   -----------------  -----------------  -----------------  -----------------
           H         -1.747235200662     0.446869765400     0.263412922475     1.007825032070
           H         -1.484146379796     2.077329923951    -0.369320876057     1.007825032070
           H         -1.276675585908     0.671305722435    -1.428107295538     1.007825032070
           C         -1.136290062398     1.044124093853    -0.411880774467    12.000000000000
           H          0.920289463798     1.594564999467    -0.703915163785     1.007825032070
           H          0.454923272707     1.362968103751     0.997355737335     1.007825032070
           C          0.345347662939     0.971071919226    -0.016280212187    12.000000000000
           H          1.165487323862    -0.708316989796    -1.094302146404     1.007825032070
           H          1.833804616477    -0.483206986718     0.538539564843     1.007825032070
           C          0.920460559065    -0.460033681048    -0.059164974194    12.000000000000
           H          0.415071249086    -2.508870179239     0.433161054778     1.007825032070
           H         -0.965887286763    -1.542410567925    -0.101233049729     1.007825032070
           H         -0.301813875459    -1.308790256273     1.522296606626     1.007825032070
           C         -0.046693216974    -1.521689400192     0.482464267103    12.000000000000

  Running in c1 symmetry.

  Rotational constants: A =      0.40641  B =      0.17624  C =      0.13918 [cm^-1]
  Rotational constants: A =  12183.73742  B =   5283.48875  C =   4172.38859 [MHz]
  Nuclear repulsion =  133.290241903836460

  Charge       = 0
  Multiplicity = 1
  Electrons    = 34
  Nalpha       = 17
  Nbeta        = 17

  ==> Algorithm <==

  SCF Algorithm Type is DF.
  DIIS enabled.
  MOM disabled.
  Fractional occupation disabled.
  Guess Type is READ.
  Energy threshold   = 1.00e-10
  Density threshold  = 1.00e-10
  Integral threshold = 0.00e+00

  ==> Primary Basis <==

  Basis Set: 6-31G(D)
    Number of shells: 44
    Number of basis function: 80
    Number of Cartesian functions: 80
    Spherical Harmonics?: false
    Max angular momentum: 2

  ==> Pre-Iterations <==

   -------------------------------------------------------
    Irrep   Nso     Nmo     Nalpha   Nbeta   Ndocc  Nsocc
   -------------------------------------------------------
     A         80      80       0       0       0       0
   -------------------------------------------------------
    Total      80      80      17      17      17       0
   -------------------------------------------------------

  ==> Integral Setup <==

  ==> DFJK: Density-Fitted J/K Matrices <==

    J tasked:                  Yes
    K tasked:                  Yes
    wK tasked:                  No
    OpenMP threads:              1
    Integrals threads:           1
    Memory (MB):               715
    Algorithm:                Core
    Integral Cache:           NONE
    Schwarz Cutoff:          1E-12
    Fitting Condition:       1E-12

   => Auxiliary Basis Set <=

  Basis Set: 
    Number of shells: 186
    Number of basis function: 574
    Number of Cartesian functions: 574
    Spherical Harmonics?: false
    Max angular momentum: 3

  Minimum eigenvalue in the overlap matrix is 4.8978656986E-03.
  Using Symmetric Orthogonalization.
  SCF Guess was Projection but file not found.
  Switching over to SAD guess.

  SCF Guess: Superposition of Atomic Densities via on-the-fly atomic UHF.

  ==> Iterations <==

                           Total Energy        Delta E     RMS |[F,P]|

   @DF-RHF iter   0:  -158.64939538839539   -1.58649e+02   4.47714e-02 
   @DF-RHF iter   1:  -157.17685036430291    1.47255e+00   4.77022e-03 
   @DF-RHF iter   2:  -157.27868886582345   -1.01839e-01   1.66961e-03 DIIS
   @DF-RHF iter   3:  -157.29051383752440   -1.18250e-02   6.25777e-04 DIIS
   @DF-RHF iter   4:  -157.29257510873643   -2.06127e-03   8.57150e-05 DIIS
   @DF-RHF iter   5:  -157.29263101864635   -5.59099e-05   1.84507e-05 DIIS
   @DF-RHF iter   6:  -157.29263343011039   -2.41146e-06   5.00058e-06 DIIS
   @DF-RHF iter   7:  -157.29263355714508   -1.27035e-07   1.15708e-06 DIIS
   @DF-RHF iter   8:  -157.29263356635138   -9.20630e-09   2.66679e-07 DIIS
   @DF-RHF iter   9:  -157.29263356690356   -5.52177e-10   7.26723e-08 DIIS
   @DF-RHF iter  10:  -157.29263356694204   -3.84830e-11   2.13818e-08 DIIS
   @DF-RHF iter  11:  -157.29263356694455   -2.50111e-12   4.38509e-09 DIIS
   @DF-RHF iter  12:  -157.29263356694466   -1.13687e-13   9.75916e-10 DIIS
   @DF-RHF iter  13:  -157.29263356694477   -1.13687e-13   2.40757e-10 DIIS
   @DF-RHF iter  14:  -157.29263356694460    1.70530e-13   7.21653e-11 DIIS

  ==> Post-Iterations <==

    Orbital Energies (a.u.)
    -----------------------

    Doubly Occupied:                                                      

       1A    -11.215443     2A    -11.214881     3A    -11.208406  
       4A    -11.208381     5A     -1.068371     6A     -0.971367  
       7A     -0.875669     8A     -0.768909     9A     -0.633197  
      10A     -0.617388    11A     -0.570911    12A     -0.534160  
      13A     -0.526359    14A     -0.506096    15A     -0.459893  
      16A     -0.456630    17A     -0.453230  

    Virtual:                                                              

      18A      0.226529    19A      0.278857    20A      0.286415  
      21A      0.298098    22A      0.313834    23A      0.316252  
      24A      0.339219    25A      0.342560    26A      0.359587  
      27A      0.376890    28A      0.386820    29A      0.414696  
      30A      0.462815    31A      0.710674    32A      0.732087  
      33A      0.733342    34A      0.760871    35A      0.778461  
      36A      0.852445    37A      0.856253    38A      0.923112  
      39A      0.951966    40A      1.000420    41A      1.107918  
      42A      1.112369    43A      1.155915    44A      1.158452  
      45A      1.166851    46A      1.179488    47A      1.189798  
      48A      1.193877    49A      1.232379    50A      1.246418  
      51A      1.246970    52A      1.285221    53A      1.298656  
      54A      1.574014    55A      1.706044    56A      1.709969  
      57A      1.733388    58A      1.907415    59A      1.960143  
      60A      2.044729    61A      2.163695    62A      2.275307  
      63A      2.294189    64A      2.312324    65A      2.345684  
      66A      2.429487    67A      2.471361    68A      2.607084  
      69A      2.650129    70A      2.656164    71A      2.685807  
      72A      2.729332    73A      2.768107    74A      2.928535  
      75A      2.971431    76A      3.080812    77A      4.556431  
      78A      4.684470    79A      4.788643    80A      4.948552  

    Final Occupation by Irrep:
              A 
    DOCC [    17 ]

  Energy converged.

  @DF-RHF Final Energy:  -157.29263356694460

   => Energetics <=

    Nuclear Repulsion Energy =            133.2902419038364599
    One-Electron Energy =                -474.5871708647381411
    Two-Electron Energy =                 184.0042953939570225
    DFT Exchange-Correlation Energy =       0.0000000000000000
    Empirical Dispersion Energy =           0.0000000000000000
    PCM Polarization Energy =               0.0000000000000000
    EFP Energy =                            0.0000000000000000
    Total Energy =                       -157.2926335669446871


  Saving occupied orbitals to File 180.

*** tstop() called on lski1497 at Thu Feb 16 16:35:25 2017
Module time:
	user time   =       5.00 seconds =       0.08 minutes
	system time =       0.14 seconds =       0.00 minutes
	total time  =          6 seconds =       0.10 minutes
Total time:
	user time   =      52.48 seconds =       0.87 minutes
	system time =       1.53 seconds =       0.03 minutes
	total time  =         62 seconds =       1.03 minutes


Properties will be evaluated at   0.000000,   0.000000,   0.000000 Bohr

Properties computed using the SCF density matrix

  Nuclear Dipole Moment: (a.u.)
     X:    -0.9245      Y:    -0.3736      Z:     0.0543

  Electronic Dipole Moment: (a.u.)
     X:     0.9498      Y:     0.3838      Z:    -0.0558

  Dipole Moment: (a.u.)
     X:     0.0253      Y:     0.0102      Z:    -0.0016     Total:     0.0273

  Dipole Moment: (Debye)
     X:     0.0643      Y:     0.0258      Z:    -0.0040     Total:     0.0694


  //>>>>>>>>>>>>>>>>>>>>>>>>>>>>>>>>>>>//
  //               DFMP2               //
  //<<<<<<<<<<<<<<<<<<<<<<<<<<<<<<<<<<<//


*** tstart() called on lski1497
*** at Thu Feb 16 16:35:25 2017


*** tstop() called on lski1497 at Thu Feb 16 16:35:26 2017
Module time:
	user time   =       0.56 seconds =       0.01 minutes
	system time =       0.00 seconds =       0.00 minutes
	total time  =          1 seconds =       0.02 minutes
Total time:
	user time   =      53.06 seconds =       0.88 minutes
	system time =       1.53 seconds =       0.03 minutes
	total time  =         63 seconds =       1.05 minutes
	 --------------------------------------------------------
	                          DF-MP2                         
	      2nd-Order Density-Fitted Moller-Plesset Theory     
	              RMP2 Wavefunction,   1 Threads             
	                                                         
	        Rob Parrish, Justin Turney, Andy Simmonett,      
	           Ed Hohenstein, and C. David Sherrill          
	 --------------------------------------------------------

   => Auxiliary Basis Set <=

  Basis Set: 
    Number of shells: 132
    Number of basis function: 364
    Number of Cartesian functions: 414
    Spherical Harmonics?: true
    Max angular momentum: 3

	 --------------------------------------------------------
	                 NBF =    80, NAUX =   364
	 --------------------------------------------------------
	   CLASS    FOCC     OCC    AOCC    AVIR     VIR    FVIR
	   PAIRS       0      17      17      63      63       0
	 --------------------------------------------------------

DGAS Warning! /src/lib/libfock/apps.cc:80 is not currently checking restricted

         ------------------------------------------------------------
                                     CPHF                           
                                  Rob Parrish                       
         ------------------------------------------------------------

  ==> Geometry <==

    Molecular point group: c1
    Full point group: C1

    Geometry (in Angstrom), charge = 0, multiplicity = 1:

       Center              X                  Y                   Z               Mass       
    ------------   -----------------  -----------------  -----------------  -----------------
           H         -1.747235200662     0.446869765400     0.263412922475     1.007825032070
           H         -1.484146379796     2.077329923951    -0.369320876057     1.007825032070
           H         -1.276675585908     0.671305722435    -1.428107295538     1.007825032070
           C         -1.136290062398     1.044124093853    -0.411880774467    12.000000000000
           H          0.920289463798     1.594564999467    -0.703915163785     1.007825032070
           H          0.454923272707     1.362968103751     0.997355737335     1.007825032070
           C          0.345347662939     0.971071919226    -0.016280212187    12.000000000000
           H          1.165487323862    -0.708316989796    -1.094302146404     1.007825032070
           H          1.833804616477    -0.483206986718     0.538539564843     1.007825032070
           C          0.920460559065    -0.460033681048    -0.059164974194    12.000000000000
           H          0.415071249086    -2.508870179239     0.433161054778     1.007825032070
           H         -0.965887286763    -1.542410567925    -0.101233049729     1.007825032070
           H         -0.301813875459    -1.308790256273     1.522296606626     1.007825032070
           C         -0.046693216974    -1.521689400192     0.482464267103    12.000000000000

  Nuclear repulsion =  133.290241903836431
  Reference energy  = -157.292633566944602

  ==> Basis Set <==

  Basis Set: 6-31G(D)
    Number of shells: 44
    Number of basis function: 80
    Number of Cartesian functions: 80
    Spherical Harmonics?: false
    Max angular momentum: 2

[...]

    CGRSolver converged.

  ==> DFCorrGrad: Density-Fitted Correlated Gradients <==

    OpenMP threads:              1
    Integrals threads:           1
    Memory (MB):               715
    Schwarz Cutoff:          0E+00
    Fitting Condition:       1E-12

   => Auxiliary Basis Set <=

  Basis Set: 
    Number of shells: 186
    Number of basis function: 510
    Number of Cartesian functions: 574
    Spherical Harmonics?: true
    Max angular momentum: 3

	-----------------------------------------------------------
	 ==================> DF-MP2 Energies <==================== 
	-----------------------------------------------------------
	 Reference Energy          =    -157.2940435369033594 [Eh]
	 Singles Energy            =      -0.0000000000000000 [Eh]
	 Same-Spin Energy          =      -0.1246757052093679 [Eh]
	 Opposite-Spin Energy      =      -0.4226495076341692 [Eh]
	 Correlation Energy        =      -0.5473252128435371 [Eh]
	 Total Energy              =    -157.8413687497468914 [Eh]
	-----------------------------------------------------------
	 ================> DF-SCS-MP2 Energies <================== 
	-----------------------------------------------------------
	 SCS Same-Spin Scale       =       0.3333333333333333 [-]
	 SCS Opposite-Spin Scale   =       1.2000000000000000 [-]
	 SCS Same-Spin Energy      =      -0.0415585684031226 [Eh]
	 SCS Opposite-Spin Energy  =      -0.5071794091610030 [Eh]
	 SCS Correlation Energy    =      -0.5487379775641257 [Eh]
	 SCS Total Energy          =    -157.8427815144674753 [Eh]
	-----------------------------------------------------------


  -Total Gradient:
     Atom            X                  Y                   Z
    ------   -----------------  -----------------  -----------------
       1        0.000010810612    -0.000014684714     0.000030845211
       2        0.000015531715     0.000013650652     0.000006643596
       3        0.000005908724    -0.000012993433    -0.000018697205
       4       -0.000937051294    -0.000462162499     0.003700379119
       5        0.000002476001     0.000002511458     0.000032816447
       6       -0.000015677800     0.000031234135    -0.000005122256
       7        0.000729752177     0.000355333728    -0.006709547652
       8        0.000010704556    -0.000034304157     0.000005789335
       9       -0.000001503442    -0.000005760232    -0.000032041124
      10        0.001615386232     0.000598815640     0.006536604416
      11        0.000020000952     0.000004553224    -0.000009958726
      12       -0.000004715005     0.000017936718    -0.000031309304
      13       -0.000001868579     0.000015084403     0.000018720930
      14       -0.001449754849    -0.000509214924    -0.003525122788


			-----------------------------------------
			 OPTKING 2.0: for geometry optimizations 
			  - R.A. King,  Bethel University        
			-----------------------------------------

	Previous internal coordinate definitions found.
	---Fragment 1 Geometry and Gradient---
	 H          -3.3563547960        1.0201168541        0.5780388046
	 H          -2.7677673759        3.9720502504       -0.8543802818
	 H          -2.5122325094        1.1701738990       -2.6513117359
	 C          -2.1590061666        1.9982180047       -0.7882178818
	 H           1.7555085167        3.0272397334       -1.3148370137
	 H           0.8478631626        2.6028748773        1.8399018857
	 C           0.6267451805        1.8202342971       -0.0679901097
	 H           2.1772542791       -1.3697240421       -2.0646107800
	 H           3.5141766322       -0.8791143510        0.9234081984
	 C           1.7182725759       -0.8643059900       -0.1062037877
	 H           0.9156041974       -4.7270569505        0.9919379797
	 H          -1.7361471777       -3.0960195552       -0.1997477374
	 H          -0.6254999783       -2.4492609925        2.8844010019
	 C          -0.0358796700       -2.8929444337        0.9512584885
	             0.0000108106       -0.0000146847        0.0000308452
	             0.0000155317        0.0000136507        0.0000066436
	             0.0000059087       -0.0000129934       -0.0000186972
	            -0.0009370513       -0.0004621625        0.0037003791
	             0.0000024760        0.0000025115        0.0000328164
	            -0.0000156778        0.0000312341       -0.0000051223
	             0.0007297522        0.0003553337       -0.0067095477
	             0.0000107046       -0.0000343042        0.0000057893
	            -0.0000015034       -0.0000057602       -0.0000320411
	             0.0016153862        0.0005988156        0.0065366044
	             0.0000200010        0.0000045532       -0.0000099587
	            -0.0000047150        0.0000179367       -0.0000313093
	            -0.0000018686        0.0000150844        0.0000187209
	            -0.0014497548       -0.0005092149       -0.0035251228

	---Fragment 1 Intrafragment Coordinates---
	 - Coordinate -           - BOHR/RAD -       - ANG/DEG -
	 R(1,4)           =         2.063246	       1.091823
	 R(2,4)           =         2.066635	       1.093616
	 R(3,4)           =         2.069189	       1.094968
	 R(4,7)           =         2.882849	       1.525538
	 R(5,7)           =         2.070168	       1.095486
	 R(6,7)           =         2.073999	       1.097513
	 R(7,10)          =         2.898215	       1.533669
	 R(8,10)          =         2.073998	       1.097513
	 R(9,10)          =         2.070167	       1.095485
	 R(10,14)         =         2.882820	       1.525523
	 R(11,14)         =         2.066627	       1.093612
	 R(12,14)         =         2.063241	       1.091820
	 R(13,14)         =         2.069190	       1.094968
	 B(1,4,2)         =         1.878664	     107.639546
	 B(1,4,3)         =         1.883318	     107.906169
	 B(1,4,7)         =         1.945582	     111.473653
	 B(2,4,3)         =         1.878738	     107.643731
	 B(2,4,7)         =         1.930086	     110.585805
	 B(3,4,7)         =         1.944644	     111.419870
	 B(4,7,5)         =         1.918159	     109.902390
	 B(4,7,6)         =         1.885515	     108.032033
	 B(4,7,10)        =         2.001850	     114.697573
	 B(5,7,6)         =         1.850328	     106.015989
	 B(5,7,10)        =         1.903677	     109.072643
	 B(6,7,10)        =         1.898123	     108.754457
	 B(7,10,8)        =         1.898134	     108.755093
	 B(7,10,9)        =         1.903704	     109.074218
	 B(7,10,14)       =         2.001834	     114.696637
	 B(8,10,9)        =         1.850333	     106.016277
	 B(8,10,14)       =         1.885510	     108.031776
	 B(9,10,14)       =         1.918137	     109.901174
	 B(10,14,11)      =         1.930074	     110.585098
	 B(10,14,12)      =         1.945575	     111.473253
	 B(10,14,13)      =         1.944640	     111.419691
	 B(11,14,12)      =         1.878675	     107.640139
	 B(11,14,13)      =         1.878743	     107.644048
	 B(12,14,13)      =         1.883326	     107.906619
	 D(1,4,7,5)       =        -3.006504	    -172.259977
	 D(1,4,7,6)       =        -0.995147	     -57.017737
	 D(1,4,7,10)      =         1.124700	      64.440554
	 D(2,4,7,5)       =        -0.917191	     -52.551163
	 D(2,4,7,6)       =         1.094166	      62.691077
	 D(2,4,7,10)      =        -3.069173	    -175.850632
	 D(3,4,7,5)       =         1.171598	      67.127619
	 D(3,4,7,6)       =        -3.100231	    -177.630141
	 D(3,4,7,10)      =        -0.980384	     -56.171850
	 D(4,7,10,8)      =         1.405736	      80.542716
	 D(4,7,10,9)      =        -2.866896	    -164.261063
	 D(4,7,10,14)     =        -0.707196	     -40.519366
	 D(5,7,10,8)      =        -0.753983	     -43.200023
	 D(5,7,10,9)      =         1.256571	      71.996198
	 D(5,7,10,14)     =        -2.866915	    -164.262105
	 D(6,7,10,8)      =        -2.764509	    -158.394710
	 D(6,7,10,9)      =        -0.753956	     -43.198489
	 D(6,7,10,14)     =         1.405744	      80.543207
	 D(7,10,14,11)    =        -3.069187	    -175.851489
	 D(7,10,14,12)    =         1.124685	      64.439683
	 D(7,10,14,13)    =        -0.980402	     -56.172896
	 D(8,10,14,11)    =         1.094151	      62.690214
	 D(8,10,14,12)    =        -0.995163	     -57.018615
	 D(8,10,14,13)    =        -3.100249	    -177.631194
	 D(9,10,14,11)    =        -0.917198	     -52.551581
	 D(9,10,14,12)    =        -3.006511	    -172.260409
	 D(9,10,14,13)    =         1.171587	      67.127011

	Current energy   :      -157.8413687497

	Energy change for the previous step:
		Projected    :        -0.0000008380
		Actual       :         0.0000012366

	Performing BFGS update.
	Previous computed or guess Hessian on step 1.
	Steps to be used in Hessian update: 12 11
	Adding user-defined constraint: Fragment 1; Coordinate 49:
		Value =    -0.707196; Fixed value    =    -0.698130
		Force =     0.007253; Force constant =     0.800000
	Removing off-diagonal coupling between coordinate 49 and others.
	Taking RFO optimization step.
	Going to follow RFO solution 1.
	Rejecting RFO root 1 because normalization gives large value.
	Using RFO vector 2.
	Norm of target step-size    0.00278
	Projected energy change by RFO approximation:        -0.0000006559

	Back-transformation to cartesian coordinates...
	Successfully converged to displaced geometry.

	--- Internal Coordinate Step in ANG or DEG, aJ/ANG or AJ/DEG ---
	 ---------------------------------------------------------------------------
	   Coordinate                Previous        Force       Change         New 
	   ----------                --------       ------       ------       ------
	    1 R(1,4)          =      1.091823    -0.000174    -0.000066     1.091757
	    2 R(2,4)          =      1.093616    -0.000068    -0.000024     1.093593
	    3 R(3,4)          =      1.094968    -0.000173    -0.000067     1.094901
	    4 R(4,7)          =      1.525538     0.000694     0.000217     1.525755
	    5 R(5,7)          =      1.095486     0.000140     0.000043     1.095528
	    6 R(6,7)          =      1.097513    -0.000045    -0.000022     1.097491
	    7 R(7,10)         =      1.533669     0.000402     0.000309     1.533978
	    8 R(8,10)         =      1.097513    -0.000043    -0.000021     1.097491
	    9 R(9,10)         =      1.095485     0.000142     0.000045     1.095530
	   10 R(10,14)        =      1.525523     0.000787     0.000245     1.525768
	   11 R(11,14)        =      1.093612    -0.000041    -0.000012     1.093600
	   12 R(12,14)        =      1.091820    -0.000161    -0.000060     1.091761
	   13 R(13,14)        =      1.094968    -0.000175    -0.000067     1.094901
	   14 B(1,4,2)        =    107.639546    -0.000002    -0.009495   107.630050
	   15 B(1,4,3)        =    107.906169    -0.000002    -0.020271   107.885898
	   16 B(1,4,7)        =    111.473653     0.000003     0.035776   111.509429
	   17 B(2,4,3)        =    107.643731    -0.000001    -0.020774   107.622957
	   18 B(2,4,7)        =    110.585805     0.000002     0.021928   110.607732
	   19 B(3,4,7)        =    111.419870     0.000000    -0.009970   111.409900
	   20 B(4,7,5)        =    109.902390     0.000004    -0.010035   109.892355
	   21 B(4,7,6)        =    108.032033    -0.000006    -0.000721   108.031312
	   22 B(4,7,10)       =    114.697573     0.000004     0.009065   114.706638
	   23 B(5,7,6)        =    106.015989     0.000001     0.041532   106.057521
	   24 B(5,7,10)       =    109.072643    -0.000001    -0.013273   109.059370
	   25 B(6,7,10)       =    108.754457    -0.000003    -0.023584   108.730873
	   26 B(7,10,8)       =    108.755093    -0.000003    -0.024797   108.730296
	   27 B(7,10,9)       =    109.074218    -0.000001    -0.015587   109.058631
	   28 B(7,10,14)      =    114.696637     0.000004     0.010615   114.707252
	   29 B(8,10,9)       =    106.016277     0.000001     0.041042   106.057318
	   30 B(8,10,14)      =    108.031776    -0.000006    -0.000548   108.031228
	   31 B(9,10,14)      =    109.901174     0.000004    -0.007901   109.893273
	   32 B(10,14,11)     =    110.585098     0.000002     0.022926   110.608024
	   33 B(10,14,12)     =    111.473253     0.000003     0.036340   111.509594
	   34 B(10,14,13)     =    111.419691     0.000000    -0.009499   111.410192
	   35 B(11,14,12)     =    107.640139    -0.000002    -0.010608   107.629531
	   36 B(11,14,13)     =    107.644048    -0.000001    -0.021158   107.622890
	   37 B(12,14,13)     =    107.906619    -0.000002    -0.020929   107.885690
	   38 D(1,4,7,5)      =   -172.259977     0.000000    -0.040009  -172.299986
	   39 D(1,4,7,6)      =    -57.017737     0.000000     0.003630   -57.014107
	   40 D(1,4,7,10)     =     64.440554    -0.000001    -0.021197    64.419357
	   41 D(2,4,7,5)      =    -52.551163     0.000000    -0.013802   -52.564965
	   42 D(2,4,7,6)      =     62.691077     0.000001     0.029837    62.720914
	   43 D(2,4,7,10)     =   -175.850632    -0.000001     0.005010  -175.845621
	   44 D(3,4,7,5)      =     67.127619     0.000000    -0.031896    67.095723
	   45 D(3,4,7,6)      =   -177.630141     0.000000     0.011743  -177.618398
	   46 D(3,4,7,10)     =    -56.171850    -0.000001    -0.013084   -56.184933
	   47 D(4,7,10,8)     =     80.542716     0.000002    -0.011509    80.531207
	   48 D(4,7,10,9)     =   -164.261063     0.000002     0.015386  -164.245677
	   49 D(4,7,10,14)    =    -40.519366     0.000003     0.000435   -40.518932
	   50 D(5,7,10,8)     =    -43.200023     0.000000     0.005558   -43.194464
	   51 D(5,7,10,9)     =     71.996198     0.000000     0.032453    72.028652
	   52 D(5,7,10,14)    =   -164.262105     0.000002     0.017502  -164.244603
	   53 D(6,7,10,8)     =   -158.394710     0.000000    -0.023821  -158.418531
	   54 D(6,7,10,9)     =    -43.198489     0.000000     0.003074   -43.195415
	   55 D(6,7,10,14)    =     80.543207     0.000002    -0.011877    80.531330
	   56 D(7,10,14,11)   =   -175.851489    -0.000001     0.004253  -175.847236
	   57 D(7,10,14,12)   =     64.439683    -0.000001    -0.021589    64.418094
	   58 D(7,10,14,13)   =    -56.172896    -0.000001    -0.013351   -56.186247
	   59 D(8,10,14,11)   =     62.690214     0.000001     0.029483    62.719697
	   60 D(8,10,14,12)   =    -57.018615     0.000000     0.003641   -57.014973
	   61 D(8,10,14,13)   =   -177.631194     0.000000     0.011879  -177.619314
	   62 D(9,10,14,11)   =    -52.551581     0.000000    -0.014801   -52.566382
	   63 D(9,10,14,12)   =   -172.260409     0.000000    -0.040643  -172.301052
	   64 D(9,10,14,13)   =     67.127011     0.000000    -0.032405    67.094607
	 ---------------------------------------------------------------------------
	 Forces used to impose fixed constraints are not included.
	  Forces zeroed: 49 

  ==> Convergence Check <==

  Measures of convergence in internal coordinates in au.
  Criteria marked as inactive (o), active & met (*), and active & unmet ( ).
  ---------------------------------------------------------------------------------------------
   Step     Total Energy     Delta E     MAX Force     RMS Force      MAX Disp      RMS Disp   
  ---------------------------------------------------------------------------------------------
    Convergence Criteria    1.00e-06 *    3.00e-04 *             o    1.20e-03 *             o
  ---------------------------------------------------------------------------------------------
     13    -157.84136875    1.24e-06      1.06e-04 *    4.22e-05 o    7.25e-04 *    3.47e-04 o  ~
  ---------------------------------------------------------------------------------------------


  **** Optimization is complete! (in 13 steps) ****

  ==> Optimization Summary <==

  Measures of convergence in internal coordinates in au.
  --------------------------------------------------------------------------------------------------------------- ~
   Step         Total Energy             Delta E       MAX Force       RMS Force        MAX Disp        RMS Disp  ~
  --------------------------------------------------------------------------------------------------------------- ~
      1    -157.831129482705   -157.831129482705      0.04019992      0.01111878      0.04725890      0.01267479  ~
      2    -157.837389381602     -0.006259898897      0.01349771      0.00520063      0.02483534      0.01254400  ~
      3    -157.840027934738     -0.002638553136      0.00675361      0.00201487      0.03937310      0.01250365  ~
      4    -157.840929521117     -0.000901586380      0.00243458      0.00079931      0.03766214      0.01252159  ~
      5    -157.841246995904     -0.000317474787      0.00068213      0.00024500      0.02681721      0.01250403  ~
      6    -157.841342705592     -0.000095709688      0.00029764      0.00012525      0.02510747      0.01249930  ~
      7    -157.841399448591     -0.000056742999      0.00066916      0.00015245      0.01124584      0.00568224  ~
      8    -157.841406440105     -0.000006991514      0.00070082      0.00015067      0.04259258      0.01249930  ~
      9    -157.841142833512      0.000263606594      0.00277888      0.00095079      0.02495599      0.01027943  ~
     10    -157.841362483470     -0.000219649958      0.00058518      0.00021558      0.01804935      0.00723805  ~
     11    -157.841371344520     -0.000008861050      0.00026987      0.00007331      0.00462432      0.00236848  ~
     12    -157.841369986322      0.000001358198      0.00017342      0.00004378      0.00176637      0.00084503  ~
     13    -157.841368749747      0.000001236575      0.00019746      0.00004892      0.00072487      0.00034707  ~
  --------------------------------------------------------------------------------------------------------------- ~

	Writing optimization data to binary file.
	Final energy is   -157.8413687497469
	Final (previous) structure:
	Cartesian Geometry (in Angstrom)
	    H    -1.7761064620   0.5398225893   0.3058849611
	    H    -1.4646394140   2.1019184639  -0.4521185726
	    H    -1.3294161866   0.6192293574  -1.4030137435
	    C    -1.1424968566   1.0574114259  -0.4171069385
	    H     0.9289750965   1.6019462718  -0.6957817806
	    H     0.4486698616   1.3773820619   0.9736341440
	    C     0.3316592651   0.9632265043  -0.0359788165
	    H     1.1521533418  -0.7248267451  -1.0925449694
	    H     1.8596221807  -0.4652072783   0.4886465728
	    C     0.9092706853  -0.4573710312  -0.0562006239
	    H     0.4845168734  -2.5014508019   0.5249109712
	    H    -0.9187295172  -1.6383429860  -0.1057019501
	    H    -0.3310003325  -1.2960930951   1.5263592706
	    C    -0.0189867036  -1.5308802600   0.5033843116
	Saving final (previous) structure.
			--------------------------
			 OPTKING Finished Execution 
			--------------------------

    Final optimized geometry and variables:
    Molecular point group: c1
    Full point group: C1

    Geometry (in Angstrom), charge = 0, multiplicity = 1:

    H           -1.776106461985     0.539822589285     0.305884961051
    H           -1.464639413979     2.101918463911    -0.452118572611
    H           -1.329416186649     0.619229357430    -1.403013743499
    C           -1.142496856585     1.057411425890    -0.417106938453
    H            0.928975096503     1.601946271838    -0.695781780645
    H            0.448669861631     1.377382061899     0.973634143975
    C            0.331659265140     0.963226504305    -0.035978816473
    H            1.152153341823    -0.724826745128    -1.092544969401
    H            1.859622180718    -0.465207278267     0.488646572837
    C            0.909270685286    -0.457371031170    -0.056200623924
    H            0.484516873358    -2.501450801937     0.524910971191
    H           -0.918729517196    -1.638342985979    -0.105701950077
    H           -0.331000332468    -1.296093095132     1.526359270647
    C           -0.018986703591    -1.530880260036     0.503384311613

	Cleaning optimization helper files.

*** Psi4 exiting successfully. Buy a developer a beer!
