    -----------------------------------------------------------------------
          Psi4: An Open-Source Ab Initio Electronic Structure Package
                              Psi4 1.0.0 Driver

                          Git: Rev {master} 6a9a71b 

    J. M. Turney, A. C. Simmonett, R. M. Parrish, E. G. Hohenstein,
    F. A. Evangelista, J. T. Fermann, B. J. Mintz, L. A. Burns, J. J. Wilke,
    M. L. Abrams, N. J. Russ, M. L. Leininger, C. L. Janssen, E. T. Seidl,
    W. D. Allen, H. F. Schaefer, R. A. King, E. F. Valeev, C. D. Sherrill,
    and T. D. Crawford, WIREs Comput. Mol. Sci. 2, 556-565 (2012)
    (doi: 10.1002/wcms.93)

                         Additional Contributions by
    A. E. DePrince, U. Bozkaya, A. Yu. Sokolov, D. G. A. Smith, R. Di Remigio,
    R. M. Richard, J. F. Gonthier, H. R. McAlexander, M. Saitow, and
    B. P. Pritchard
    -----------------------------------------------------------------------


    Psi4 started on: Mon Feb 20 17:20:08 2017

    Process ID:  27973
    PSI4DATADIR: /Users/sternc1/anaconda/share/psi4
    Memory level set to 256.000 MB

  ==> Input File <==

--------------------------------------------------------------------------

memory 1000 mb

molecule butane {
  symmetry C1
  0 1 
  H      1.604   0.760   -8.260
  H      1.745   2.388   -8.880
  H      2.043   1.024   -9.930
  C      2.142   1.395   -8.932
  H      4.169   2.051   -9.210
  H      3.731   1.788   -7.539
  C      3.631   1.416   -8.537
  H      3.788   -0.604   -7.823
  H      3.950   -0.448   -9.555
  C      4.203   -0.012   -8.612
  H      6.132   -0.953   -8.517
  H      5.988   0.476   -7.521
  H      6.150   0.631   -9.254
  C      5.734   0.039   -8.465
  units Angstrom
}

dih_string = "4 7 10 14 170"
set optking fixed_dihedral = $dih_string

optimize('MP2/6-31G(d)')
--------------------------------------------------------------------------

  Memory set to 1000.000 MiB by Python script.
gradient() will perform analytic gradient computation.
    SCF Algorithm Type (re)set to DF.

*** tstart() called on lski1497
*** at Mon Feb 20 17:20:10 2017


         ---------------------------------------------------------
                                   SCF
            by Justin Turney, Rob Parrish, and Andy Simmonett
                              RHF Reference
                        1 Threads,   1000 MiB Core
         ---------------------------------------------------------

  ==> Geometry <==

    Molecular point group: c1
    Full point group: C1

    Geometry (in Angstrom), charge = 0, multiplicity = 1:

       Center              X                  Y                   Z               Mass       
    ------------   -----------------  -----------------  -----------------  -----------------
           H         -2.323933822053     0.050187648122     0.378651757384     1.007825032070
           H         -2.182933822053     1.678187648122    -0.241348242616     1.007825032070
           H         -1.884933822053     0.314187648122    -1.291348242616     1.007825032070
           C         -1.785933822053     0.685187648122    -0.293348242616    12.000000000000
           H          0.241066177947     1.341187648122    -0.571348242616     1.007825032070
           H         -0.196933822053     1.078187648122     1.099651757384     1.007825032070
           C         -0.296933822053     0.706187648122     0.101651757384    12.000000000000
           H         -0.139933822053    -1.313812351878     0.815651757384     1.007825032070
           H          0.022066177947    -1.157812351878    -0.916348242616     1.007825032070
           C          0.275066177947    -0.721812351878     0.026651757384    12.000000000000
           H          2.204066177947    -1.662812351878     0.121651757384     1.007825032070
           H          2.060066177947    -0.233812351878     1.117651757384     1.007825032070
           H          2.222066177947    -0.078812351878    -0.615348242616     1.007825032070
           C          1.806066177947    -0.670812351878     0.173651757384    12.000000000000

  Running in c1 symmetry.

  Rotational constants: A =      0.76222  B =      0.12485  C =      0.11679 [cm^-1]
  Rotational constants: A =  22850.74812  B =   3742.91335  C =   3501.25444 [MHz]
  Nuclear repulsion =  131.842550951576925

  Charge       = 0
  Multiplicity = 1
  Electrons    = 34
  Nalpha       = 17
  Nbeta        = 17

  ==> Algorithm <==

  SCF Algorithm Type is DF.
  DIIS enabled.
  MOM disabled.
  Fractional occupation disabled.
  Guess Type is SAD.
  Energy threshold   = 1.00e-10
  Density threshold  = 1.00e-10
  Integral threshold = 0.00e+00

  ==> Primary Basis <==

  Basis Set: 6-31G(D)
    Number of shells: 44
    Number of basis function: 80
    Number of Cartesian functions: 80
    Spherical Harmonics?: false
    Max angular momentum: 2

  ==> Pre-Iterations <==

   -------------------------------------------------------
    Irrep   Nso     Nmo     Nalpha   Nbeta   Ndocc  Nsocc
   -------------------------------------------------------
     A         80      80       0       0       0       0
   -------------------------------------------------------
    Total      80      80      17      17      17       0
   -------------------------------------------------------

  ==> Integral Setup <==

  ==> DFJK: Density-Fitted J/K Matrices <==

    J tasked:                  Yes
    K tasked:                  Yes
    wK tasked:                  No
    OpenMP threads:              1
    Integrals threads:           1
    Memory (MB):               715
    Algorithm:                Core
    Integral Cache:           NONE
    Schwarz Cutoff:          1E-12
    Fitting Condition:       1E-12

   => Auxiliary Basis Set <=

  Basis Set: 
    Number of shells: 186
    Number of basis function: 574
    Number of Cartesian functions: 574
    Spherical Harmonics?: false
    Max angular momentum: 3

  Minimum eigenvalue in the overlap matrix is 4.4978443159E-03.
  Using Symmetric Orthogonalization.
  SCF Guess: Superposition of Atomic Densities via on-the-fly atomic UHF.

  ==> Iterations <==

                           Total Energy        Delta E     RMS |[F,P]|

   @DF-RHF iter   0:  -158.96973074470753   -1.58970e+02   4.74448e-02 
   @DF-RHF iter   1:  -157.20652795812003    1.76320e+00   3.92071e-03 
   @DF-RHF iter   2:  -157.28545324834130   -7.89253e-02   1.09468e-03 DIIS
   @DF-RHF iter   3:  -157.29340602251114   -7.95277e-03   2.43172e-04 DIIS
   @DF-RHF iter   4:  -157.29374126027523   -3.35238e-04   7.54546e-05 DIIS
   @DF-RHF iter   5:  -157.29377488005656   -3.36198e-05   1.29390e-05 DIIS
   @DF-RHF iter   6:  -157.29377608162383   -1.20157e-06   2.62850e-06 DIIS
   @DF-RHF iter   7:  -157.29377611395165   -3.23278e-08   6.93987e-07 DIIS
   @DF-RHF iter   8:  -157.29377611645043   -2.49878e-09   9.67280e-08 DIIS
   @DF-RHF iter   9:  -157.29377611653138   -8.09450e-11   2.14446e-08 DIIS
   @DF-RHF iter  10:  -157.29377611653575   -4.37694e-12   3.79384e-09 DIIS
   @DF-RHF iter  11:  -157.29377611653598   -2.27374e-13   9.06832e-10 DIIS
   @DF-RHF iter  12:  -157.29377611653592    5.68434e-14   2.91705e-10 DIIS
   @DF-RHF iter  13:  -157.29377611653598   -5.68434e-14   6.33941e-11 DIIS

  ==> Post-Iterations <==

    Orbital Energies (a.u.)
    -----------------------

    Doubly Occupied:                                                      

       1A    -11.208015     2A    -11.207415     3A    -11.200168  
       4A    -11.200100     5A     -1.071003     6A     -0.981251  
       7A     -0.861701     8A     -0.794781     9A     -0.647542  
      10A     -0.587596    11A     -0.578036    12A     -0.568586  
      13A     -0.514673    14A     -0.504021    15A     -0.475244  
      16A     -0.468565    17A     -0.441470  

    Virtual:                                                              

      18A      0.233231    19A      0.265260    20A      0.288818  
      21A      0.299565    22A      0.325043    23A      0.340303  
      24A      0.343841    25A      0.346225    26A      0.358706  
      27A      0.364512    28A      0.419016    29A      0.422228  
      30A      0.434464    31A      0.698464    32A      0.710521  
      33A      0.748592    34A      0.750447    35A      0.760548  
      36A      0.845439    37A      0.856293    38A      0.931560  
      39A      0.953636    40A      1.027556    41A      1.069651  
      42A      1.098521    43A      1.154990    44A      1.189114  
      45A      1.206471    46A      1.212159    47A      1.219340  
      48A      1.226980    49A      1.244145    50A      1.253295  
      51A      1.261082    52A      1.296061    53A      1.301420  
      54A      1.622653    55A      1.688260    56A      1.716582  
      57A      1.728440    58A      1.929341    59A      1.932909  
      60A      2.153507    61A      2.196736    62A      2.221518  
      63A      2.292845    64A      2.309425    65A      2.339940  
      66A      2.399955    67A      2.543585    68A      2.629158  
      69A      2.635026    70A      2.662206    71A      2.749974  
      72A      2.751173    73A      2.767937    74A      2.887425  
      75A      3.005605    76A      3.116032    77A      4.579928  
      78A      4.685713    79A      4.800031    80A      4.952656  

    Final Occupation by Irrep:
              A 
    DOCC [    17 ]

  Energy converged.

  @DF-RHF Final Energy:  -157.29377611653598

   => Energetics <=

    Nuclear Repulsion Energy =            131.8425509515769249
    One-Electron Energy =                -471.6523167250277311
    Two-Electron Energy =                 182.5159896569149396
    DFT Exchange-Correlation Energy =       0.0000000000000000
    Empirical Dispersion Energy =           0.0000000000000000
    PCM Polarization Energy =               0.0000000000000000
    EFP Energy =                            0.0000000000000000
    Total Energy =                       -157.2937761165358665


  Saving occupied orbitals to File 180.

*** tstop() called on lski1497 at Mon Feb 20 17:20:18 2017
Module time:
	user time   =       4.84 seconds =       0.08 minutes
	system time =       0.16 seconds =       0.00 minutes
	total time  =          8 seconds =       0.13 minutes
Total time:
	user time   =       4.84 seconds =       0.08 minutes
	system time =       0.16 seconds =       0.00 minutes
	total time  =          8 seconds =       0.13 minutes


Properties will be evaluated at   0.000000,   0.000000,   0.000000 Bohr

Properties computed using the SCF density matrix

  Nuclear Dipole Moment: (a.u.)
     X:     0.0194      Y:     0.0139      Z:    -0.0961

  Electronic Dipole Moment: (a.u.)
     X:    -0.0209      Y:    -0.0155      Z:     0.1034

  Dipole Moment: (a.u.)
     X:    -0.0015      Y:    -0.0016      Z:     0.0073     Total:     0.0076

  Dipole Moment: (Debye)
     X:    -0.0039      Y:    -0.0040      Z:     0.0185     Total:     0.0193


  //>>>>>>>>>>>>>>>>>>>>>>>>>>>>>>>>>>>//
  //               DFMP2               //
  //<<<<<<<<<<<<<<<<<<<<<<<<<<<<<<<<<<<//


*** tstart() called on lski1497
*** at Mon Feb 20 17:20:18 2017


*** tstop() called on lski1497 at Mon Feb 20 17:20:19 2017
Module time:
	user time   =       0.54 seconds =       0.01 minutes
	system time =       0.01 seconds =       0.00 minutes
	total time  =          1 seconds =       0.02 minutes
Total time:
	user time   =       5.40 seconds =       0.09 minutes
	system time =       0.17 seconds =       0.00 minutes
	total time  =          9 seconds =       0.15 minutes
	 --------------------------------------------------------
	                          DF-MP2                         
	      2nd-Order Density-Fitted Moller-Plesset Theory     
	              RMP2 Wavefunction,   1 Threads             
	                                                         
	        Rob Parrish, Justin Turney, Andy Simmonett,      
	           Ed Hohenstein, and C. David Sherrill          
	 --------------------------------------------------------

   => Auxiliary Basis Set <=

  Basis Set: 
    Number of shells: 132
    Number of basis function: 364
    Number of Cartesian functions: 414
    Spherical Harmonics?: true
    Max angular momentum: 3

	 --------------------------------------------------------
	                 NBF =    80, NAUX =   364
	 --------------------------------------------------------
	   CLASS    FOCC     OCC    AOCC    AVIR     VIR    FVIR
	   PAIRS       0      17      17      63      63       0
	 --------------------------------------------------------

DGAS Warning! /src/lib/libfock/apps.cc:80 is not currently checking restricted

         ------------------------------------------------------------
                                     CPHF                           
                                  Rob Parrish                       
         ------------------------------------------------------------

  ==> Geometry <==

    Molecular point group: c1
    Full point group: C1

    Geometry (in Angstrom), charge = 0, multiplicity = 1:

       Center              X                  Y                   Z               Mass       
    ------------   -----------------  -----------------  -----------------  -----------------
           H         -2.323933822053     0.050187648122     0.378651757384     1.007825032070
           H         -2.182933822053     1.678187648122    -0.241348242616     1.007825032070
           H         -1.884933822053     0.314187648122    -1.291348242616     1.007825032070
           C         -1.785933822053     0.685187648122    -0.293348242616    12.000000000000
           H          0.241066177947     1.341187648122    -0.571348242616     1.007825032070
           H         -0.196933822053     1.078187648122     1.099651757384     1.007825032070
           C         -0.296933822053     0.706187648122     0.101651757384    12.000000000000
           H         -0.139933822053    -1.313812351878     0.815651757384     1.007825032070
           H          0.022066177947    -1.157812351878    -0.916348242616     1.007825032070
           C          0.275066177947    -0.721812351878     0.026651757384    12.000000000000
           H          2.204066177947    -1.662812351878     0.121651757384     1.007825032070
           H          2.060066177947    -0.233812351878     1.117651757384     1.007825032070
           H          2.222066177947    -0.078812351878    -0.615348242616     1.007825032070
           C          1.806066177947    -0.670812351878     0.173651757384    12.000000000000

  Nuclear repulsion =  131.842550951576925
  Reference energy  = -157.293776116535980

  ==> Basis Set <==

  Basis Set: 6-31G(D)
    Number of shells: 44
    Number of basis function: 80
    Number of Cartesian functions: 80
    Spherical Harmonics?: false
    Max angular momentum: 2

  ==> CGRSolver (by Rob Parrish) <==

   Number of roots    =         1
   Preconditioning    =    JACOBI
   Convergence cutoff =     1E-06
   Maximum iterations =       100

  ==> CPHFRHamiltonian (by Rob Parrish) <== 

  ==> DFJK: Density-Fitted J/K Matrices <==

    J tasked:                  Yes
    K tasked:                  Yes
    wK tasked:                  No
    OpenMP threads:              1
    Integrals threads:           1
    Memory (MB):               715
    Algorithm:                Core
    Integral Cache:           NONE
    Schwarz Cutoff:          1E-12
    Fitting Condition:       1E-12

   => Auxiliary Basis Set <=

  Basis Set: 
    Number of shells: 186
    Number of basis function: 574
    Number of Cartesian functions: 574
    Spherical Harmonics?: false
    Max angular momentum: 3

  ==> CPHF Iterations <==

  => Iterations <=

             Iter  Converged  Remaining    Residual
  CGR           1          0          1   7.257E-02
  CGR           2          0          1   8.696E-03
  CGR           3          0          1   2.772E-03
  CGR           4          0          1   3.546E-04
  CGR           5          0          1   5.477E-05
  CGR           6          0          1   1.020E-05
  CGR           7          0          1   2.081E-06
  CGR           8          1          0   4.443E-07

    CGRSolver converged.

  ==> DFCorrGrad: Density-Fitted Correlated Gradients <==

    OpenMP threads:              1
    Integrals threads:           1
    Memory (MB):               715
    Schwarz Cutoff:          0E+00
    Fitting Condition:       1E-12

   => Auxiliary Basis Set <=

  Basis Set: 
    Number of shells: 186
    Number of basis function: 510
    Number of Cartesian functions: 574
    Spherical Harmonics?: true
    Max angular momentum: 3

	-----------------------------------------------------------
	 ==================> DF-MP2 Energies <==================== 
	-----------------------------------------------------------
	 Reference Energy          =    -157.2937761165359802 [Eh]
	 Singles Energy            =      -0.0000000000000000 [Eh]
	 Same-Spin Energy          =      -0.1243541580614087 [Eh]
	 Opposite-Spin Energy      =      -0.4201427338723571 [Eh]
	 Correlation Energy        =      -0.5444968919337658 [Eh]
	 Total Energy              =    -157.8382730084697414 [Eh]
	-----------------------------------------------------------
	 ================> DF-SCS-MP2 Energies <================== 
	-----------------------------------------------------------
	 SCS Same-Spin Scale       =       0.3333333333333333 [-]
	 SCS Opposite-Spin Scale   =       1.2000000000000000 [-]
	 SCS Same-Spin Energy      =      -0.0414513860204696 [Eh]
	 SCS Opposite-Spin Energy  =      -0.5041712806468285 [Eh]
	 SCS Correlation Energy    =      -0.5456226666672981 [Eh]
	 SCS Total Energy          =    -157.8393987832032792 [Eh]
	-----------------------------------------------------------


  -Total Gradient:
     Atom            X                  Y                   Z
    ------   -----------------  -----------------  -----------------
       1        0.010855784100     0.009389919027    -0.008939123619
       2        0.010475505679    -0.013604009976     0.000387292952
       3        0.004200347750     0.005489948874     0.015455005635
       4       -0.026927768306    -0.007486542975    -0.009348794354
       5       -0.009769357920    -0.011490493187     0.008925618264
       6       -0.004364292260    -0.008322993679    -0.015494711867
       7        0.024346012075     0.032899542013     0.011433517104
       8        0.008935506347     0.011373108326    -0.010501967063
       9        0.005909127784     0.008941807046     0.014855698345
      10       -0.024707501555    -0.033663379140    -0.006415120553
      11       -0.010648406223     0.013979039450     0.000056131374
      12       -0.006552021275    -0.006200215941    -0.013347084882
      13       -0.008528194565    -0.008270221089     0.010789225691
      14        0.026775258369     0.006964491253     0.002144312972


			-----------------------------------------
			 OPTKING 2.0: for geometry optimizations 
			  - R.A. King,  Bethel University        
			-----------------------------------------

	Internal coordinates to be generated automatically.
	Detected frag 1 with atoms:  1 2 3 4 5 6 7 8 9 10 11 12 13 14
	---Fragment 1 Bond Connectivity---
	 1 : 4
	 2 : 4
	 3 : 4
	 4 : 1 2 3 7
	 5 : 7
	 6 : 7
	 7 : 4 5 6 10
	 8 : 10
	 9 : 10
	 10 : 7 8 9 14
	 11 : 14
	 12 : 14
	 13 : 14
	 14 : 10 11 12 13

	Assuming in current code that numbering for constraints corresponds to unified fragment.
	Fixed dihedral atom list: 
	     4     7    10    14
	---Fragment 1 Geometry and Gradient---
	 H          -4.3915984746        0.0948409102        0.7155481212
	 H          -4.1251470899        3.1713150545       -0.4560820812
	 H          -3.5620087023        0.5937286093       -2.4402945207
	 C          -3.3749258151        1.2948170046       -0.5543478401
	 H           0.4555490562        2.5344773478       -1.0796917050
	 H          -0.3721509900        2.0374793748        2.0780406630
	 C          -0.5611236033        1.3345012534        0.1920939824
	 H          -0.2644366004       -2.4827455351        1.5413584413
	 H           0.0416990331       -2.1879482583       -1.7316472209
	 C           0.5197997447       -1.3640276644        0.0503645224
	 H           4.1650814551       -3.1422599554        0.2298885050
	 H           3.8929608919       -0.4418413115        2.1120557334
	 H           4.1990965255       -0.1489337609       -1.1628396549
	 C           3.4129704542       -1.2676516316        0.3281542640
	             0.0108557841        0.0093899190       -0.0089391236
	             0.0104755057       -0.0136040100        0.0003872930
	             0.0042003478        0.0054899489        0.0154550056
	            -0.0269277683       -0.0074865430       -0.0093487944
	            -0.0097693579       -0.0114904932        0.0089256183
	            -0.0043642923       -0.0083229937       -0.0154947119
	             0.0243460121        0.0328995420        0.0114335171
	             0.0089355063        0.0113731083       -0.0105019671
	             0.0059091278        0.0089418070        0.0148556983
	            -0.0247075016       -0.0336633791       -0.0064151206
	            -0.0106484062        0.0139790394        0.0000561314
	            -0.0065520213       -0.0062002159       -0.0133470849
	            -0.0085281946       -0.0082702211        0.0107892257
	             0.0267752584        0.0069644913        0.0021443130

	Previous optimization step data not found.  Starting new optimization.

	---Fragment 1 Intrafragment Coordinates---
	 - Coordinate -           - BOHR/RAD -       - ANG/DEG -
	 R(1,4)           =         2.021436	       1.069698
	 R(2,4)           =         2.023298	       1.070683
	 R(3,4)           =         2.020723	       1.069320
	 R(4,7)           =         2.911397	       1.540645
	 R(5,7)           =         2.022623	       1.070326
	 R(6,7)           =         2.021555	       1.069761
	 R(7,10)          =         2.910419	       1.540128
	 R(8,10)          =         2.022281	       1.070145
	 R(9,10)          =         2.020641	       1.069277
	 R(10,14)         =         2.908074	       1.538886
	 R(11,14)         =         2.022247	       1.070127
	 R(12,14)         =         2.023526	       1.070804
	 R(13,14)         =         2.023014	       1.070533
	 B(1,4,2)         =         1.910870	     109.484805
	 B(1,4,3)         =         1.911121	     109.499161
	 B(1,4,7)         =         1.910399	     109.457783
	 B(2,4,3)         =         1.910042	     109.437340
	 B(2,4,7)         =         1.910564	     109.467262
	 B(3,4,7)         =         1.910803	     109.480971
	 B(4,7,5)         =         1.909937	     109.431343
	 B(4,7,6)         =         1.911630	     109.528316
	 B(4,7,10)        =         1.911154	     109.501062
	 B(5,7,6)         =         1.910605	     109.469614
	 B(5,7,10)        =         1.910047	     109.437654
	 B(6,7,10)        =         1.910425	     109.459295
	 B(7,10,8)        =         1.910269	     109.450369
	 B(7,10,9)        =         1.910424	     109.459258
	 B(7,10,14)       =         1.911462	     109.518713
	 B(8,10,9)        =         1.910163	     109.444286
	 B(8,10,14)       =         1.911039	     109.494480
	 B(9,10,14)       =         1.910441	     109.460188
	 B(10,14,11)      =         1.912030	     109.551222
	 B(10,14,12)      =         1.911050	     109.495090
	 B(10,14,13)      =         1.911897	     109.543617
	 B(11,14,12)      =         1.910202	     109.446539
	 B(11,14,13)      =         1.909522	     109.407534
	 B(12,14,13)      =         1.909096	     109.383119
	 D(1,4,7,5)       =         3.140997	     179.965873
	 D(1,4,7,6)       =        -1.047644	     -60.025575
	 D(1,4,7,10)      =         1.047427	      60.013132
	 D(2,4,7,5)       =        -1.047689	     -60.028143
	 D(2,4,7,6)       =         1.046856	      59.980409
	 D(2,4,7,10)      =        -3.141259	    -179.980883
	 D(3,4,7,5)       =         1.046044	      59.933911
	 D(3,4,7,6)       =         3.140588	     179.942463
	 D(3,4,7,10)      =        -1.047526	     -60.018830
	 D(4,7,10,8)      =        -1.221169	     -69.967838
	 D(4,7,10,9)      =         0.872300	      49.979108
	 D(4,7,10,14)     =         2.966839	     169.987354
	 D(5,7,10,8)      =         2.968513	     170.083286
	 D(5,7,10,9)      =        -1.221203	     -69.969767
	 D(5,7,10,14)     =         0.873336	      50.038478
	 D(6,7,10,8)      =         0.874638	      50.113088
	 D(6,7,10,9)      =         2.968108	     170.060034
	 D(6,7,10,14)     =        -1.220539	     -69.931720
	 D(7,10,14,11)    =         3.141552	     179.997695
	 D(7,10,14,12)    =         1.046573	      59.964229
	 D(7,10,14,13)    =        -1.046968	     -59.986828
	 D(8,10,14,11)    =         1.046846	      59.979867
	 D(8,10,14,12)    =        -1.048133	     -60.053599
	 D(8,10,14,13)    =         3.141511	     179.995344
	 D(9,10,14,11)    =        -1.047104	     -59.994628
	 D(9,10,14,12)    =         3.141102	     179.971905
	 D(9,10,14,13)    =         1.047561	      60.020849

	Current energy   :      -157.8382730085

	Generating empirical Hessian (Schlegel '84) for each fragment.
	Adding user-defined constraint: Fragment 1; Coordinate 49:
		Value =     2.966839; Fixed value    =     2.967060
		Force =     0.000110; Force constant =     0.500000
	Removing off-diagonal coupling between coordinate 49 and others.
	Taking RFO optimization step.
	Going to follow RFO solution 1.
	Using RFO vector 1.

	Determining step-restricting scale parameter for RS-RFO.
	Maximum step size allowed    0.10000

	 Iter      |step|        alpha        rfo_root  
	------------------------------------------------
	    0     0.21903       1.00000           1
	    1     0.16583       6.52005           1
	    2     0.12846      19.32410           1
	    3     0.10800      35.22931           1
	    4     0.10091      43.69111           1
	    5     0.10001      44.91690           1
	    6     0.10000      44.93649           1
	------------------------------------------------
	Norm of target step-size    0.10000
	Projected energy change by RFO approximation:        -0.0056444403

	Back-transformation to cartesian coordinates...
	Could not converge backtransformation.
	Using first guess instead.

	--- Internal Coordinate Step in ANG or DEG, aJ/ANG or AJ/DEG ---
	 ---------------------------------------------------------------------------
	   Coordinate                Previous        Force       Change         New 
	   ----------                --------       ------       ------       ------
	    1 R(1,4)          =      1.069698     0.137172     0.014048     1.083745
	    2 R(2,4)          =      1.070683     0.135793     0.013912     1.084595
	    3 R(3,4)          =      1.069320     0.137734     0.014105     1.083425
	    4 R(4,7)          =      1.540645    -0.016979    -0.001965     1.538680
	    5 R(5,7)          =      1.070326     0.142858     0.014605     1.084931
	    6 R(6,7)          =      1.069761     0.146299     0.014938     1.084699
	    7 R(7,10)         =      1.540128    -0.026517    -0.002995     1.537133
	    8 R(8,10)         =      1.070145     0.144175     0.014733     1.084877
	    9 R(9,10)         =      1.069277     0.149495     0.015251     1.084529
	   10 R(10,14)        =      1.538886    -0.010064    -0.001141     1.537746
	   11 R(11,14)        =      1.070127     0.139411     0.014264     1.084391
	   12 R(12,14)        =      1.070804     0.130593     0.013405     1.084208
	   13 R(13,14)        =      1.070533     0.130495     0.013397     1.083930
	   14 B(1,4,2)        =    109.484805    -0.000303    -0.534084   108.950721
	   15 B(1,4,3)        =    109.499161    -0.000216    -0.409153   109.090008
	   16 B(1,4,7)        =    109.457783     0.000195     0.339754   109.797537
	   17 B(2,4,3)        =    109.437340    -0.000285    -0.503599   108.933741
	   18 B(2,4,7)        =    109.467262     0.000448     0.815702   110.282964
	   19 B(3,4,7)        =    109.480971     0.000161     0.278936   109.759908
	   20 B(4,7,5)        =    109.431343    -0.000153    -0.206764   109.224578
	   21 B(4,7,6)        =    109.528316    -0.000170    -0.212575   109.315742
	   22 B(4,7,10)       =    109.501062     0.000760     1.257820   110.758883
	   23 B(5,7,6)        =    109.469614    -0.000003    -0.171900   109.297713
	   24 B(5,7,10)       =    109.437654    -0.000214    -0.330325   109.107329
	   25 B(6,7,10)       =    109.459295    -0.000220    -0.343442   109.115853
	   26 B(7,10,8)       =    109.450369    -0.000222    -0.347570   109.102799
	   27 B(7,10,9)       =    109.459258    -0.000216    -0.335829   109.123429
	   28 B(7,10,14)      =    109.518713     0.000760     1.256879   110.775592
	   29 B(8,10,9)       =    109.444286    -0.000002    -0.170338   109.273947
	   30 B(8,10,14)      =    109.494480    -0.000166    -0.203746   109.290733
	   31 B(9,10,14)      =    109.460188    -0.000154    -0.207161   109.253027
	   32 B(10,14,11)     =    109.551222     0.000439     0.798294   110.349516
	   33 B(10,14,12)     =    109.495090     0.000190     0.332387   109.827477
	   34 B(10,14,13)     =    109.543617     0.000153     0.265863   109.809480
	   35 B(11,14,12)     =    109.446539    -0.000297    -0.525208   108.921331
	   36 B(11,14,13)     =    109.407534    -0.000280    -0.495372   108.912162
	   37 B(12,14,13)     =    109.383119    -0.000207    -0.391192   108.991927
	   38 D(1,4,7,5)      =    179.965873     0.000017     0.158305   180.124178
	   39 D(1,4,7,6)      =    -60.025575    -0.000029    -0.305894   -60.331469
	   40 D(1,4,7,10)     =     60.013132    -0.000008    -0.082216    59.930916
	   41 D(2,4,7,5)      =    -60.028143     0.000022     0.219092   -59.809051
	   42 D(2,4,7,6)      =     59.980409    -0.000024    -0.245107    59.735303
	   43 D(2,4,7,10)     =   -179.980883    -0.000003    -0.021429  -180.002312
	   44 D(3,4,7,5)      =     59.933911     0.000028     0.278898    60.212809
	   45 D(3,4,7,6)      =    179.942463    -0.000018    -0.185300   179.757163
	   46 D(3,4,7,10)     =    -60.018830     0.000003     0.038378   -59.980452
	   47 D(4,7,10,8)     =    -69.967838     0.000039     0.384723   -69.583115
	   48 D(4,7,10,9)     =     49.979108    -0.000023    -0.233953    49.745155
	   49 D(4,7,10,14)    =    169.987354     0.000010     0.076951   170.064305
	   50 D(5,7,10,8)     =    170.083286     0.000006     0.070397   170.153683
	   51 D(5,7,10,9)     =    -69.969767    -0.000056    -0.548279   -70.518047
	   52 D(5,7,10,14)    =     50.038478    -0.000023    -0.237375    49.801103
	   53 D(6,7,10,8)     =     50.113088     0.000067     0.685305    50.798392
	   54 D(6,7,10,9)     =    170.060034     0.000005     0.066628   170.126663
	   55 D(6,7,10,14)    =    -69.931720     0.000038     0.377533   -69.554188
	   56 D(7,10,14,11)   =    179.997695    -0.000002    -0.018539   179.979156
	   57 D(7,10,14,12)   =     59.964229    -0.000007    -0.076468    59.887760
	   58 D(7,10,14,13)   =    -59.986828     0.000003     0.034544   -59.952284
	   59 D(8,10,14,11)   =     59.979867    -0.000023    -0.241299    59.738568
	   60 D(8,10,14,12)   =    -60.053599    -0.000028    -0.299228   -60.352828
	   61 D(8,10,14,13)   =    179.995344    -0.000019    -0.188216   179.807128
	   62 D(9,10,14,11)   =    -59.994628     0.000022     0.215692   -59.778936
	   63 D(9,10,14,12)   =    179.971905     0.000017     0.157764   180.129669
	   64 D(9,10,14,13)   =     60.020849     0.000027     0.268776    60.289625
	 ---------------------------------------------------------------------------
	 Forces used to impose fixed constraints are not included.
	  Forces zeroed: 49 

  ==> Convergence Check <==

  Measures of convergence in internal coordinates in au.
  Criteria marked as inactive (o), active & met (*), and active & unmet ( ).
  --------------------------------------------------------------------------------------------- ~
   Step     Total Energy     Delta E     MAX Force     RMS Force      MAX Disp      RMS Disp    ~
  --------------------------------------------------------------------------------------------- ~
    Convergence Criteria    1.00e-06 *    3.00e-04 *             o    1.20e-03 *             o  ~
  --------------------------------------------------------------------------------------------- ~
      1    -157.83827301   -1.58e+02      1.81e-02      7.24e-03 o    2.88e-02      1.25e-02 o  ~
  ---------------------------------------------------------------------------------------------

	Writing optimization data to binary file.
	Structure for next step:
	Cartesian Geometry (in Angstrom)
	    H    -2.3476027275   0.0510752097   0.3833017206
	    H    -2.2027597677   1.6954845985  -0.2405879328
	    H    -1.9048086001   0.3198261955  -1.3043131916
	    C    -1.7941863305   0.6921516076  -0.2929047976
	    H     0.2383874619   1.3468565203  -0.5826730707
	    H    -0.2032894836   1.0789157741   1.1098405324
	    C    -0.3060856125   0.7011390081   0.0982630038
	    H    -0.1377182245  -1.3168128896   0.8267886341
	    H     0.0281840236  -1.1608539547  -0.9276510840
	    C     0.2843137566  -0.7163407667   0.0278634698
	    H     2.2235431073  -1.6808408759   0.1250289348
	    H     2.0810511285  -0.2368154530   1.1292156855
	    H     2.2454067865  -0.0823398478  -0.6213393546
	    C     1.8144909733  -0.6778180524   0.1752920537
			--------------------------
			 OPTKING Finished Execution 
			--------------------------

    Structure for next step:
    Molecular point group: c1
    Full point group: C1

    Geometry (in Angstrom), charge = 0, multiplicity = 1:

    H           -2.347653464694     0.051003061099     0.383319378942
    H           -2.202810504961     1.695412449918    -0.240570274432
    H           -1.904859337357     0.319754046915    -1.304295533178
    C           -1.794237067680     0.692079459047    -0.292887139210
    H            0.238336724682     1.346784371733    -0.582655412290
    H           -0.203340220814     1.078843625546     1.109858190746
    C           -0.306136349699     0.701066859544     0.098280662198
    H           -0.137768961724    -1.316885038215     0.826806292483
    H            0.028133286377    -1.160926103319    -0.927633425580
    C            0.284263019370    -0.716412915239     0.027881128148
    H            2.223492370103    -1.680913024493     0.125046593163
    H            2.081000391275    -0.236887601567     1.129233343876
    H            2.245356049245    -0.082411996341    -0.621321696261
    C            1.814440236065    -0.677890200988     0.175309712111

gradient() will perform analytic gradient computation.
    SCF Algorithm Type (re)set to DF.

*** tstart() called on lski1497
*** at Mon Feb 20 17:20:41 2017


         ---------------------------------------------------------
                                   SCF
            by Justin Turney, Rob Parrish, and Andy Simmonett
                              RHF Reference
                        1 Threads,   1000 MiB Core
         ---------------------------------------------------------

  ==> Geometry <==

    Molecular point group: c1
    Full point group: C1

    Geometry (in Angstrom), charge = 0, multiplicity = 1:

       Center              X                  Y                   Z               Mass       
    ------------   -----------------  -----------------  -----------------  -----------------
           H         -2.347653464694     0.051003061099     0.383319378942     1.007825032070
           H         -2.202810504961     1.695412449918    -0.240570274432     1.007825032070
           H         -1.904859337357     0.319754046915    -1.304295533178     1.007825032070
           C         -1.794237067680     0.692079459047    -0.292887139210    12.000000000000
           H          0.238336724682     1.346784371733    -0.582655412290     1.007825032070
           H         -0.203340220814     1.078843625546     1.109858190746     1.007825032070
           C         -0.306136349699     0.701066859544     0.098280662198    12.000000000000
           H         -0.137768961724    -1.316885038215     0.826806292483     1.007825032070
           H          0.028133286377    -1.160926103319    -0.927633425580     1.007825032070
           C          0.284263019370    -0.716412915239     0.027881128148    12.000000000000
           H          2.223492370103    -1.680913024493     0.125046593163     1.007825032070
           H          2.081000391275    -0.236887601567     1.129233343876     1.007825032070
           H          2.245356049245    -0.082411996341    -0.621321696261     1.007825032070
           C          1.814440236065    -0.677890200988     0.175309712111    12.000000000000

  Running in c1 symmetry.

  Rotational constants: A =      0.76356  B =      0.12309  C =      0.11549 [cm^-1]
  Rotational constants: A =  22891.10165  B =   3690.19864  C =   3462.44979 [MHz]
  Nuclear repulsion =  131.079583777597662

  Charge       = 0
  Multiplicity = 1
  Electrons    = 34
  Nalpha       = 17
  Nbeta        = 17

  ==> Algorithm <==

  SCF Algorithm Type is DF.
  DIIS enabled.
  MOM disabled.
  Fractional occupation disabled.
  Guess Type is READ.
  Energy threshold   = 1.00e-10
  Density threshold  = 1.00e-10
  Integral threshold = 0.00e+00

  ==> Primary Basis <==

  Basis Set: 6-31G(D)
    Number of shells: 44
    Number of basis function: 80
    Number of Cartesian functions: 80
    Spherical Harmonics?: false
    Max angular momentum: 2

  ==> Pre-Iterations <==

   -------------------------------------------------------
    Irrep   Nso     Nmo     Nalpha   Nbeta   Ndocc  Nsocc
   -------------------------------------------------------
     A         80      80       0       0       0       0
   -------------------------------------------------------
    Total      80      80      17      17      17       0
   -------------------------------------------------------

  ==> Integral Setup <==

  ==> DFJK: Density-Fitted J/K Matrices <==

    J tasked:                  Yes
    K tasked:                  Yes
    wK tasked:                  No
    OpenMP threads:              1
    Integrals threads:           1
    Memory (MB):               715
    Algorithm:                Core
    Integral Cache:           NONE
    Schwarz Cutoff:          1E-12
    Fitting Condition:       1E-12

   => Auxiliary Basis Set <=

  Basis Set: 
    Number of shells: 186
    Number of basis function: 574
    Number of Cartesian functions: 574
    Spherical Harmonics?: false
    Max angular momentum: 3

  Minimum eigenvalue in the overlap matrix is 4.5730004221E-03.
  Using Symmetric Orthogonalization.
  SCF Guess was Projection but file not found.
  Switching over to SAD guess.

  SCF Guess: Superposition of Atomic Densities via on-the-fly atomic UHF.

  ==> Iterations <==

                           Total Energy        Delta E     RMS |[F,P]|

   @DF-RHF iter   0:  -158.87496003093489   -1.58875e+02   4.65703e-02 
   @DF-RHF iter   1:  -157.20851238753588    1.66645e+00   3.90145e-03 
   @DF-RHF iter   2:  -157.28803302571717   -7.95206e-02   1.10773e-03 DIIS
   @DF-RHF iter   3:  -157.29618574613878   -8.15272e-03   2.58676e-04 DIIS
   @DF-RHF iter   4:  -157.29655912648113   -3.73380e-04   7.55224e-05 DIIS
   @DF-RHF iter   5:  -157.29659538065007   -3.62542e-05   1.25426e-05 DIIS
   @DF-RHF iter   6:  -157.29659655964767   -1.17900e-06   2.42625e-06 DIIS
   @DF-RHF iter   7:  -157.29659658761128   -2.79636e-08   7.26983e-07 DIIS
   @DF-RHF iter   8:  -157.29659659016463   -2.55335e-09   9.84757e-08 DIIS
   @DF-RHF iter   9:  -157.29659659024784   -8.32188e-11   2.17476e-08 DIIS
   @DF-RHF iter  10:  -157.29659659025239   -4.54747e-12   3.79324e-09 DIIS
   @DF-RHF iter  11:  -157.29659659025222    1.70530e-13   7.92484e-10 DIIS
   @DF-RHF iter  12:  -157.29659659025216    5.68434e-14   2.27574e-10 DIIS
   @DF-RHF iter  13:  -157.29659659025245   -2.84217e-13   6.38266e-11 DIIS

  ==> Post-Iterations <==

    Orbital Energies (a.u.)
    -----------------------

    Doubly Occupied:                                                      

       1A    -11.212836     2A    -11.212252     3A    -11.206198  
       4A    -11.206186     5A     -1.068954     6A     -0.978690  
       7A     -0.859089     8A     -0.788709     9A     -0.643736  
      10A     -0.583989    11A     -0.575299    12A     -0.567193  
      13A     -0.512491    14A     -0.500322    15A     -0.469942  
      16A     -0.465192    17A     -0.447416  

    Virtual:                                                              

      18A      0.231638    19A      0.262785    20A      0.284869  
      21A      0.296178    22A      0.322228    23A      0.337444  
      24A      0.338963    25A      0.342428    26A      0.354704  
      27A      0.358110    28A      0.418172    29A      0.422186  
      30A      0.435858    31A      0.700371    32A      0.706681  
      33A      0.751225    34A      0.753280    35A      0.763664  
      36A      0.847959    37A      0.862171    38A      0.928965  
      39A      0.954607    40A      1.023451    41A      1.066171  
      42A      1.103901    43A      1.142843    44A      1.173937  
      45A      1.192561    46A      1.198737    47A      1.207062  
      48A      1.212848    49A      1.235866    50A      1.237284  
      51A      1.245304    52A      1.278431    53A      1.293819  
      54A      1.613814    55A      1.683879    56A      1.719087  
      57A      1.721999    58A      1.923331    59A      1.931886  
      60A      2.153688    61A      2.203229    62A      2.207796  
      63A      2.286479    64A      2.300271    65A      2.335257  
      66A      2.397193    67A      2.518225    68A      2.610348  
      69A      2.614634    70A      2.645121    71A      2.733013  
      72A      2.735006    73A      2.756902    74A      2.887029  
      75A      3.011058    76A      3.109966    77A      4.568518  
      78A      4.676564    79A      4.794598    80A      4.946000  

    Final Occupation by Irrep:
              A 
    DOCC [    17 ]

  Energy converged.

  @DF-RHF Final Energy:  -157.29659659025245

   => Energetics <=

    Nuclear Repulsion Energy =            131.0795837775976622
    One-Electron Energy =                -470.1553712316578526
    Two-Electron Energy =                 181.7791908638080827
    DFT Exchange-Correlation Energy =       0.0000000000000000
    Empirical Dispersion Energy =           0.0000000000000000
    PCM Polarization Energy =               0.0000000000000000
    EFP Energy =                            0.0000000000000000
    Total Energy =                       -157.2965965902521361


  Saving occupied orbitals to File 180.

*** tstop() called on lski1497 at Mon Feb 20 17:20:49 2017
Module time:
	user time   =       4.81 seconds =       0.08 minutes
	system time =       0.13 seconds =       0.00 minutes
	total time  =          8 seconds =       0.13 minutes
Total time:
	user time   =      26.98 seconds =       0.45 minutes
	system time =       0.83 seconds =       0.01 minutes
	total time  =         39 seconds =       0.65 minutes


Properties will be evaluated at   0.000000,   0.000000,   0.000000 Bohr

Properties computed using the SCF density matrix

  Nuclear Dipole Moment: (a.u.)
     X:     0.0186      Y:     0.0129      Z:    -0.0958

  Electronic Dipole Moment: (a.u.)
     X:    -0.0199      Y:    -0.0139      Z:     0.1024

  Dipole Moment: (a.u.)
     X:    -0.0013      Y:    -0.0010      Z:     0.0066     Total:     0.0068

  Dipole Moment: (Debye)
     X:    -0.0032      Y:    -0.0026      Z:     0.0168     Total:     0.0173


  //>>>>>>>>>>>>>>>>>>>>>>>>>>>>>>>>>>>//
  //               DFMP2               //
  //<<<<<<<<<<<<<<<<<<<<<<<<<<<<<<<<<<<//


*** tstart() called on lski1497
*** at Mon Feb 20 17:20:49 2017


*** tstop() called on lski1497 at Mon Feb 20 17:20:49 2017
Module time:
	user time   =       0.54 seconds =       0.01 minutes
	system time =       0.00 seconds =       0.00 minutes
	total time  =          0 seconds =       0.00 minutes
Total time:
	user time   =      27.54 seconds =       0.46 minutes
	system time =       0.84 seconds =       0.01 minutes
	total time  =         39 seconds =       0.65 minutes
	 --------------------------------------------------------
	                          DF-MP2                         
	      2nd-Order Density-Fitted Moller-Plesset Theory     
	              RMP2 Wavefunction,   1 Threads             
	                                                         
	        Rob Parrish, Justin Turney, Andy Simmonett,      
	           Ed Hohenstein, and C. David Sherrill          
	 --------------------------------------------------------

   => Auxiliary Basis Set <=

  Basis Set: 
    Number of shells: 132
    Number of basis function: 364
    Number of Cartesian functions: 414
    Spherical Harmonics?: true
    Max angular momentum: 3

	 --------------------------------------------------------
	                 NBF =    80, NAUX =   364
	 --------------------------------------------------------
	   CLASS    FOCC     OCC    AOCC    AVIR     VIR    FVIR
	   PAIRS       0      17      17      63      63       0
	 --------------------------------------------------------

DGAS Warning! /src/lib/libfock/apps.cc:80 is not currently checking restricted

         ------------------------------------------------------------
                                     CPHF                           
                                  Rob Parrish                       
         ------------------------------------------------------------

  ==> Geometry <==

    Molecular point group: c1
    Full point group: C1

    Geometry (in Angstrom), charge = 0, multiplicity = 1:

       Center              X                  Y                   Z               Mass       
    ------------   -----------------  -----------------  -----------------  -----------------
           H         -2.347653464694     0.051003061099     0.383319378942     1.007825032070
           H         -2.202810504961     1.695412449918    -0.240570274432     1.007825032070
           H         -1.904859337357     0.319754046915    -1.304295533178     1.007825032070
           C         -1.794237067680     0.692079459047    -0.292887139210    12.000000000000
           H          0.238336724682     1.346784371733    -0.582655412290     1.007825032070
           H         -0.203340220814     1.078843625546     1.109858190746     1.007825032070
           C         -0.306136349699     0.701066859544     0.098280662198    12.000000000000
           H         -0.137768961724    -1.316885038215     0.826806292483     1.007825032070
           H          0.028133286377    -1.160926103319    -0.927633425580     1.007825032070
           C          0.284263019370    -0.716412915239     0.027881128148    12.000000000000
           H          2.223492370103    -1.680913024493     0.125046593163     1.007825032070
           H          2.081000391275    -0.236887601567     1.129233343876     1.007825032070
           H          2.245356049245    -0.082411996341    -0.621321696261     1.007825032070
           C          1.814440236065    -0.677890200988     0.175309712111    12.000000000000

  Nuclear repulsion =  131.079583777597662
  Reference energy  = -157.296596590252449

  ==> Basis Set <==

  Basis Set: 6-31G(D)
    Number of shells: 44
    Number of basis function: 80
    Number of Cartesian functions: 80
    Spherical Harmonics?: false
    Max angular momentum: 2

  ==> CGRSolver (by Rob Parrish) <==

   Number of roots    =         1
   Preconditioning    =    JACOBI
   Convergence cutoff =     1E-06
   Maximum iterations =       100

  ==> CPHFRHamiltonian (by Rob Parrish) <== 

  ==> DFJK: Density-Fitted J/K Matrices <==

    J tasked:                  Yes
    K tasked:                  Yes
    wK tasked:                  No
    OpenMP threads:              1
    Integrals threads:           1
    Memory (MB):               715
    Algorithm:                Core
    Integral Cache:           NONE
    Schwarz Cutoff:          1E-12
    Fitting Condition:       1E-12

   => Auxiliary Basis Set <=

  Basis Set: 
    Number of shells: 186
    Number of basis function: 574
    Number of Cartesian functions: 574
    Spherical Harmonics?: false
    Max angular momentum: 3

  ==> CPHF Iterations <==

  => Iterations <=

             Iter  Converged  Remaining    Residual
  CGR           1          0          1   7.327E-02
  CGR           2          0          1   8.899E-03
  CGR           3          0          1   2.833E-03
  CGR           4          0          1   3.570E-04
  CGR           5          0          1   5.699E-05
  CGR           6          0          1   1.055E-05
  CGR           7          0          1   2.075E-06
  CGR           8          1          0   4.339E-07

    CGRSolver converged.

  ==> DFCorrGrad: Density-Fitted Correlated Gradients <==

    OpenMP threads:              1
    Integrals threads:           1
    Memory (MB):               715
    Schwarz Cutoff:          0E+00
    Fitting Condition:       1E-12

   => Auxiliary Basis Set <=

  Basis Set: 
    Number of shells: 186
    Number of basis function: 510
    Number of Cartesian functions: 574
    Spherical Harmonics?: true
    Max angular momentum: 3

	-----------------------------------------------------------
	 ==================> DF-MP2 Energies <==================== 
	-----------------------------------------------------------
	 Reference Energy          =    -157.2965965902524488 [Eh]
	 Singles Energy            =      -0.0000000000000000 [Eh]
	 Same-Spin Energy          =      -0.1243183541883333 [Eh]
	 Opposite-Spin Energy      =      -0.4214493216919415 [Eh]
	 Correlation Energy        =      -0.5457676758802747 [Eh]
	 Total Energy              =    -157.8423642661327335 [Eh]
	-----------------------------------------------------------
	 ================> DF-SCS-MP2 Energies <================== 
	-----------------------------------------------------------
	 SCS Same-Spin Scale       =       0.3333333333333333 [-]
	 SCS Opposite-Spin Scale   =       1.2000000000000000 [-]
	 SCS Same-Spin Energy      =      -0.0414394513961111 [Eh]
	 SCS Opposite-Spin Energy  =      -0.5057391860303297 [Eh]
	 SCS Correlation Energy    =      -0.5471786374264409 [Eh]
	 SCS Total Energy          =    -157.8437752276788899 [Eh]
	-----------------------------------------------------------


  -Total Gradient:
     Atom            X                  Y                   Z
    ------   -----------------  -----------------  -----------------
       1        0.005254243443     0.003613276729    -0.002765481771
       2        0.004936420642    -0.004629595801     0.000376438680
       3        0.002799156474     0.002156187675     0.005947501515
       4       -0.015860461832    -0.004255104868    -0.005818887195
       5       -0.004476780081    -0.005801234513     0.002069112738
       6       -0.003466221143    -0.005163570611    -0.005305636760
       7        0.015049599993     0.019172012253     0.006899688744
       8        0.004822107617     0.006051478256    -0.002376899055
       9        0.003325785456     0.005038332987     0.005027934958
      10       -0.015306795445    -0.019560261126    -0.003682318670
      11       -0.004945080149     0.004775839547    -0.000208797483
      12       -0.003707039352    -0.002476614503    -0.004927766363
      13       -0.004345506758    -0.003159356389     0.003805308099
      14        0.015920571135     0.004238610366     0.000959802565


			-----------------------------------------
			 OPTKING 2.0: for geometry optimizations 
			  - R.A. King,  Bethel University        
			-----------------------------------------

	Previous internal coordinate definitions found.
	---Fragment 1 Geometry and Gradient---
	 H          -4.4364221032        0.0963818174        0.7243686476
	 H          -4.1627085770        3.2038652126       -0.4546119344
	 H          -3.5996624693        0.6042475786       -2.4647613541
	 C          -3.3906166754        1.3078406398       -0.5534764810
	 H           0.4503911371        2.5450536226       -1.1010591591
	 H          -0.3842573291        2.0387189925        2.0973280269
	 C          -0.5785138603        1.3248243654        0.1857235357
	 H          -0.2603456073       -2.4885520707        1.5624374577
	 H           0.0531642065       -2.1938323958       -1.7529731261
	 C           0.5371792563       -1.3538242079        0.0526876965
	 H           4.2017916381       -3.1764652695        0.2363038149
	 H           3.9325208219       -0.4476526912        2.1339417600
	 H           4.2431080039       -0.1557361031       -1.1741278464
	 C           3.4287951307       -1.2810268280        0.3312873443
	             0.0052542434        0.0036132767       -0.0027654818
	             0.0049364206       -0.0046295958        0.0003764387
	             0.0027991565        0.0021561877        0.0059475015
	            -0.0158604618       -0.0042551049       -0.0058188872
	            -0.0044767801       -0.0058012345        0.0020691127
	            -0.0034662211       -0.0051635706       -0.0053056368
	             0.0150496000        0.0191720123        0.0068996887
	             0.0048221076        0.0060514783       -0.0023768991
	             0.0033257855        0.0050383330        0.0050279350
	            -0.0153067954       -0.0195602611       -0.0036823187
	            -0.0049450801        0.0047758395       -0.0002087975
	            -0.0037070394       -0.0024766145       -0.0049277664
	            -0.0043455068       -0.0031593564        0.0038053081
	             0.0159205711        0.0042386104        0.0009598026

	---Fragment 1 Intrafragment Coordinates---
	 - Coordinate -           - BOHR/RAD -       - ANG/DEG -
	 R(1,4)           =         2.047982	       1.083745
	 R(2,4)           =         2.049588	       1.084595
	 R(3,4)           =         2.047377	       1.083425
	 R(4,7)           =         2.907684	       1.538680
	 R(5,7)           =         2.050223	       1.084931
	 R(6,7)           =         2.049784	       1.084699
	 R(7,10)          =         2.904760	       1.537133
	 R(8,10)          =         2.050121	       1.084877
	 R(9,10)          =         2.049462	       1.084529
	 R(10,14)         =         2.905918	       1.537746
	 R(11,14)         =         2.049203	       1.084391
	 R(12,14)         =         2.048857	       1.084208
	 R(13,14)         =         2.048331	       1.083930
	 B(1,4,2)         =         1.901549	     108.950721
	 B(1,4,3)         =         1.903980	     109.090008
	 B(1,4,7)         =         1.916329	     109.797537
	 B(2,4,3)         =         1.901252	     108.933741
	 B(2,4,7)         =         1.924801	     110.282964
	 B(3,4,7)         =         1.915672	     109.759908
	 B(4,7,5)         =         1.906329	     109.224578
	 B(4,7,6)         =         1.907920	     109.315742
	 B(4,7,10)        =         1.933107	     110.758883
	 B(5,7,6)         =         1.907605	     109.297713
	 B(5,7,10)        =         1.904282	     109.107329
	 B(6,7,10)        =         1.904431	     109.115853
	 B(7,10,8)        =         1.904203	     109.102799
	 B(7,10,9)        =         1.904563	     109.123429
	 B(7,10,14)       =         1.933399	     110.775592
	 B(8,10,9)        =         1.907190	     109.273947
	 B(8,10,14)       =         1.907483	     109.290733
	 B(9,10,14)       =         1.906825	     109.253027
	 B(10,14,11)      =         1.925962	     110.349516
	 B(10,14,12)      =         1.916851	     109.827477
	 B(10,14,13)      =         1.916537	     109.809480
	 B(11,14,12)      =         1.901036	     108.921331
	 B(11,14,13)      =         1.900876	     108.912162
	 B(12,14,13)      =         1.902268	     108.991927
	 D(1,4,7,5)       =        -3.139425	    -179.875822
	 D(1,4,7,6)       =        -1.052983	     -60.331469
	 D(1,4,7,10)      =         1.045992	      59.930916
	 D(2,4,7,5)       =        -1.043865	     -59.809051
	 D(2,4,7,6)       =         1.042578	      59.735303
	 D(2,4,7,10)      =         3.141552	     179.997688
	 D(3,4,7,5)       =         1.050912	      60.212809
	 D(3,4,7,6)       =         3.137354	     179.757163
	 D(3,4,7,10)      =        -1.046856	     -59.980452
	 D(4,7,10,8)      =        -1.214454	     -69.583115
	 D(4,7,10,9)      =         0.868217	      49.745155
	 D(4,7,10,14)     =         2.968182	     170.064305
	 D(5,7,10,8)      =         2.969742	     170.153683
	 D(5,7,10,9)      =        -1.230772	     -70.518047
	 D(5,7,10,14)     =         0.869193	      49.801103
	 D(6,7,10,8)      =         0.886599	      50.798392
	 D(6,7,10,9)      =         2.969270	     170.126663
	 D(6,7,10,14)     =        -1.213950	     -69.554188
	 D(7,10,14,11)    =         3.141229	     179.979156
	 D(7,10,14,12)    =         1.045239	      59.887760
	 D(7,10,14,13)    =        -1.046365	     -59.952284
	 D(8,10,14,11)    =         1.042635	      59.738568
	 D(8,10,14,12)    =        -1.053356	     -60.352828
	 D(8,10,14,13)    =         3.138226	     179.807128
	 D(9,10,14,11)    =        -1.043339	     -59.778936
	 D(9,10,14,12)    =        -3.139330	    -179.870331
	 D(9,10,14,13)    =         1.052252	      60.289625

	Current energy   :      -157.8423642661

	Energy change for the previous step:
		Projected    :        -0.0056444403
		Actual       :        -0.0040912577

	Performing BFGS update.
	Previous computed or guess Hessian on step 1.
	Steps to be used in Hessian update: 1
	Adding user-defined constraint: Fragment 1; Coordinate 49:
		Value =     2.968182; Fixed value    =     2.967060
		Force =    -0.000589; Force constant =     0.525000
	Removing off-diagonal coupling between coordinate 49 and others.
	Taking RFO optimization step.
	Going to follow RFO solution 1.
	Using RFO vector 1.

	Determining step-restricting scale parameter for RS-RFO.
	Maximum step size allowed    0.10000

	 Iter      |step|        alpha        rfo_root  
	------------------------------------------------
	    0     0.17892       1.00000           1
	    1     0.14256       6.03517           1
	    2     0.11514      15.88902           1
	    3     0.10296      24.01828           1
	    4     0.10015      26.45832           1
	    5     0.10000      26.59789           1
	------------------------------------------------
	Norm of target step-size    0.10000
	Projected energy change by RFO approximation:        -0.0032616946

	Back-transformation to cartesian coordinates...
	Successfully converged to displaced geometry.

	--- Internal Coordinate Step in ANG or DEG, aJ/ANG or AJ/DEG ---
	 ---------------------------------------------------------------------------
	   Coordinate                Previous        Force       Change         New 
	   ----------                --------       ------       ------       ------
	    1 R(1,4)          =      1.083745     0.053931     0.008326     1.092071
	    2 R(2,4)          =      1.084595     0.050455     0.007526     1.092121
	    3 R(3,4)          =      1.083425     0.054203     0.008373     1.091799
	    4 R(4,7)          =      1.538680    -0.027756    -0.007568     1.531112
	    5 R(5,7)          =      1.084931     0.057655     0.009017     1.093949
	    6 R(6,7)          =      1.084699     0.058287     0.009041     1.093740
	    7 R(7,10)         =      1.537133    -0.025813    -0.006410     1.530722
	    8 R(8,10)         =      1.084877     0.057471     0.008923     1.093800
	    9 R(9,10)         =      1.084529     0.059980     0.009334     1.093863
	   10 R(10,14)        =      1.537746    -0.024366    -0.006865     1.530881
	   11 R(11,14)        =      1.084391     0.051682     0.007691     1.092082
	   12 R(12,14)        =      1.084208     0.051529     0.007986     1.092194
	   13 R(13,14)        =      1.083930     0.051574     0.008003     1.091933
	   14 B(1,4,2)        =    108.950721    -0.000202    -0.738180   108.212541
	   15 B(1,4,3)        =    109.090008    -0.000181    -0.776647   108.313362
	   16 B(1,4,7)        =    109.797537     0.000166     0.678777   110.476314
	   17 B(2,4,3)        =    108.933741    -0.000190    -0.689679   108.244062
	   18 B(2,4,7)        =    110.282964     0.000253     0.863281   111.146246
	   19 B(3,4,7)        =    109.759908     0.000144     0.597079   110.356986
	   20 B(4,7,5)        =    109.224578    -0.000059    -0.033422   109.191156
	   21 B(4,7,6)        =    109.315742    -0.000057     0.085689   109.401431
	   22 B(4,7,10)       =    110.758883     0.000385     1.246074   112.004957
	   23 B(5,7,6)        =    109.297713    -0.000086    -1.047890   108.249823
	   24 B(5,7,10)       =    109.107329    -0.000092    -0.159473   108.947856
	   25 B(6,7,10)       =    109.115853    -0.000096    -0.145941   108.969912
	   26 B(7,10,8)       =    109.102799    -0.000096    -0.141108   108.961691
	   27 B(7,10,9)       =    109.123429    -0.000093    -0.167125   108.956304
	   28 B(7,10,14)      =    110.775592     0.000383     1.236191   112.011783
	   29 B(8,10,9)       =    109.273947    -0.000085    -1.040733   108.233214
	   30 B(8,10,14)      =    109.290733    -0.000055     0.100170   109.390904
	   31 B(9,10,14)      =    109.253027    -0.000060    -0.042642   109.210385
	   32 B(10,14,11)     =    110.349516     0.000245     0.824429   111.173944
	   33 B(10,14,12)     =    109.827477     0.000161     0.655396   110.482873
	   34 B(10,14,13)     =    109.809480     0.000136     0.567211   110.376690
	   35 B(11,14,12)     =    108.921331    -0.000197    -0.716422   108.204909
	   36 B(11,14,13)     =    108.912162    -0.000185    -0.670853   108.241309
	   37 B(12,14,13)     =    108.991927    -0.000171    -0.724762   108.267165
	   38 D(1,4,7,5)      =   -179.875822     0.000016     0.470839  -179.404983
	   39 D(1,4,7,6)      =    -60.331469    -0.000024    -0.770560   -61.102028
	   40 D(1,4,7,10)     =     59.930916    -0.000005    -0.099063    59.831854
	   41 D(2,4,7,5)      =    -59.809051     0.000019     0.546015   -59.263036
	   42 D(2,4,7,6)      =     59.735303    -0.000021    -0.695383    59.039919
	   43 D(2,4,7,10)     =    179.997688    -0.000001    -0.023887   179.973801
	   44 D(3,4,7,5)      =     60.212809     0.000022     0.626571    60.839380
	   45 D(3,4,7,6)      =    179.757163    -0.000018    -0.614828   179.142335
	   46 D(3,4,7,10)     =    -59.980452     0.000002     0.056669   -59.923783
	   47 D(4,7,10,8)     =    -69.583115     0.000031     0.923723   -68.659392
	   48 D(4,7,10,9)     =     49.745155    -0.000019    -0.511632    49.233524
	   49 D(4,7,10,14)    =    170.064305     0.000006     0.107525   170.171830
	   50 D(5,7,10,8)     =    170.153683     0.000006     0.282862   170.436545
	   51 D(5,7,10,9)     =    -70.518047    -0.000043    -1.152493   -71.670540
	   52 D(5,7,10,14)    =     49.801103    -0.000019    -0.533336    49.267767
	   53 D(6,7,10,8)     =     50.798392     0.000055     1.725413    52.523805
	   54 D(6,7,10,9)     =    170.126663     0.000006     0.290058   170.416720
	   55 D(6,7,10,14)    =    -69.554188     0.000030     0.909215   -68.644973
	   56 D(7,10,14,11)   =    179.979156    -0.000001    -0.011738   179.967418
	   57 D(7,10,14,12)   =     59.887760    -0.000004    -0.075242    59.812518
	   58 D(7,10,14,13)   =    -59.952284     0.000002     0.049827   -59.902457
	   59 D(8,10,14,11)   =     59.738568    -0.000021    -0.691942    59.046626
	   60 D(8,10,14,12)   =    -60.352828    -0.000024    -0.755446   -61.108274
	   61 D(8,10,14,13)   =    179.807128    -0.000018    -0.630377   179.176751
	   62 D(9,10,14,11)   =    -59.778936     0.000019     0.537584   -59.241352
	   63 D(9,10,14,12)   =   -179.870331     0.000016     0.474079  -179.396252
	   64 D(9,10,14,13)   =     60.289625     0.000021     0.599148    60.888773
	 ---------------------------------------------------------------------------
	 Forces used to impose fixed constraints are not included.
	  Forces zeroed: 49 

  ==> Convergence Check <==

  Measures of convergence in internal coordinates in au.
  Criteria marked as inactive (o), active & met (*), and active & unmet ( ).
  ---------------------------------------------------------------------------------------------
   Step     Total Energy     Delta E     MAX Force     RMS Force      MAX Disp      RMS Disp   
  ---------------------------------------------------------------------------------------------
    Convergence Criteria    1.00e-06 *    3.00e-04 *             o    1.20e-03 *             o
  ---------------------------------------------------------------------------------------------
      2    -157.84236427   -4.09e-03      7.28e-03      3.18e-03 o    3.01e-02      1.25e-02 o  ~
  ---------------------------------------------------------------------------------------------

	Writing optimization data to binary file.
	Structure for next step:
	Cartesian Geometry (in Angstrom)
	    H    -2.3677882155   0.0437600906   0.3812286713
	    H    -2.2228444396   1.6935366480  -0.2417489683
	    H    -1.9249201218   0.3154698262  -1.3110994267
	    C    -1.7992412431   0.6882000996  -0.2926193808
	    H     0.2293642816   1.3518883888  -0.5867156305
	    H    -0.2084680331   1.0828072191   1.1098336839
	    C    -0.3177062798   0.6928684651   0.0938211940
	    H    -0.1330856451  -1.3208753769   0.8275394603
	    H     0.0381921646  -1.1653813377  -0.9297695429
	    C     0.2961483175  -0.7079135534   0.0297709905
	    H     2.2427205023  -1.6797789108   0.1313492250
	    H     2.1002484200  -0.2302101427   1.1359703298
	    H     2.2661741232  -0.0775836520  -0.6195974729
	    C     1.8194223390  -0.6741707704   0.1784086880
			--------------------------
			 OPTKING Finished Execution 
			--------------------------

    Structure for next step:
    Molecular point group: c1
    Full point group: C1

    Geometry (in Angstrom), charge = 0, multiplicity = 1:

    H           -2.367843726021     0.043733396989     0.381077802880
    H           -2.222899950132     1.693509954300    -0.241899836745
    H           -1.924975632312     0.315443132512    -1.311250295118
    C           -1.799296753649     0.688173405941    -0.292770249282
    H            0.229308771079     1.351861695163    -0.586866498933
    H           -0.208523543701     1.082780525495     1.109682815463
    C           -0.317761790356     0.692841771466     0.093670325560
    H           -0.133141155689    -1.320902070512     0.827388591816
    H            0.038136654087    -1.165408031350    -0.929920411338
    C            0.296092806949    -0.707940247027     0.029620122105
    H            2.242664991700    -1.679805604418     0.131198356514
    H            2.100192909404    -0.230236836321     1.135819461396
    H            2.266118612684    -0.077610345653    -0.619748341325
    C            1.819366828430    -0.674197464059     0.178257819523

gradient() will perform analytic gradient computation.
    SCF Algorithm Type (re)set to DF.

*** tstart() called on lski1497
*** at Mon Feb 20 17:21:12 2017


         ---------------------------------------------------------
                                   SCF
            by Justin Turney, Rob Parrish, and Andy Simmonett
                              RHF Reference
                        1 Threads,   1000 MiB Core
         ---------------------------------------------------------

  ==> Geometry <==

    Molecular point group: c1
    Full point group: C1

    Geometry (in Angstrom), charge = 0, multiplicity = 1:

       Center              X                  Y                   Z               Mass       
    ------------   -----------------  -----------------  -----------------  -----------------
           H         -2.367843726021     0.043733396989     0.381077802880     1.007825032070
           H         -2.222899950132     1.693509954300    -0.241899836745     1.007825032070
           H         -1.924975632312     0.315443132512    -1.311250295118     1.007825032070
           C         -1.799296753649     0.688173405941    -0.292770249282    12.000000000000
           H          0.229308771079     1.351861695163    -0.586866498933     1.007825032070
           H         -0.208523543701     1.082780525495     1.109682815463     1.007825032070
           C         -0.317761790356     0.692841771466     0.093670325560    12.000000000000
           H         -0.133141155689    -1.320902070512     0.827388591816     1.007825032070
           H          0.038136654087    -1.165408031350    -0.929920411338     1.007825032070
           C          0.296092806949    -0.707940247027     0.029620122105    12.000000000000
           H          2.242664991700    -1.679805604418     0.131198356514     1.007825032070
           H          2.100192909404    -0.230236836321     1.135819461396     1.007825032070
           H          2.266118612684    -0.077610345653    -0.619748341325     1.007825032070
           C          1.819366828430    -0.674197464059     0.178257819523    12.000000000000

  Running in c1 symmetry.

  Rotational constants: A =      0.77031  B =      0.12220  C =      0.11489 [cm^-1]
  Rotational constants: A =  23093.19298  B =   3663.43619  C =   3444.33433 [MHz]
  Nuclear repulsion =  130.805388220378802

  Charge       = 0
  Multiplicity = 1
  Electrons    = 34
  Nalpha       = 17
  Nbeta        = 17

  ==> Algorithm <==

  SCF Algorithm Type is DF.
  DIIS enabled.
  MOM disabled.
  Fractional occupation disabled.
  Guess Type is READ.
  Energy threshold   = 1.00e-10
  Density threshold  = 1.00e-10
  Integral threshold = 0.00e+00

  ==> Primary Basis <==

  Basis Set: 6-31G(D)
    Number of shells: 44
    Number of basis function: 80
    Number of Cartesian functions: 80
    Spherical Harmonics?: false
    Max angular momentum: 2

  ==> Pre-Iterations <==

   -------------------------------------------------------
    Irrep   Nso     Nmo     Nalpha   Nbeta   Ndocc  Nsocc
   -------------------------------------------------------
     A         80      80       0       0       0       0
   -------------------------------------------------------
    Total      80      80      17      17      17       0
   -------------------------------------------------------

  ==> Integral Setup <==

  ==> DFJK: Density-Fitted J/K Matrices <==

    J tasked:                  Yes
    K tasked:                  Yes
    wK tasked:                  No
    OpenMP threads:              1
    Integrals threads:           1
    Memory (MB):               715
    Algorithm:                Core
    Integral Cache:           NONE
    Schwarz Cutoff:          1E-12
    Fitting Condition:       1E-12

   => Auxiliary Basis Set <=

  Basis Set: 
    Number of shells: 186
    Number of basis function: 574
    Number of Cartesian functions: 574
    Spherical Harmonics?: false
    Max angular momentum: 3

  Minimum eigenvalue in the overlap matrix is 4.5804845658E-03.
  Using Symmetric Orthogonalization.
  SCF Guess was Projection but file not found.
  Switching over to SAD guess.

  SCF Guess: Superposition of Atomic Densities via on-the-fly atomic UHF.

  ==> Iterations <==

                           Total Energy        Delta E     RMS |[F,P]|

   @DF-RHF iter   0:  -158.84999419256638   -1.58850e+02   4.63387e-02 
   @DF-RHF iter   1:  -157.20896430373773    1.64103e+00   3.89027e-03 
   @DF-RHF iter   2:  -157.28865167157613   -7.96874e-02   1.11626e-03 DIIS
   @DF-RHF iter   3:  -157.29689966778079   -8.24800e-03   2.71419e-04 DIIS
   @DF-RHF iter   4:  -157.29730383329786   -4.04166e-04   7.57016e-05 DIIS
   @DF-RHF iter   5:  -157.29734197873586   -3.81454e-05   1.20494e-05 DIIS
   @DF-RHF iter   6:  -157.29734312015881   -1.14142e-06   1.78159e-06 DIIS
   @DF-RHF iter   7:  -157.29734313894119   -1.87824e-08   6.09030e-07 DIIS
   @DF-RHF iter   8:  -157.29734314050046   -1.55927e-09   1.00860e-07 DIIS
   @DF-RHF iter   9:  -157.29734314057930   -7.88418e-11   2.12094e-08 DIIS
   @DF-RHF iter  10:  -157.29734314058328   -3.97904e-12   3.66509e-09 DIIS
   @DF-RHF iter  11:  -157.29734314058322    5.68434e-14   7.31336e-10 DIIS
   @DF-RHF iter  12:  -157.29734314058339   -1.70530e-13   1.86031e-10 DIIS
   @DF-RHF iter  13:  -157.29734314058339    0.00000e+00   5.08701e-11 DIIS

  ==> Post-Iterations <==

    Orbital Energies (a.u.)
    -----------------------

    Doubly Occupied:                                                      

       1A    -11.215259     2A    -11.214667     3A    -11.209463  
       4A    -11.209456     5A     -1.069450     6A     -0.978662  
       7A     -0.858672     8A     -0.785830     9A     -0.640711  
      10A     -0.582711    11A     -0.574952    12A     -0.566409  
      13A     -0.512265    14A     -0.496892    15A     -0.465373  
      16A     -0.464484    17A     -0.452893  

    Virtual:                                                              

      18A      0.231292    19A      0.261493    20A      0.282405  
      21A      0.293536    22A      0.320817    23A      0.335502  
      24A      0.335623    25A      0.340708    26A      0.352143  
      27A      0.353253    28A      0.419654    29A      0.424618  
      30A      0.440004    31A      0.701135    32A      0.703087  
      33A      0.752074    34A      0.756011    35A      0.764469  
      36A      0.850429    37A      0.866733    38A      0.930993  
      39A      0.960089    40A      1.022303    41A      1.064043  
      42A      1.108485    43A      1.134142    44A      1.167459  
      45A      1.184301    46A      1.189047    47A      1.200170  
      48A      1.203168    49A      1.228548    50A      1.230376  
      51A      1.237767    52A      1.269013    53A      1.287769  
      54A      1.609826    55A      1.682360    56A      1.718702  
      57A      1.726482    58A      1.918478    59A      1.929465  
      60A      2.149337    61A      2.198301    62A      2.215846  
      63A      2.279267    64A      2.293275    65A      2.334713  
      66A      2.394070    67A      2.501323    68A      2.602564  
      69A      2.603839    70A      2.638514    71A      2.729119  
      72A      2.733767    73A      2.755973    74A      2.892021  
      75A      3.023890    76A      3.107768    77A      4.564709  
      78A      4.671896    79A      4.791716    80A      4.943624  

    Final Occupation by Irrep:
              A 
    DOCC [    17 ]

  Energy converged.

  @DF-RHF Final Energy:  -157.29734314058339

   => Energetics <=

    Nuclear Repulsion Energy =            130.8053882203788021
    One-Electron Energy =                -469.6091641590270456
    Two-Electron Energy =                 181.5064327980647931
    DFT Exchange-Correlation Energy =       0.0000000000000000
    Empirical Dispersion Energy =           0.0000000000000000
    PCM Polarization Energy =               0.0000000000000000
    EFP Energy =                            0.0000000000000000
    Total Energy =                       -157.2973431405834503


  Saving occupied orbitals to File 180.

*** tstop() called on lski1497 at Mon Feb 20 17:21:20 2017
Module time:
	user time   =       4.81 seconds =       0.08 minutes
	system time =       0.14 seconds =       0.00 minutes
	total time  =          8 seconds =       0.13 minutes
Total time:
	user time   =      49.27 seconds =       0.82 minutes
	system time =       1.46 seconds =       0.02 minutes
	total time  =         70 seconds =       1.17 minutes


Properties will be evaluated at   0.000000,   0.000000,   0.000000 Bohr

Properties computed using the SCF density matrix

  Nuclear Dipole Moment: (a.u.)
     X:     0.0178      Y:     0.0125      Z:    -0.0980

  Electronic Dipole Moment: (a.u.)
     X:    -0.0189      Y:    -0.0132      Z:     0.1035

  Dipole Moment: (a.u.)
     X:    -0.0010      Y:    -0.0007      Z:     0.0055     Total:     0.0057

  Dipole Moment: (Debye)
     X:    -0.0026      Y:    -0.0017      Z:     0.0140     Total:     0.0144


  //>>>>>>>>>>>>>>>>>>>>>>>>>>>>>>>>>>>//
  //               DFMP2               //
  //<<<<<<<<<<<<<<<<<<<<<<<<<<<<<<<<<<<//


*** tstart() called on lski1497
*** at Mon Feb 20 17:21:21 2017


*** tstop() called on lski1497 at Mon Feb 20 17:21:21 2017
Module time:
	user time   =       0.55 seconds =       0.01 minutes
	system time =       0.01 seconds =       0.00 minutes
	total time  =          0 seconds =       0.00 minutes
Total time:
	user time   =      49.84 seconds =       0.83 minutes
	system time =       1.47 seconds =       0.02 minutes
	total time  =         71 seconds =       1.18 minutes
	 --------------------------------------------------------
	                          DF-MP2                         
	      2nd-Order Density-Fitted Moller-Plesset Theory     
	              RMP2 Wavefunction,   1 Threads             
	                                                         
	        Rob Parrish, Justin Turney, Andy Simmonett,      
	           Ed Hohenstein, and C. David Sherrill          
	 --------------------------------------------------------

   => Auxiliary Basis Set <=

  Basis Set: 
    Number of shells: 132
    Number of basis function: 364
    Number of Cartesian functions: 414
    Spherical Harmonics?: true
    Max angular momentum: 3

	 --------------------------------------------------------
	                 NBF =    80, NAUX =   364
	 --------------------------------------------------------
	   CLASS    FOCC     OCC    AOCC    AVIR     VIR    FVIR
	   PAIRS       0      17      17      63      63       0
	 --------------------------------------------------------

DGAS Warning! /src/lib/libfock/apps.cc:80 is not currently checking restricted

         ------------------------------------------------------------
                                     CPHF                           
                                  Rob Parrish                       
         ------------------------------------------------------------

  ==> Geometry <==

    Molecular point group: c1
    Full point group: C1

    Geometry (in Angstrom), charge = 0, multiplicity = 1:

       Center              X                  Y                   Z               Mass       
    ------------   -----------------  -----------------  -----------------  -----------------
           H         -2.367843726021     0.043733396989     0.381077802880     1.007825032070
           H         -2.222899950132     1.693509954300    -0.241899836745     1.007825032070
           H         -1.924975632312     0.315443132512    -1.311250295118     1.007825032070
           C         -1.799296753649     0.688173405941    -0.292770249282    12.000000000000
           H          0.229308771079     1.351861695163    -0.586866498933     1.007825032070
           H         -0.208523543701     1.082780525495     1.109682815463     1.007825032070
           C         -0.317761790356     0.692841771466     0.093670325560    12.000000000000
           H         -0.133141155689    -1.320902070512     0.827388591816     1.007825032070
           H          0.038136654087    -1.165408031350    -0.929920411338     1.007825032070
           C          0.296092806949    -0.707940247027     0.029620122105    12.000000000000
           H          2.242664991700    -1.679805604418     0.131198356514     1.007825032070
           H          2.100192909404    -0.230236836321     1.135819461396     1.007825032070
           H          2.266118612684    -0.077610345653    -0.619748341325     1.007825032070
           C          1.819366828430    -0.674197464059     0.178257819523    12.000000000000

  Nuclear repulsion =  130.805388220378802
  Reference energy  = -157.297343140583394

  ==> Basis Set <==

  Basis Set: 6-31G(D)
    Number of shells: 44
    Number of basis function: 80
    Number of Cartesian functions: 80
[...]
    Memory (MB):               715
    Algorithm:                Core
    Integral Cache:           NONE
    Schwarz Cutoff:          1E-12
    Fitting Condition:       1E-12

   => Auxiliary Basis Set <=

  Basis Set: 
    Number of shells: 186
    Number of basis function: 574
    Number of Cartesian functions: 574
    Spherical Harmonics?: false
    Max angular momentum: 3

  ==> CPHF Iterations <==

  => Iterations <=

             Iter  Converged  Remaining    Residual
  CGR           1          0          1   7.498E-02
  CGR           2          0          1   9.315E-03
  CGR           3          0          1   2.936E-03
  CGR           4          0          1   3.591E-04
  CGR           5          0          1   6.097E-05
  CGR           6          0          1   1.107E-05
  CGR           7          0          1   2.155E-06
  CGR           8          1          0   4.177E-07

    CGRSolver converged.

  ==> DFCorrGrad: Density-Fitted Correlated Gradients <==

    OpenMP threads:              1
    Integrals threads:           1
    Memory (MB):               715
    Schwarz Cutoff:          0E+00
    Fitting Condition:       1E-12

   => Auxiliary Basis Set <=

  Basis Set: 
    Number of shells: 186
    Number of basis function: 510
    Number of Cartesian functions: 574
    Spherical Harmonics?: true
    Max angular momentum: 3

	-----------------------------------------------------------
	 ==================> DF-MP2 Energies <==================== 
	-----------------------------------------------------------
	 Reference Energy          =    -157.2975525766802889 [Eh]
	 Singles Energy            =      -0.0000000000000000 [Eh]
	 Same-Spin Energy          =      -0.1244355172802543 [Eh]
	 Opposite-Spin Energy      =      -0.4222023653172185 [Eh]
	 Correlation Energy        =      -0.5466378825974728 [Eh]
	 Total Energy              =    -157.8441904592777689 [Eh]
	-----------------------------------------------------------
	 ================> DF-SCS-MP2 Energies <================== 
	-----------------------------------------------------------
	 SCS Same-Spin Scale       =       0.3333333333333333 [-]
	 SCS Opposite-Spin Scale   =       1.2000000000000000 [-]
	 SCS Same-Spin Energy      =      -0.0414785057600848 [Eh]
	 SCS Opposite-Spin Energy  =      -0.5066428383806622 [Eh]
	 SCS Correlation Energy    =      -0.5481213441407469 [Eh]
	 SCS Total Energy          =    -157.8456739208210422 [Eh]
	-----------------------------------------------------------


  -Total Gradient:
     Atom            X                  Y                   Z
    ------   -----------------  -----------------  -----------------
       1        0.000005943657     0.000000465901     0.000002814677
       2       -0.000014195857     0.000003646847    -0.000005563360
       3       -0.000011093344    -0.000000230770    -0.000001910735
       4        0.000378663464     0.000235622371    -0.001432408705
       5       -0.000012384733    -0.000005517316     0.000006113733
       6        0.000008736024    -0.000007700772     0.000003744872
       7       -0.000466878693    -0.000234768340     0.001405930982
       8       -0.000009638660     0.000006631275     0.000002250377
       9        0.000009563788     0.000003757346     0.000011061297
      10       -0.000045487722    -0.000122333247     0.001495940725
      11        0.000014909111    -0.000003008901    -0.000001258879
      12       -0.000007433381    -0.000001333078    -0.000000101418
      13        0.000010442568    -0.000000231255     0.000002499399
      14        0.000138853780     0.000124999939    -0.001489112966


			-----------------------------------------
			 OPTKING 2.0: for geometry optimizations 
			  - R.A. King,  Bethel University        
			-----------------------------------------

	Previous internal coordinate definitions found.
	---Fragment 1 Geometry and Gradient---
	 H          -4.4920462944        0.0675347511        0.6997002079
	 H          -4.2142917259        3.1989475448       -0.4314881657
	 H          -3.6559971315        0.6221481979       -2.4855101140
	 C          -3.4017589847        1.3025390603       -0.5501908925
	 H           0.4235351104        2.5596340228       -1.1069688586
	 H          -0.3699984512        2.0794419997        2.0767068563
	 C          -0.6125687562        1.2992011951        0.1722576905
	 H          -0.2662010453       -2.5228082316        1.5291564248
	 H           0.0811707438       -2.2079220280       -1.7535653574
	 C           0.5718945686       -1.3275510502        0.0582730733
	 H           4.2417002014       -3.1798422219        0.2761280678
	 H           3.9915355432       -0.4163382195        2.1370293992
	 H           4.3025263740       -0.1715642732       -1.1789208497
	 C           3.4389113844       -1.2766442285        0.3396261831
	             0.0000059437        0.0000004659        0.0000028147
	            -0.0000141959        0.0000036468       -0.0000055634
	            -0.0000110933       -0.0000002308       -0.0000019107
	             0.0003786635        0.0002356224       -0.0014324087
	            -0.0000123847       -0.0000055173        0.0000061137
	             0.0000087360       -0.0000077008        0.0000037449
	            -0.0004668787       -0.0002347683        0.0014059310
	            -0.0000096387        0.0000066313        0.0000022504
	             0.0000095638        0.0000037573        0.0000110613
	            -0.0000454877       -0.0001223332        0.0014959407
	             0.0000149091       -0.0000030089       -0.0000012589
	            -0.0000074334       -0.0000013331       -0.0000001014
	             0.0000104426       -0.0000002313        0.0000024994
	             0.0001388538        0.0001249999       -0.0014891130

	---Fragment 1 Intrafragment Coordinates---
	 - Coordinate -           - BOHR/RAD -       - ANG/DEG -
	 R(1,4)           =         2.067895	       1.094283
	 R(2,4)           =         2.066559	       1.093576
	 R(3,4)           =         2.067131	       1.093878
	 R(4,7)           =         2.881237	       1.524685
	 R(5,7)           =         2.073312	       1.097149
	 R(6,7)           =         2.072328	       1.096629
	 R(7,10)          =         2.883708	       1.525993
	 R(8,10)          =         2.072328	       1.096629
	 R(9,10)          =         2.073312	       1.097149
	 R(10,14)         =         2.881239	       1.524686
	 R(11,14)         =         2.066559	       1.093576
	 R(12,14)         =         2.067892	       1.094281
	 R(13,14)         =         2.067128	       1.093877
	 B(1,4,2)         =         1.881820	     107.820372
	 B(1,4,3)         =         1.880171	     107.725855
	 B(1,4,7)         =         1.937086	     110.986857
	 B(2,4,3)         =         1.883326	     107.906617
	 B(2,4,7)         =         1.946880	     111.548034
	 B(3,4,7)         =         1.932036	     110.697509
	 B(4,7,5)         =         1.905360	     109.169094
	 B(4,7,6)         =         1.921231	     110.078447
	 B(4,7,10)        =         1.970087	     112.877694
	 B(5,7,6)         =         1.854205	     106.238116
	 B(5,7,10)        =         1.900869	     108.911744
	 B(6,7,10)        =         1.908374	     109.341770
	 B(7,10,8)        =         1.908379	     109.342090
	 B(7,10,9)        =         1.900866	     108.911628
	 B(7,10,14)       =         1.970084	     112.877479
	 B(8,10,9)        =         1.854207	     106.238217
	 B(8,10,14)       =         1.921232	     110.078500
	 B(9,10,14)       =         1.905358	     109.168966
	 B(10,14,11)      =         1.946876	     111.547773
	 B(10,14,12)      =         1.937081	     110.986551
	 B(10,14,13)      =         1.932035	     110.697429
	 B(11,14,12)      =         1.881824	     107.820551
	 B(11,14,13)      =         1.883329	     107.906794
	 B(12,14,13)      =         1.880177	     107.726184
	 D(1,4,7,5)       =        -3.136485	    -179.707376
	 D(1,4,7,6)       =        -1.107563	     -63.458675
	 D(1,4,7,10)      =         1.030083	      59.019385
	 D(2,4,7,5)       =        -1.037600	     -59.450109
	 D(2,4,7,6)       =         0.991322	      56.798591
	 D(2,4,7,10)      =         3.128968	     179.276652
	 D(3,4,7,5)       =         1.059765	      60.720070
	 D(3,4,7,6)       =         3.088688	     176.968770
	 D(3,4,7,10)      =        -1.056852	     -60.553169
	 D(4,7,10,8)      =        -1.166933	     -66.860334
	 D(4,7,10,9)      =         0.852269	      48.831436
	 D(4,7,10,14)     =         2.971425	     170.250101
	 D(5,7,10,8)      =         2.997090	     171.720616
	 D(5,7,10,9)      =        -1.266893	     -72.587614
	 D(5,7,10,14)     =         0.852263	      48.831051
	 D(6,7,10,8)      =         0.977892	      56.029078
	 D(6,7,10,9)      =         2.997094	     171.720848
	 D(6,7,10,14)     =        -1.166936	     -66.860487
	 D(7,10,14,11)    =         3.128983	     179.277520
	 D(7,10,14,12)    =         1.030100	      59.020411
	 D(7,10,14,13)    =        -1.056837	     -60.552304
	 D(8,10,14,11)    =         0.991332	      56.799157
	 D(8,10,14,12)    =        -1.107550	     -63.457951
	 D(8,10,14,13)    =         3.088698	     176.969333
	 D(9,10,14,11)    =        -1.037592	     -59.449622
	 D(9,10,14,12)    =        -3.136474	    -179.706731
	 D(9,10,14,13)    =         1.059774	      60.720554

	Current energy   :      -157.8441904593

	Energy change for the previous step:
		Projected    :        -0.0000021015
		Actual       :         0.0000005529

	Performing BFGS update.
	Previous computed or guess Hessian on step 1.
	Steps to be used in Hessian update: 5 4
	Adding user-defined constraint: Fragment 1; Coordinate 49:
		Value =     2.971425; Fixed value    =     2.967060
		Force =    -0.002728; Force constant =     0.625000
	Removing off-diagonal coupling between coordinate 49 and others.
	Taking RFO optimization step.
	Going to follow RFO solution 1.
	Using RFO vector 1.
	Norm of target step-size    0.00526
	Projected energy change by RFO approximation:         0.0000003225

	Back-transformation to cartesian coordinates...
	Successfully converged to displaced geometry.

	--- Internal Coordinate Step in ANG or DEG, aJ/ANG or AJ/DEG ---
	 ---------------------------------------------------------------------------
	   Coordinate                Previous        Force       Change         New 
	   ----------                --------       ------       ------       ------
	    1 R(1,4)          =      1.094283     0.000015     0.000051     1.094334
	    2 R(2,4)          =      1.093576    -0.000071     0.000039     1.093615
	    3 R(3,4)          =      1.093878    -0.000026     0.000053     1.093931
	    4 R(4,7)          =      1.524685    -0.000104    -0.000068     1.524617
	    5 R(5,7)          =      1.097149     0.000110     0.000012     1.097161
	    6 R(6,7)          =      1.096629    -0.000013     0.000030     1.096659
	    7 R(7,10)         =      1.525993    -0.000308    -0.000063     1.525930
	    8 R(8,10)         =      1.096629    -0.000014     0.000029     1.096657
	    9 R(9,10)         =      1.097149     0.000111     0.000015     1.097164
	   10 R(10,14)        =      1.524686    -0.000105    -0.000063     1.524623
	   11 R(11,14)        =      1.093576    -0.000071     0.000040     1.093616
	   12 R(12,14)        =      1.094281     0.000022     0.000049     1.094331
	   13 R(13,14)        =      1.093877    -0.000019     0.000050     1.093927
	   14 B(1,4,2)        =    107.820372     0.000000     0.001826   107.822198
	   15 B(1,4,3)        =    107.725855     0.000000     0.002425   107.728280
	   16 B(1,4,7)        =    110.986857     0.000001     0.007659   110.994516
	   17 B(2,4,3)        =    107.906617     0.000001     0.001949   107.908566
	   18 B(2,4,7)        =    111.548034    -0.000001    -0.011475   111.536559
	   19 B(3,4,7)        =    110.697509    -0.000001    -0.001987   110.695523
	   20 B(4,7,5)        =    109.169094    -0.000001     0.010087   109.179180
	   21 B(4,7,6)        =    110.078447     0.000001    -0.009293   110.069154
	   22 B(4,7,10)       =    112.877694    -0.000001    -0.008527   112.869167
	   23 B(5,7,6)        =    106.238116    -0.000000     0.009240   106.247356
	   24 B(5,7,10)       =    108.911744    -0.000000     0.001705   108.913449
	   25 B(6,7,10)       =    109.341770     0.000001    -0.001968   109.339802
	   26 B(7,10,8)       =    109.342090     0.000001    -0.002582   109.339508
	   27 B(7,10,9)       =    108.911628    -0.000000     0.002235   108.913863
	   28 B(7,10,14)      =    112.877479    -0.000001    -0.008353   112.869126
	   29 B(8,10,9)       =    106.238217    -0.000000     0.009168   106.247385
	   30 B(8,10,14)      =    110.078500     0.000001    -0.009629   110.068871
	   31 B(9,10,14)      =    109.168966    -0.000001     0.010401   109.179368
	   32 B(10,14,11)     =    111.547773    -0.000001    -0.011397   111.536376
	   33 B(10,14,12)     =    110.986551     0.000001     0.007794   110.994345
	   34 B(10,14,13)     =    110.697429    -0.000001    -0.002280   110.695149
	   35 B(11,14,12)     =    107.820551     0.000000     0.001884   107.822435
	   36 B(11,14,13)     =    107.906794     0.000001     0.001973   107.908767
	   37 B(12,14,13)     =    107.726184     0.000000     0.002427   107.728611
	   38 D(1,4,7,5)      =   -179.707376    -0.000000    -0.066576  -179.773952
	   39 D(1,4,7,6)      =    -63.458675    -0.000000    -0.054865   -63.513540
	   40 D(1,4,7,10)     =     59.019385     0.000000    -0.070199    58.949186
	   41 D(2,4,7,5)      =    -59.450109    -0.000000    -0.066784   -59.516893
	   42 D(2,4,7,6)      =     56.798591    -0.000000    -0.055073    56.743519
	   43 D(2,4,7,10)     =    179.276652     0.000000    -0.070407   179.206245
	   44 D(3,4,7,5)      =     60.720070    -0.000000    -0.073310    60.646760
	   45 D(3,4,7,6)      =    176.968770    -0.000000    -0.061598   176.907172
	   46 D(3,4,7,10)     =    -60.553169     0.000000    -0.076932   -60.630102
	   47 D(4,7,10,8)     =    -66.860334    -0.000000    -0.026204   -66.886538
	   48 D(4,7,10,9)     =     48.831436    -0.000000    -0.015440    48.815996
	   49 D(4,7,10,14)    =    170.250101    -0.000001    -0.006166   170.243936
	   50 D(5,7,10,8)     =    171.720616    -0.000000    -0.034591   171.686024
	   51 D(5,7,10,9)     =    -72.587614    -0.000000    -0.023827   -72.611441
	   52 D(5,7,10,14)    =     48.831051    -0.000000    -0.014552    48.816498
	   53 D(6,7,10,8)     =     56.029078    -0.000000    -0.045484    55.983593
	   54 D(6,7,10,9)     =    171.720848    -0.000000    -0.034720   171.686128
	   55 D(6,7,10,14)    =    -66.860487    -0.000000    -0.025445   -66.885933
	   56 D(7,10,14,11)   =    179.277520     0.000000    -0.073215   179.204305
	   57 D(7,10,14,12)   =     59.020411     0.000000    -0.073225    58.947185
	   58 D(7,10,14,13)   =    -60.552304     0.000000    -0.079857   -60.632161
	   59 D(8,10,14,11)   =     56.799157    -0.000000    -0.056964    56.742193
	   60 D(8,10,14,12)   =    -63.457951    -0.000000    -0.056974   -63.514926
	   61 D(8,10,14,13)   =    176.969333    -0.000000    -0.063606   176.905727
	   62 D(9,10,14,11)   =    -59.449622    -0.000000    -0.068580   -59.518202
	   63 D(9,10,14,12)   =   -179.706731    -0.000000    -0.068591  -179.775321
	   64 D(9,10,14,13)   =     60.720554    -0.000000    -0.075222    60.645332
	 ---------------------------------------------------------------------------
	 Forces used to impose fixed constraints are not included.
	  Forces zeroed: 49 

  ==> Convergence Check <==

  Measures of convergence in internal coordinates in au.
  Criteria marked as inactive (o), active & met (*), and active & unmet ( ).
  ---------------------------------------------------------------------------------------------
   Step     Total Energy     Delta E     MAX Force     RMS Force      MAX Disp      RMS Disp   
  ---------------------------------------------------------------------------------------------
    Convergence Criteria    1.00e-06 *    3.00e-04 *             o    1.20e-03 *             o
  ---------------------------------------------------------------------------------------------
      6    -157.84419046    5.53e-07 *    3.74e-05 *    1.14e-05 o    1.39e-03      6.58e-04 o  ~
  ---------------------------------------------------------------------------------------------


  **** Optimization is complete! (in 6 steps) ****

  ==> Optimization Summary <==

  Measures of convergence in internal coordinates in au.
  --------------------------------------------------------------------------------------------------------------- ~
   Step         Total Energy             Delta E       MAX Force       RMS Force        MAX Disp        RMS Disp  ~
  --------------------------------------------------------------------------------------------------------------- ~
      1    -157.838273008470   -157.838273008470      0.01814547      0.00724519      0.02882090      0.01250306  ~
      2    -157.842364266133     -0.004091257663      0.00728029      0.00318322      0.03011414      0.01252539  ~
      3    -157.843825769253     -0.001461503120      0.00194378      0.00091777      0.04501303      0.01251486  ~
      4    -157.844167670366     -0.000341901113      0.00085699      0.00021643      0.01913781      0.00836465  ~
      5    -157.844191012153     -0.000023341787      0.00008647      0.00003560      0.00262098      0.00119381  ~
      6    -157.844190459278      0.000000552875      0.00004198      0.00001253      0.00139376      0.00065789  ~
  --------------------------------------------------------------------------------------------------------------- ~

	Writing optimization data to binary file.
	Final energy is   -157.8441904592778
	Final (previous) structure:
	Cartesian Geometry (in Angstrom)
	    H    -2.3770885189   0.0357378511   0.3702654029
	    H    -2.2301071317   1.6928101322  -0.2283337031
	    H    -1.9346703567   0.3292266467  -1.3152753041
	    C    -1.8001333238   0.6892739840  -0.2911484807
	    H     0.2241251275   1.3544999872  -0.5857826906
	    H    -0.1957947476   1.1003933128   1.0989459373
	    C    -0.3241574245   0.6875076618   0.0911548438
	    H    -0.1408675261  -1.3350126178   0.8091947284
	    H     0.0429537076  -1.1683820156  -0.9279468209
	    C     0.3026335714  -0.7025097590   0.0308367822
	    H     2.2446110723  -1.6827000308   0.1461206801
	    H     2.1122296368  -0.2203166968   1.1308672522
	    H     2.2767988965  -0.0907879032  -0.6238580444
	    C     1.8197935270  -0.6755710292   0.1797224355
	Saving final (previous) structure.
			--------------------------
			 OPTKING Finished Execution 
			--------------------------

    Final optimized geometry and variables:
    Molecular point group: c1
    Full point group: C1

    Geometry (in Angstrom), charge = 0, multiplicity = 1:

    H           -2.377088518934     0.035737851083     0.370265402891
    H           -2.230107131719     1.692810132180    -0.228333703088
    H           -1.934670356681     0.329226646703    -1.315275304054
    C           -1.800133323798     0.689273983992    -0.291148480660
    H            0.224125127451     1.354499987181    -0.585782690616
    H           -0.195794747589     1.100393312812     1.098945937280
    C           -0.324157424468     0.687507661832     0.091154843837
    H           -0.140867526059    -1.335012617800     0.809194728364
    H            0.042953707600    -1.168382015582    -0.927946820901
    C            0.302633571419    -0.702509759027     0.030836782239
    H            2.244611072265    -1.682700030759     0.146120680112
    H            2.112229636763    -0.220316696848     1.130867252163
    H            2.276798896488    -0.090787903164    -0.623858044404
    C            1.819793526988    -0.675571029182     0.179722435529

	Cleaning optimization helper files.

*** Psi4 exiting successfully. Buy a developer a beer!
