    -----------------------------------------------------------------------
          Psi4: An Open-Source Ab Initio Electronic Structure Package
                              Psi4 1.0.0 Driver

                          Git: Rev {master} 6a9a71b 

    J. M. Turney, A. C. Simmonett, R. M. Parrish, E. G. Hohenstein,
    F. A. Evangelista, J. T. Fermann, B. J. Mintz, L. A. Burns, J. J. Wilke,
    M. L. Abrams, N. J. Russ, M. L. Leininger, C. L. Janssen, E. T. Seidl,
    W. D. Allen, H. F. Schaefer, R. A. King, E. F. Valeev, C. D. Sherrill,
    and T. D. Crawford, WIREs Comput. Mol. Sci. 2, 556-565 (2012)
    (doi: 10.1002/wcms.93)

                         Additional Contributions by
    A. E. DePrince, U. Bozkaya, A. Yu. Sokolov, D. G. A. Smith, R. Di Remigio,
    R. M. Richard, J. F. Gonthier, H. R. McAlexander, M. Saitow, and
    B. P. Pritchard
    -----------------------------------------------------------------------


    Psi4 started on: Mon Feb 20 17:27:06 2017

    Process ID:  28146
    PSI4DATADIR: /Users/sternc1/anaconda/share/psi4
    Memory level set to 256.000 MB

  ==> Input File <==

--------------------------------------------------------------------------

memory 1000 mb

molecule butane {
  symmetry C1
  0 1 
  H      1.604   0.760   -8.260
  H      1.745   2.388   -8.880
  H      2.043   1.024   -9.930
  C      2.142   1.395   -8.932
  H      4.169   2.051   -9.210
  H      3.731   1.788   -7.539
  C      3.631   1.416   -8.537
  H      3.682   -0.566   -9.364
  H      5.243   0.033   -8.859
  C      4.203   -0.012   -8.612
  H      4.426   -1.699   -7.302
  H      2.989   -0.753   -7.002
  H      4.550   -0.154   -6.497
  C      4.029   -0.708   -7.250
  units Angstrom
}

dih_string = "4 7 10 14 270"
set optking fixed_dihedral = $dih_string

optimize('MP2/6-31G(d)')
--------------------------------------------------------------------------

  Memory set to 1000.000 MiB by Python script.
gradient() will perform analytic gradient computation.
    SCF Algorithm Type (re)set to DF.

*** tstart() called on lski1497
*** at Mon Feb 20 17:27:07 2017


         ---------------------------------------------------------
                                   SCF
            by Justin Turney, Rob Parrish, and Andy Simmonett
                              RHF Reference
                        1 Threads,   1000 MiB Core
         ---------------------------------------------------------

  ==> Geometry <==

    Molecular point group: c1
    Full point group: C1

    Geometry (in Angstrom), charge = 0, multiplicity = 1:

       Center              X                  Y                   Z               Mass       
    ------------   -----------------  -----------------  -----------------  -----------------
           H         -1.882838431392     0.243418949597     0.064342528609     1.007825032070
           H         -1.741838431392     1.871418949597    -0.555657471391     1.007825032070
           H         -1.443838431392     0.507418949597    -1.605657471391     1.007825032070
           C         -1.344838431392     0.878418949597    -0.607657471391    12.000000000000
           H          0.682161568608     1.534418949597    -0.885657471391     1.007825032070
           H          0.244161568608     1.271418949597     0.785342528609     1.007825032070
           C          0.144161568608     0.899418949597    -0.212657471391    12.000000000000
           H          0.195161568608    -1.082581050403    -1.039657471391     1.007825032070
           H          1.756161568608    -0.483581050403    -0.534657471391     1.007825032070
           C          0.716161568608    -0.528581050403    -0.287657471391    12.000000000000
           H          0.939161568608    -2.215581050403     1.022342528609     1.007825032070
           H         -0.497838431392    -1.269581050403     1.322342528609     1.007825032070
           H          1.063161568608    -0.670581050403     1.827342528609     1.007825032070
           C          0.542161568608    -1.224581050403     1.074342528609    12.000000000000

  Running in c1 symmetry.

  Rotational constants: A =      0.48459  B =      0.15012  C =      0.13798 [cm^-1]
  Rotational constants: A =  14527.65295  B =   4500.61528  C =   4136.41915 [MHz]
  Nuclear repulsion =  133.477279131055809

  Charge       = 0
  Multiplicity = 1
  Electrons    = 34
  Nalpha       = 17
  Nbeta        = 17

  ==> Algorithm <==

  SCF Algorithm Type is DF.
  DIIS enabled.
  MOM disabled.
  Fractional occupation disabled.
  Guess Type is SAD.
  Energy threshold   = 1.00e-10
  Density threshold  = 1.00e-10
  Integral threshold = 0.00e+00

  ==> Primary Basis <==

  Basis Set: 6-31G(D)
    Number of shells: 44
    Number of basis function: 80
    Number of Cartesian functions: 80
    Spherical Harmonics?: false
    Max angular momentum: 2

  ==> Pre-Iterations <==

   -------------------------------------------------------
    Irrep   Nso     Nmo     Nalpha   Nbeta   Ndocc  Nsocc
   -------------------------------------------------------
     A         80      80       0       0       0       0
   -------------------------------------------------------
    Total      80      80      17      17      17       0
   -------------------------------------------------------

  ==> Integral Setup <==

  ==> DFJK: Density-Fitted J/K Matrices <==

    J tasked:                  Yes
    K tasked:                  Yes
    wK tasked:                  No
    OpenMP threads:              1
    Integrals threads:           1
    Memory (MB):               715
    Algorithm:                Core
    Integral Cache:           NONE
    Schwarz Cutoff:          1E-12
    Fitting Condition:       1E-12

   => Auxiliary Basis Set <=

  Basis Set: 
    Number of shells: 186
    Number of basis function: 574
    Number of Cartesian functions: 574
    Spherical Harmonics?: false
    Max angular momentum: 3

  Minimum eigenvalue in the overlap matrix is 5.2307658364E-03.
  Using Symmetric Orthogonalization.
  SCF Guess: Superposition of Atomic Densities via on-the-fly atomic UHF.

  ==> Iterations <==

                           Total Energy        Delta E     RMS |[F,P]|

   @DF-RHF iter   0:  -158.89954935096910   -1.58900e+02   4.68976e-02 
   @DF-RHF iter   1:  -157.19294027076603    1.70661e+00   4.20504e-03 
   @DF-RHF iter   2:  -157.28046992579067   -8.75297e-02   1.24916e-03 DIIS
   @DF-RHF iter   3:  -157.28937258542129   -8.90266e-03   4.67287e-04 DIIS
   @DF-RHF iter   4:  -157.29039456038481   -1.02197e-03   8.53144e-05 DIIS
   @DF-RHF iter   5:  -157.29044656909264   -5.20087e-05   1.54946e-05 DIIS
   @DF-RHF iter   6:  -157.29044842948957   -1.86040e-06   3.44994e-06 DIIS
   @DF-RHF iter   7:  -157.29044849133840   -6.18488e-08   9.78853e-07 DIIS
   @DF-RHF iter   8:  -157.29044849741075   -6.07236e-09   2.05672e-07 DIIS
   @DF-RHF iter   9:  -157.29044849775090   -3.40151e-10   5.41124e-08 DIIS
   @DF-RHF iter  10:  -157.29044849777421   -2.33058e-11   1.23041e-08 DIIS
   @DF-RHF iter  11:  -157.29044849777500   -7.95808e-13   3.24785e-09 DIIS
   @DF-RHF iter  12:  -157.29044849777506   -5.68434e-14   7.05175e-10 DIIS
   @DF-RHF iter  13:  -157.29044849777489    1.70530e-13   1.40333e-10 DIIS
   @DF-RHF iter  14:  -157.29044849777529   -3.97904e-13   3.35980e-11 DIIS

  ==> Post-Iterations <==

    Orbital Energies (a.u.)
    -----------------------

    Doubly Occupied:                                                      

       1A    -11.207035     2A    -11.206437     3A    -11.201039  
       4A    -11.200858     5A     -1.072449     6A     -0.977890  
       7A     -0.869840     8A     -0.789013     9A     -0.631619  
      10A     -0.620300    11A     -0.581387    12A     -0.543738  
      13A     -0.524604    14A     -0.507390    15A     -0.473568  
      16A     -0.458419    17A     -0.446498  

    Virtual:                                                              

      18A      0.234170    19A      0.279301    20A      0.281853  
      21A      0.296359    22A      0.314754    23A      0.320704  
      24A      0.345375    25A      0.352673    26A      0.355295  
      27A      0.393696    28A      0.400676    29A      0.445351  
      30A      0.452879    31A      0.713576    32A      0.726523  
      33A      0.729966    34A      0.751501    35A      0.768189  
      36A      0.828864    37A      0.859593    38A      0.933233  
      39A      0.948895    40A      1.000269    41A      1.074318  
      42A      1.116455    43A      1.173433    44A      1.177552  
      45A      1.204030    46A      1.205210    47A      1.209643  
      48A      1.231411    49A      1.256079    50A      1.256790  
      51A      1.266004    52A      1.289783    53A      1.305176  
      54A      1.490200    55A      1.705536    56A      1.728285  
      57A      1.847148    58A      1.875692    59A      2.023113  
      60A      2.084592    61A      2.193674    62A      2.249825  
      63A      2.280833    64A      2.302958    65A      2.389769  
      66A      2.469679    67A      2.480637    68A      2.614140  
      69A      2.652806    70A      2.678334    71A      2.725001  
      72A      2.783086    73A      2.807448    74A      2.900024  
      75A      2.984516    76A      3.085236    77A      4.575343  
      78A      4.679407    79A      4.846233    80A      4.954871  

    Final Occupation by Irrep:
              A 
    DOCC [    17 ]

  Energy converged.

  @DF-RHF Final Energy:  -157.29044849777529

   => Energetics <=

    Nuclear Repulsion Energy =            133.4772791310558091
    One-Electron Energy =                -474.9112886201284027
    Two-Electron Energy =                 184.1435609912972495
    DFT Exchange-Correlation Energy =       0.0000000000000000
    Empirical Dispersion Energy =           0.0000000000000000
    PCM Polarization Energy =               0.0000000000000000
    EFP Energy =                            0.0000000000000000
    Total Energy =                       -157.2904484977753441


  Saving occupied orbitals to File 180.

*** tstop() called on lski1497 at Mon Feb 20 17:27:15 2017
Module time:
	user time   =       4.76 seconds =       0.08 minutes
	system time =       0.16 seconds =       0.00 minutes
	total time  =          8 seconds =       0.13 minutes
Total time:
	user time   =       4.76 seconds =       0.08 minutes
	system time =       0.16 seconds =       0.00 minutes
	total time  =          8 seconds =       0.13 minutes


Properties will be evaluated at   0.000000,   0.000000,   0.000000 Bohr

Properties computed using the SCF density matrix

  Nuclear Dipole Moment: (a.u.)
     X:    -0.6435      Y:    -0.2754      Z:     0.3754

  Electronic Dipole Moment: (a.u.)
     X:     0.6747      Y:     0.2879      Z:    -0.3938

  Dipole Moment: (a.u.)
     X:     0.0312      Y:     0.0125      Z:    -0.0184     Total:     0.0383

  Dipole Moment: (Debye)
     X:     0.0793      Y:     0.0317      Z:    -0.0467     Total:     0.0974


  //>>>>>>>>>>>>>>>>>>>>>>>>>>>>>>>>>>>//
  //               DFMP2               //
  //<<<<<<<<<<<<<<<<<<<<<<<<<<<<<<<<<<<//


*** tstart() called on lski1497
*** at Mon Feb 20 17:27:15 2017


*** tstop() called on lski1497 at Mon Feb 20 17:27:16 2017
Module time:
	user time   =       0.49 seconds =       0.01 minutes
	system time =       0.00 seconds =       0.00 minutes
	total time  =          1 seconds =       0.02 minutes
Total time:
	user time   =       5.26 seconds =       0.09 minutes
	system time =       0.16 seconds =       0.00 minutes
	total time  =          9 seconds =       0.15 minutes
	 --------------------------------------------------------
	                          DF-MP2                         
	      2nd-Order Density-Fitted Moller-Plesset Theory     
	              RMP2 Wavefunction,   1 Threads             
	                                                         
	        Rob Parrish, Justin Turney, Andy Simmonett,      
	           Ed Hohenstein, and C. David Sherrill          
	 --------------------------------------------------------

   => Auxiliary Basis Set <=

  Basis Set: 
    Number of shells: 132
    Number of basis function: 364
    Number of Cartesian functions: 414
    Spherical Harmonics?: true
    Max angular momentum: 3

	 --------------------------------------------------------
	                 NBF =    80, NAUX =   364
	 --------------------------------------------------------
	   CLASS    FOCC     OCC    AOCC    AVIR     VIR    FVIR
	   PAIRS       0      17      17      63      63       0
	 --------------------------------------------------------

DGAS Warning! /src/lib/libfock/apps.cc:80 is not currently checking restricted

         ------------------------------------------------------------
                                     CPHF                           
                                  Rob Parrish                       
         ------------------------------------------------------------

  ==> Geometry <==

    Molecular point group: c1
    Full point group: C1

    Geometry (in Angstrom), charge = 0, multiplicity = 1:

       Center              X                  Y                   Z               Mass       
    ------------   -----------------  -----------------  -----------------  -----------------
           H         -1.882838431392     0.243418949597     0.064342528609     1.007825032070
           H         -1.741838431392     1.871418949597    -0.555657471391     1.007825032070
           H         -1.443838431392     0.507418949597    -1.605657471391     1.007825032070
           C         -1.344838431392     0.878418949597    -0.607657471391    12.000000000000
           H          0.682161568608     1.534418949597    -0.885657471391     1.007825032070
           H          0.244161568608     1.271418949597     0.785342528609     1.007825032070
           C          0.144161568608     0.899418949597    -0.212657471391    12.000000000000
           H          0.195161568608    -1.082581050403    -1.039657471391     1.007825032070
           H          1.756161568608    -0.483581050403    -0.534657471391     1.007825032070
           C          0.716161568608    -0.528581050403    -0.287657471391    12.000000000000
           H          0.939161568608    -2.215581050403     1.022342528609     1.007825032070
           H         -0.497838431392    -1.269581050403     1.322342528609     1.007825032070
           H          1.063161568608    -0.670581050403     1.827342528609     1.007825032070
           C          0.542161568608    -1.224581050403     1.074342528609    12.000000000000

  Nuclear repulsion =  133.477279131055809
  Reference energy  = -157.290448497775287

  ==> Basis Set <==

  Basis Set: 6-31G(D)
    Number of shells: 44
    Number of basis function: 80
    Number of Cartesian functions: 80
    Spherical Harmonics?: false
    Max angular momentum: 2

  ==> CGRSolver (by Rob Parrish) <==

   Number of roots    =         1
   Preconditioning    =    JACOBI
   Convergence cutoff =     1E-06
   Maximum iterations =       100

  ==> CPHFRHamiltonian (by Rob Parrish) <== 

  ==> DFJK: Density-Fitted J/K Matrices <==

    J tasked:                  Yes
    K tasked:                  Yes
    wK tasked:                  No
    OpenMP threads:              1
    Integrals threads:           1
    Memory (MB):               715
    Algorithm:                Core
    Integral Cache:           NONE
    Schwarz Cutoff:          1E-12
    Fitting Condition:       1E-12

   => Auxiliary Basis Set <=

  Basis Set: 
    Number of shells: 186
    Number of basis function: 574
    Number of Cartesian functions: 574
    Spherical Harmonics?: false
    Max angular momentum: 3

  ==> CPHF Iterations <==

  => Iterations <=

             Iter  Converged  Remaining    Residual
  CGR           1          0          1   7.410E-02
  CGR           2          0          1   8.682E-03
  CGR           3          0          1   2.455E-03
  CGR           4          0          1   4.356E-04
  CGR           5          0          1   8.087E-05
  CGR           6          0          1   1.651E-05
  CGR           7          0          1   2.627E-06
  CGR           8          1          0   5.229E-07

    CGRSolver converged.

  ==> DFCorrGrad: Density-Fitted Correlated Gradients <==

    OpenMP threads:              1
    Integrals threads:           1
    Memory (MB):               715
    Schwarz Cutoff:          0E+00
    Fitting Condition:       1E-12

   => Auxiliary Basis Set <=

  Basis Set: 
    Number of shells: 186
    Number of basis function: 510
    Number of Cartesian functions: 574
    Spherical Harmonics?: true
    Max angular momentum: 3

	-----------------------------------------------------------
	 ==================> DF-MP2 Energies <==================== 
	-----------------------------------------------------------
	 Reference Energy          =    -157.2904484977752873 [Eh]
	 Singles Energy            =      -0.0000000000000000 [Eh]
	 Same-Spin Energy          =      -0.1245604041442929 [Eh]
	 Opposite-Spin Energy      =      -0.4204365063430057 [Eh]
	 Correlation Energy        =      -0.5449969104872986 [Eh]
	 Total Energy              =    -157.8354454082625864 [Eh]
	-----------------------------------------------------------
	 ================> DF-SCS-MP2 Energies <================== 
	-----------------------------------------------------------
	 SCS Same-Spin Scale       =       0.3333333333333333 [-]
	 SCS Opposite-Spin Scale   =       1.2000000000000000 [-]
	 SCS Same-Spin Energy      =      -0.0415201347147643 [Eh]
	 SCS Opposite-Spin Energy  =      -0.5045238076116069 [Eh]
	 SCS Correlation Energy    =      -0.5460439423263712 [Eh]
	 SCS Total Energy          =    -157.8364924401016651 [Eh]
	-----------------------------------------------------------


  -Total Gradient:
     Atom            X                  Y                   Z
    ------   -----------------  -----------------  -----------------
       1        0.011211007835     0.009173146241    -0.008687843315
       2        0.010500498921    -0.013487449892     0.000005502007
       3        0.003913996906     0.005195345767     0.015434541854
       4       -0.026851193385    -0.007306795511    -0.009889082476
       5       -0.007768974338    -0.013187790152     0.008801809353
       6       -0.004334936744    -0.009099698961    -0.014768291076
       7        0.018626512643     0.026918015328     0.016940216544
       8        0.004892059182     0.009286298193     0.014758157571
       9       -0.016934296615     0.002621588514     0.005443660366
      10        0.008412622272    -0.015493831054    -0.032171722400
      11       -0.004937880990     0.017419282449    -0.003518741188
      12        0.015075130060     0.002249732303    -0.006573660398
      13       -0.007409091090    -0.006384780387    -0.012818417876
      14       -0.004395454659    -0.007903062836     0.027043871034


			-----------------------------------------
			 OPTKING 2.0: for geometry optimizations 
			  - R.A. King,  Bethel University        
			-----------------------------------------

	Internal coordinates to be generated automatically.
	Detected frag 1 with atoms:  1 2 3 4 5 6 7 8 9 10 11 12 13 14
	---Fragment 1 Bond Connectivity---
	 1 : 4
	 2 : 4
	 3 : 4
	 4 : 1 2 3 7
	 5 : 7
	 6 : 7
	 7 : 4 5 6 10
	 8 : 10
	 9 : 10
	 10 : 7 8 9 14
	 11 : 14
	 12 : 14
	 13 : 14
	 14 : 10 11 12 13

	Assuming in current code that numbering for constraints corresponds to unified fragment.
	Fixed dihedral atom list: 
	     4     7    10    14
	---Fragment 1 Geometry and Gradient---
	 H          -3.5580489878        0.4599951503        0.1215897578
	 H          -3.2915976031        3.5364692946       -1.0500404446
	 H          -2.7284592155        0.9588828494       -3.0342528842
	 C          -2.5413763283        1.6599712447       -1.1483062035
	 H           1.2890985430        2.8996315878       -1.6736500685
	 H           0.4613984968        2.4026336149        1.4840822996
	 C           0.2724258836        1.6996554935       -0.4018643810
	 H           0.3688019163       -2.0457817019       -1.9646678929
	 H           3.3186644098       -0.9138357483       -1.0103561958
	 C           1.3533492316       -0.9988734243       -0.5435938410
	 H           1.7747581592       -4.1868414105        1.9319473931
	 H          -0.9407782938       -2.3991604888        2.4988652329
	 H           2.0090841997       -1.2672145352        3.4531769300
	 C           1.0245368844       -2.3141228128        2.0302131520
	             0.0112110078        0.0091731462       -0.0086878433
	             0.0105004989       -0.0134874499        0.0000055020
	             0.0039139969        0.0051953458        0.0154345419
	            -0.0268511934       -0.0073067955       -0.0098890825
	            -0.0077689743       -0.0131877902        0.0088018094
	            -0.0043349367       -0.0090996990       -0.0147682911
	             0.0186265126        0.0269180153        0.0169402165
	             0.0048920592        0.0092862982        0.0147581576
	            -0.0169342966        0.0026215885        0.0054436604
	             0.0084126223       -0.0154938311       -0.0321717224
	            -0.0049378810        0.0174192824       -0.0035187412
	             0.0150751301        0.0022497323       -0.0065736604
	            -0.0074090911       -0.0063847804       -0.0128184179
	            -0.0043954547       -0.0079030628        0.0270438710

	Previous optimization step data not found.  Starting new optimization.

	---Fragment 1 Intrafragment Coordinates---
	 - Coordinate -           - BOHR/RAD -       - ANG/DEG -
	 R(1,4)           =         2.021436	       1.069698
	 R(2,4)           =         2.023298	       1.070683
	 R(3,4)           =         2.020723	       1.069320
	 R(4,7)           =         2.911397	       1.540645
	 R(5,7)           =         2.022623	       1.070326
	 R(6,7)           =         2.021555	       1.069761
	 R(7,10)          =         2.910419	       1.540128
	 R(8,10)          =         2.021089	       1.069514
	 R(9,10)          =         2.021772	       1.069876
	 R(10,14)         =         2.909034	       1.539395
	 R(11,14)         =         2.019793	       1.068828
	 R(12,14)         =         2.022209	       1.070107
	 R(13,14)         =         2.022418	       1.070218
	 B(1,4,2)         =         1.910870	     109.484805
	 B(1,4,3)         =         1.911121	     109.499161
	 B(1,4,7)         =         1.910399	     109.457783
	 B(2,4,3)         =         1.910042	     109.437340
	 B(2,4,7)         =         1.910564	     109.467262
	 B(3,4,7)         =         1.910803	     109.480971
	 B(4,7,5)         =         1.909937	     109.431343
	 B(4,7,6)         =         1.911630	     109.528316
	 B(4,7,10)        =         1.911154	     109.501062
	 B(5,7,6)         =         1.910605	     109.469614
	 B(5,7,10)        =         1.910047	     109.437654
	 B(6,7,10)        =         1.910425	     109.459295
	 B(7,10,8)        =         1.910915	     109.487349
	 B(7,10,9)        =         1.910567	     109.467409
	 B(7,10,14)       =         1.911493	     109.520492
	 B(8,10,9)        =         1.910272	     109.450519
	 B(8,10,14)       =         1.910108	     109.441119
	 B(9,10,14)       =         1.910445	     109.460410
	 B(10,14,11)      =         1.911526	     109.522364
	 B(10,14,12)      =         1.911245	     109.506283
	 B(10,14,13)      =         1.910753	     109.478063
	 B(11,14,12)      =         1.910566	     109.467365
	 B(11,14,13)      =         1.910670	     109.473345
	 B(12,14,13)      =         1.909038	     109.379808
	 D(1,4,7,5)       =         3.140997	     179.965873
	 D(1,4,7,6)       =        -1.047644	     -60.025575
	 D(1,4,7,10)      =         1.047427	      60.013132
	 D(2,4,7,5)       =        -1.047689	     -60.028143
	 D(2,4,7,6)       =         1.046856	      59.980409
	 D(2,4,7,10)      =        -3.141259	    -179.980883
	 D(3,4,7,5)       =         1.046044	      59.933911
	 D(3,4,7,6)       =         3.140588	     179.942463
	 D(3,4,7,10)      =        -1.047526	     -60.018830
	 D(4,7,10,8)      =         0.523778	      30.010270
	 D(4,7,10,9)      =         2.617862	     149.992457
	 D(4,7,10,14)     =        -1.570673	     -89.992935
	 D(5,7,10,8)      =        -1.569725	     -89.938606
	 D(5,7,10,9)      =         0.524359	      30.043581
	 D(5,7,10,14)     =         2.619009	     150.058189
	 D(6,7,10,8)      =         2.619586	     150.091196
	 D(6,7,10,9)      =        -1.569516	     -89.926618
	 D(6,7,10,14)     =         0.525135	      30.087991
	 D(7,10,14,11)    =        -3.141539	    -179.996927
	 D(7,10,14,12)    =         1.046411	      59.954920
	 D(7,10,14,13)    =        -1.046478	     -59.958778
	 D(8,10,14,11)    =         1.046702	      59.971589
	 D(8,10,14,12)    =        -1.048534	     -60.076565
	 D(8,10,14,13)    =        -3.141423	    -179.990263
	 D(9,10,14,11)    =        -1.046814	     -59.978037
	 D(9,10,14,12)    =         3.141136	     179.973809
	 D(9,10,14,13)    =         1.048247	      60.060111

	Current energy   :      -157.8354454083

	Generating empirical Hessian (Schlegel '84) for each fragment.
	Adding user-defined constraint: Fragment 1; Coordinate 49:
		Value =    -1.570673; Fixed value    =    -1.570796
		Force =    -0.000062; Force constant =     0.500000
	Removing off-diagonal coupling between coordinate 49 and others.
	Taking RFO optimization step.
	Going to follow RFO solution 1.
	Using RFO vector 1.

	Determining step-restricting scale parameter for RS-RFO.
	Maximum step size allowed    0.10000

	 Iter      |step|        alpha        rfo_root  
	------------------------------------------------
	    0     0.23849       1.00000           1
	    1     0.18199       4.77776           1
	    2     0.13858      15.29541           1
	    3     0.11285      31.34788           1
	    4     0.10213      42.95136           1
	    5     0.10007      45.68966           1
	    6     0.10000      45.79246           1
	------------------------------------------------
	Norm of target step-size    0.10000
	Projected energy change by RFO approximation:        -0.0058884354

	Back-transformation to cartesian coordinates...
	Successfully converged to displaced geometry.

	--- Internal Coordinate Step in ANG or DEG, aJ/ANG or AJ/DEG ---
	 ---------------------------------------------------------------------------
	   Coordinate                Previous        Force       Change         New 
	   ----------                --------       ------       ------       ------
	    1 R(1,4)          =      1.069698     0.136283     0.013809     1.083507
	    2 R(2,4)          =      1.070683     0.135133     0.013719     1.084402
	    3 R(3,4)          =      1.069320     0.136514     0.013822     1.083142
	    4 R(4,7)          =      1.540645    -0.017109    -0.002013     1.538632
	    5 R(5,7)          =      1.070326     0.142229     0.014430     1.084756
	    6 R(6,7)          =      1.069761     0.142919     0.014483     1.084244
	    7 R(7,10)         =      1.540128     0.026781     0.003149     1.543276
	    8 R(8,10)         =      1.069514     0.144756     0.014662     1.084177
	    9 R(9,10)         =      1.069876     0.145067     0.014704     1.084580
	   10 R(10,14)        =      1.539395    -0.011637    -0.001367     1.538028
	   11 R(11,14)        =      1.068828     0.146764     0.014845     1.083673
	   12 R(12,14)        =      1.070107     0.134036     0.013592     1.083699
	   13 R(13,14)        =      1.070218     0.131249     0.013313     1.083530
	   14 B(1,4,2)        =    109.484805    -0.000329    -0.590380   108.894424
	   15 B(1,4,3)        =    109.499161    -0.000217    -0.393572   109.105589
	   16 B(1,4,7)        =    109.457783     0.000253     0.444457   109.902240
	   17 B(2,4,3)        =    109.437340    -0.000271    -0.478377   108.958964
	   18 B(2,4,7)        =    109.467262     0.000435     0.786045   110.253308
	   19 B(3,4,7)        =    109.480971     0.000129     0.219269   109.700241
	   20 B(4,7,5)        =    109.431343    -0.000247    -0.408843   109.022499
	   21 B(4,7,6)        =    109.528316    -0.000176    -0.249044   109.279272
	   22 B(4,7,10)       =    109.501062     0.000730     1.204158   110.705221
	   23 B(5,7,6)        =    109.469614    -0.000035    -0.240266   109.229347
	   24 B(5,7,10)       =    109.437654    -0.000061    -0.004251   109.433403
	   25 B(6,7,10)       =    109.459295    -0.000211    -0.309451   109.149844
	   26 B(7,10,8)       =    109.487349    -0.000217    -0.322613   109.164736
	   27 B(7,10,9)       =    109.467409    -0.000063    -0.009055   109.458353
	   28 B(7,10,14)      =    109.520492     0.000730     1.202866   110.723358
	   29 B(8,10,9)       =    109.450519    -0.000035    -0.239337   109.211182
	   30 B(8,10,14)      =    109.441119    -0.000166    -0.226167   109.214952
	   31 B(9,10,14)      =    109.460410    -0.000249    -0.414116   109.046294
	   32 B(10,14,11)     =    109.522364     0.000431     0.777023   110.299387
	   33 B(10,14,12)     =    109.506283     0.000241     0.423190   109.929472
	   34 B(10,14,13)     =    109.478063     0.000134     0.229714   109.707777
	   35 B(11,14,12)     =    109.467365    -0.000323    -0.580462   108.886903
	   36 B(11,14,13)     =    109.473345    -0.000275    -0.487144   108.986201
	   37 B(12,14,13)     =    109.379808    -0.000208    -0.376624   109.003184
	   38 D(1,4,7,5)      =    179.965873     0.000033     0.309346   180.275219
	   39 D(1,4,7,6)      =    -60.025575    -0.000037    -0.380451   -60.406026
	   40 D(1,4,7,10)     =     60.013132    -0.000018    -0.171685    59.841447
	   41 D(2,4,7,5)      =    -60.028143     0.000037     0.348238   -59.679905
	   42 D(2,4,7,6)      =     59.980409    -0.000032    -0.341559    59.638851
	   43 D(2,4,7,10)     =   -179.980883    -0.000014    -0.132793  -180.113676
	   44 D(3,4,7,5)      =     59.933911     0.000040     0.382831    60.316742
	   45 D(3,4,7,6)      =    179.942463    -0.000029    -0.306965   179.635497
	   46 D(3,4,7,10)     =    -60.018830    -0.000011    -0.098200   -60.117029
	   47 D(4,7,10,8)     =     30.010270     0.000037     0.376181    30.386451
	   48 D(4,7,10,9)     =    149.992457    -0.000012    -0.117558   149.874899
	   49 D(4,7,10,14)    =    -89.992935     0.000012     0.113425   -89.879511
	   50 D(5,7,10,8)     =    -89.938606     0.000013     0.136433   -89.802172
	   51 D(5,7,10,9)     =     30.043581    -0.000037    -0.357306    29.686275
	   52 D(5,7,10,14)    =    150.058189    -0.000013    -0.126323   149.931866
	   53 D(6,7,10,8)     =    150.091196     0.000061     0.619966   150.711162
	   54 D(6,7,10,9)     =    -89.926618     0.000011     0.126227   -89.800390
	   55 D(6,7,10,14)    =     30.087991     0.000035     0.357209    30.445200
	   56 D(7,10,14,11)   =   -179.996927    -0.000014    -0.130245  -180.127171
	   57 D(7,10,14,12)   =     59.954920    -0.000017    -0.164124    59.790796
	   58 D(7,10,14,13)   =    -59.958778    -0.000011    -0.104379   -60.063157
	   59 D(8,10,14,11)   =     59.971589    -0.000032    -0.334754    59.636835
	   60 D(8,10,14,12)   =    -60.076565    -0.000035    -0.368634   -60.445198
	   61 D(8,10,14,13)   =   -179.990263    -0.000029    -0.308889  -180.299151
	   62 D(9,10,14,11)   =    -59.978037     0.000036     0.342067   -59.635970
	   63 D(9,10,14,12)   =    179.973809     0.000033     0.308187   180.281997
	   64 D(9,10,14,13)   =     60.060111     0.000038     0.367932    60.428044
	 ---------------------------------------------------------------------------
	 Forces used to impose fixed constraints are not included.
	  Forces zeroed: 49 

  ==> Convergence Check <==

  Measures of convergence in internal coordinates in au.
  Criteria marked as inactive (o), active & met (*), and active & unmet ( ).
  --------------------------------------------------------------------------------------------- ~
   Step     Total Energy     Delta E     MAX Force     RMS Force      MAX Disp      RMS Disp    ~
  --------------------------------------------------------------------------------------------- ~
    Convergence Criteria    1.00e-06 *    3.00e-04 *             o    1.20e-03 *             o  ~
  --------------------------------------------------------------------------------------------- ~
      1    -157.83544541   -1.58e+02      1.78e-02      7.25e-03 o    2.81e-02      1.25e-02 o  ~
  ---------------------------------------------------------------------------------------------

	Writing optimization data to binary file.
	Structure for next step:
	Cartesian Geometry (in Angstrom)
	    H    -1.9146462978   0.2459895077   0.0449305624
	    H    -1.7668540147   1.8751997341  -0.6143935402
	    H    -1.4529519734   0.4766990989  -1.6429829542
	    C    -1.3549801006   0.8723739359  -0.6394690450
	    H     0.6744350817   1.5299130480  -0.9244428380
	    H     0.2197502859   1.2987525648   0.7687288147
	    C     0.1290104429   0.8957658515  -0.2337445763
	    H     0.2153441964  -1.1112850093  -1.0211438684
	    H     1.7809049180  -0.4719084119  -0.5055707488
	    C     0.7252183282  -0.5273900423  -0.2631638228
	    H     0.9780286397  -2.2143913066   1.0734168746
	    H    -0.4919864316  -1.2828060072   1.3567029355
	    H     1.0707005527  -0.6407382817   1.8655276209
	    C     0.5592883333  -1.2153093875   1.1023999860
			--------------------------
			 OPTKING Finished Execution 
			--------------------------

    Structure for next step:
    Molecular point group: c1
    Full point group: C1

    Geometry (in Angstrom), charge = 0, multiplicity = 1:

    H           -1.914814881641     0.245844803471     0.044996345709
    H           -1.767022598549     1.875055029909    -0.614327756877
    H           -1.453120557218     0.476554394625    -1.642917170886
    C           -1.355148684417     0.872229231702    -0.639403261684
    H            0.674266497924     1.529768343793    -0.924377054744
    H            0.219581702077     1.298607860554     0.768794597974
    C            0.128841859106     0.895621147279    -0.233678793019
    H            0.215175612551    -1.111429713575    -1.021078085088
    H            1.780736334235    -0.472053116084    -0.505504965527
    C            0.725049744362    -0.527534746558    -0.263098039545
    H            0.977860055930    -2.214536010802     1.073482657854
    H           -0.492155015409    -1.282950711473     1.356768718771
    H            1.070531968899    -0.640882985975     1.865593404169
    C            0.559119749465    -1.215454091755     1.102465769299

gradient() will perform analytic gradient computation.
    SCF Algorithm Type (re)set to DF.

*** tstart() called on lski1497
*** at Mon Feb 20 17:27:40 2017


         ---------------------------------------------------------
                                   SCF
            by Justin Turney, Rob Parrish, and Andy Simmonett
                              RHF Reference
                        1 Threads,   1000 MiB Core
         ---------------------------------------------------------

  ==> Geometry <==

    Molecular point group: c1
    Full point group: C1

    Geometry (in Angstrom), charge = 0, multiplicity = 1:

       Center              X                  Y                   Z               Mass       
    ------------   -----------------  -----------------  -----------------  -----------------
           H         -1.914814881641     0.245844803471     0.044996345709     1.007825032070
           H         -1.767022598549     1.875055029909    -0.614327756877     1.007825032070
           H         -1.453120557218     0.476554394625    -1.642917170886     1.007825032070
           C         -1.355148684417     0.872229231702    -0.639403261684    12.000000000000
           H          0.674266497924     1.529768343793    -0.924377054744     1.007825032070
           H          0.219581702077     1.298607860554     0.768794597974     1.007825032070
           C          0.128841859106     0.895621147279    -0.233678793019    12.000000000000
           H          0.215175612551    -1.111429713575    -1.021078085088     1.007825032070
           H          1.780736334235    -0.472053116084    -0.505504965527     1.007825032070
           C          0.725049744362    -0.527534746558    -0.263098039545    12.000000000000
           H          0.977860055930    -2.214536010802     1.073482657854     1.007825032070
           H         -0.492155015409    -1.282950711473     1.356768718771     1.007825032070
           H          1.070531968899    -0.640882985975     1.865593404169     1.007825032070
           C          0.559119749465    -1.215454091755     1.102465769299    12.000000000000

  Running in c1 symmetry.

  Rotational constants: A =      0.48663  B =      0.14702  C =      0.13531 [cm^-1]
  Rotational constants: A =  14588.71334  B =   4407.47384  C =   4056.45855 [MHz]
  Nuclear repulsion =  132.520094608840964

  Charge       = 0
  Multiplicity = 1
  Electrons    = 34
  Nalpha       = 17
  Nbeta        = 17

  ==> Algorithm <==

  SCF Algorithm Type is DF.
  DIIS enabled.
  MOM disabled.
  Fractional occupation disabled.
  Guess Type is READ.
  Energy threshold   = 1.00e-10
  Density threshold  = 1.00e-10
  Integral threshold = 0.00e+00

  ==> Primary Basis <==

  Basis Set: 6-31G(D)
    Number of shells: 44
    Number of basis function: 80
    Number of Cartesian functions: 80
    Spherical Harmonics?: false
    Max angular momentum: 2

  ==> Pre-Iterations <==

   -------------------------------------------------------
    Irrep   Nso     Nmo     Nalpha   Nbeta   Ndocc  Nsocc
   -------------------------------------------------------
     A         80      80       0       0       0       0
   -------------------------------------------------------
    Total      80      80      17      17      17       0
   -------------------------------------------------------

  ==> Integral Setup <==

  ==> DFJK: Density-Fitted J/K Matrices <==

    J tasked:                  Yes
    K tasked:                  Yes
    wK tasked:                  No
    OpenMP threads:              1
    Integrals threads:           1
    Memory (MB):               715
    Algorithm:                Core
    Integral Cache:           NONE
    Schwarz Cutoff:          1E-12
    Fitting Condition:       1E-12

   => Auxiliary Basis Set <=

  Basis Set: 
    Number of shells: 186
    Number of basis function: 574
    Number of Cartesian functions: 574
    Spherical Harmonics?: false
    Max angular momentum: 3

  Minimum eigenvalue in the overlap matrix is 5.3620184641E-03.
  Using Symmetric Orthogonalization.
  SCF Guess was Projection but file not found.
  Switching over to SAD guess.

  SCF Guess: Superposition of Atomic Densities via on-the-fly atomic UHF.

  ==> Iterations <==

                           Total Energy        Delta E     RMS |[F,P]|

   @DF-RHF iter   0:  -158.78872857129818   -1.58789e+02   4.59456e-02 
   @DF-RHF iter   1:  -157.19631790927303    1.59241e+00   4.13995e-03 
   @DF-RHF iter   2:  -157.28333019382785   -8.70123e-02   1.23810e-03 DIIS
   @DF-RHF iter   3:  -157.29236199346144   -9.03180e-03   4.54875e-04 DIIS
   @DF-RHF iter   4:  -157.29333258193265   -9.70588e-04   8.58011e-05 DIIS
   @DF-RHF iter   5:  -157.29338478342049   -5.22015e-05   1.50054e-05 DIIS
   @DF-RHF iter   6:  -157.29338657567530   -1.79225e-06   3.10789e-06 DIIS
   @DF-RHF iter   7:  -157.29338662788439   -5.22091e-08   9.35065e-07 DIIS
   @DF-RHF iter   8:  -157.29338663316219   -5.27780e-09   1.93822e-07 DIIS
   @DF-RHF iter   9:  -157.29338663346209   -2.99906e-10   5.20157e-08 DIIS
   @DF-RHF iter  10:  -157.29338663348312   -2.10321e-11   1.21421e-08 DIIS
   @DF-RHF iter  11:  -157.29338663348392   -7.95808e-13   3.09425e-09 DIIS
   @DF-RHF iter  12:  -157.29338663348375    1.70530e-13   6.54897e-10 DIIS
   @DF-RHF iter  13:  -157.29338663348375    0.00000e+00   1.31337e-10 DIIS
   @DF-RHF iter  14:  -157.29338663348381   -5.68434e-14   3.30220e-11 DIIS

  ==> Post-Iterations <==

    Orbital Energies (a.u.)
    -----------------------

    Doubly Occupied:                                                      

       1A    -11.212354     2A    -11.211785     3A    -11.206692  
       4A    -11.206614     5A     -1.069147     6A     -0.975691  
       7A     -0.866054     8A     -0.783601     9A     -0.627253  
      10A     -0.617142    11A     -0.577844    12A     -0.540905  
      13A     -0.521604    14A     -0.504814    15A     -0.469627  
      16A     -0.456803    17A     -0.449469  

    Virtual:                                                              

      18A      0.231289    19A      0.276897    20A      0.278301  
      21A      0.292845    22A      0.311963    23A      0.317681  
      24A      0.342830    25A      0.347512    26A      0.352179  
      27A      0.386146    28A      0.397391    29A      0.444493  
      30A      0.453775    31A      0.713565    32A      0.729202  
      33A      0.729719    34A      0.751693    35A      0.769760  
      36A      0.831501    37A      0.864318    38A      0.929619  
      39A      0.948709    40A      0.997469    41A      1.074799  
      42A      1.116420    43A      1.160381    44A      1.163941  
      45A      1.187375    46A      1.190715    47A      1.196145  
      48A      1.226249    49A      1.246674    50A      1.247049  
      51A      1.251347    52A      1.273309    53A      1.288450  
      54A      1.479083    55A      1.708331    56A      1.728772  
      57A      1.841818    58A      1.869371    59A      2.016786  
      60A      2.066317    61A      2.191010    62A      2.243810  
      63A      2.275775    64A      2.303215    65A      2.376013  
      66A      2.455413    67A      2.462496    68A      2.594391  
      69A      2.634701    70A      2.660270    71A      2.711383  
      72A      2.763931    73A      2.793687    74A      2.901084  
      75A      2.982240    76A      3.074949    77A      4.562358  
      78A      4.669010    79A      4.840282    80A      4.947125  

    Final Occupation by Irrep:
              A 
    DOCC [    17 ]

  Energy converged.

  @DF-RHF Final Energy:  -157.29338663348381

   => Energetics <=

    Nuclear Repulsion Energy =            132.5200946088409637
    One-Electron Energy =                -473.0321636936794221
    Two-Electron Energy =                 183.2186824513545673
    DFT Exchange-Correlation Energy =       0.0000000000000000
    Empirical Dispersion Energy =           0.0000000000000000
    PCM Polarization Energy =               0.0000000000000000
    EFP Energy =                            0.0000000000000000
    Total Energy =                       -157.2933866334838910


  Saving occupied orbitals to File 180.

*** tstop() called on lski1497 at Mon Feb 20 17:27:48 2017
Module time:
	user time   =       4.79 seconds =       0.08 minutes
	system time =       0.14 seconds =       0.00 minutes
	total time  =          8 seconds =       0.13 minutes
Total time:
	user time   =      27.30 seconds =       0.46 minutes
	system time =       0.82 seconds =       0.01 minutes
	total time  =         41 seconds =       0.68 minutes


Properties will be evaluated at   0.000000,   0.000000,   0.000000 Bohr

Properties computed using the SCF density matrix

  Nuclear Dipole Moment: (a.u.)
     X:    -0.6459      Y:    -0.2775      Z:     0.3763

  Electronic Dipole Moment: (a.u.)
     X:     0.6741      Y:     0.2893      Z:    -0.3929

  Dipole Moment: (a.u.)
     X:     0.0282      Y:     0.0118      Z:    -0.0166     Total:     0.0348

  Dipole Moment: (Debye)
     X:     0.0717      Y:     0.0301      Z:    -0.0421     Total:     0.0884


  //>>>>>>>>>>>>>>>>>>>>>>>>>>>>>>>>>>>//
  //               DFMP2               //
  //<<<<<<<<<<<<<<<<<<<<<<<<<<<<<<<<<<<//


*** tstart() called on lski1497
*** at Mon Feb 20 17:27:48 2017


*** tstop() called on lski1497 at Mon Feb 20 17:27:48 2017
Module time:
	user time   =       0.50 seconds =       0.01 minutes
	system time =       0.00 seconds =       0.00 minutes
	total time  =          0 seconds =       0.00 minutes
Total time:
	user time   =      27.82 seconds =       0.46 minutes
	system time =       0.82 seconds =       0.01 minutes
	total time  =         41 seconds =       0.68 minutes
	 --------------------------------------------------------
	                          DF-MP2                         
	      2nd-Order Density-Fitted Moller-Plesset Theory     
	              RMP2 Wavefunction,   1 Threads             
	                                                         
	        Rob Parrish, Justin Turney, Andy Simmonett,      
	           Ed Hohenstein, and C. David Sherrill          
	 --------------------------------------------------------

   => Auxiliary Basis Set <=

  Basis Set: 
    Number of shells: 132
    Number of basis function: 364
    Number of Cartesian functions: 414
    Spherical Harmonics?: true
    Max angular momentum: 3

	 --------------------------------------------------------
	                 NBF =    80, NAUX =   364
	 --------------------------------------------------------
	   CLASS    FOCC     OCC    AOCC    AVIR     VIR    FVIR
	   PAIRS       0      17      17      63      63       0
	 --------------------------------------------------------

DGAS Warning! /src/lib/libfock/apps.cc:80 is not currently checking restricted

         ------------------------------------------------------------
                                     CPHF                           
                                  Rob Parrish                       
         ------------------------------------------------------------

  ==> Geometry <==

    Molecular point group: c1
    Full point group: C1

    Geometry (in Angstrom), charge = 0, multiplicity = 1:

       Center              X                  Y                   Z               Mass       
    ------------   -----------------  -----------------  -----------------  -----------------
           H         -1.914814881641     0.245844803471     0.044996345709     1.007825032070
           H         -1.767022598549     1.875055029909    -0.614327756877     1.007825032070
           H         -1.453120557218     0.476554394625    -1.642917170886     1.007825032070
           C         -1.355148684417     0.872229231702    -0.639403261684    12.000000000000
           H          0.674266497924     1.529768343793    -0.924377054744     1.007825032070
           H          0.219581702077     1.298607860554     0.768794597974     1.007825032070
           C          0.128841859106     0.895621147279    -0.233678793019    12.000000000000
           H          0.215175612551    -1.111429713575    -1.021078085088     1.007825032070
           H          1.780736334235    -0.472053116084    -0.505504965527     1.007825032070
           C          0.725049744362    -0.527534746558    -0.263098039545    12.000000000000
           H          0.977860055930    -2.214536010802     1.073482657854     1.007825032070
           H         -0.492155015409    -1.282950711473     1.356768718771     1.007825032070
           H          1.070531968899    -0.640882985975     1.865593404169     1.007825032070
           C          0.559119749465    -1.215454091755     1.102465769299    12.000000000000

  Nuclear repulsion =  132.520094608840964
  Reference energy  = -157.293386633483806

  ==> Basis Set <==

  Basis Set: 6-31G(D)
    Number of shells: 44
    Number of basis function: 80
    Number of Cartesian functions: 80
    Spherical Harmonics?: false
    Max angular momentum: 2

  ==> CGRSolver (by Rob Parrish) <==

   Number of roots    =         1
   Preconditioning    =    JACOBI
   Convergence cutoff =     1E-06
   Maximum iterations =       100

  ==> CPHFRHamiltonian (by Rob Parrish) <== 

  ==> DFJK: Density-Fitted J/K Matrices <==

    J tasked:                  Yes
    K tasked:                  Yes
    wK tasked:                  No
    OpenMP threads:              1
    Integrals threads:           1
    Memory (MB):               715
    Algorithm:                Core
    Integral Cache:           NONE
    Schwarz Cutoff:          1E-12
    Fitting Condition:       1E-12

   => Auxiliary Basis Set <=

  Basis Set: 
    Number of shells: 186
    Number of basis function: 574
    Number of Cartesian functions: 574
    Spherical Harmonics?: false
    Max angular momentum: 3

  ==> CPHF Iterations <==

  => Iterations <=

             Iter  Converged  Remaining    Residual
  CGR           1          0          1   7.450E-02
  CGR           2          0          1   8.812E-03
  CGR           3          0          1   2.492E-03
  CGR           4          0          1   4.389E-04
  CGR           5          0          1   8.221E-05
  CGR           6          0          1   1.684E-05
  CGR           7          0          1   2.635E-06
  CGR           8          1          0   5.251E-07

    CGRSolver converged.

  ==> DFCorrGrad: Density-Fitted Correlated Gradients <==

    OpenMP threads:              1
    Integrals threads:           1
    Memory (MB):               715
    Schwarz Cutoff:          0E+00
    Fitting Condition:       1E-12

   => Auxiliary Basis Set <=

  Basis Set: 
    Number of shells: 186
    Number of basis function: 510
    Number of Cartesian functions: 574
    Spherical Harmonics?: true
    Max angular momentum: 3

	-----------------------------------------------------------
	 ==================> DF-MP2 Energies <==================== 
	-----------------------------------------------------------
	 Reference Energy          =    -157.2933866334838058 [Eh]
	 Singles Energy            =      -0.0000000000000000 [Eh]
	 Same-Spin Energy          =      -0.1244429171533720 [Eh]
	 Opposite-Spin Energy      =      -0.4217184536675996 [Eh]
	 Correlation Energy        =      -0.5461613708209716 [Eh]
	 Total Energy              =    -157.8395480043047883 [Eh]
	-----------------------------------------------------------
	 ================> DF-SCS-MP2 Energies <================== 
	-----------------------------------------------------------
	 SCS Same-Spin Scale       =       0.3333333333333333 [-]
	 SCS Opposite-Spin Scale   =       1.2000000000000000 [-]
	 SCS Same-Spin Energy      =      -0.0414809723844573 [Eh]
	 SCS Opposite-Spin Energy  =      -0.5060621444011195 [Eh]
	 SCS Correlation Energy    =      -0.5475431167855769 [Eh]
	 SCS Total Energy          =    -157.8409297502693960 [Eh]
	-----------------------------------------------------------


  -Total Gradient:
     Atom            X                  Y                   Z
    ------   -----------------  -----------------  -----------------
       1        0.005586158376     0.003555713184    -0.002710837987
       2        0.005088818440    -0.004674232787     0.000294323986
       3        0.002586528906     0.002105080377     0.006087922743
       4       -0.015601444553    -0.004328083012    -0.006567005921
       5       -0.003165015110    -0.006419600902     0.002136991258
       6       -0.003477063982    -0.005851125197    -0.005034773364
       7        0.011097599056     0.017203846016     0.010633428330
       8       -0.000513870160     0.004074241350     0.007492796076
       9       -0.006371533690     0.002320753280     0.003336309918
      10        0.005210133275    -0.010174191350    -0.019836071264
      11       -0.001513951496     0.006757272065    -0.002480502862
      12        0.005744412185     0.001384892906    -0.003793387564
      13       -0.002643509640    -0.001952480279    -0.005853114386
      14       -0.002027261607    -0.004002085651     0.016293921037


			-----------------------------------------
			 OPTKING 2.0: for geometry optimizations 
			  - R.A. King,  Bethel University        
			-----------------------------------------

	Previous internal coordinate definitions found.
	---Fragment 1 Geometry and Gradient---
	 H          -3.6184757215        0.4645793498        0.0850307704
	 H          -3.3391887819        3.5433404906       -1.1609112163
	 H          -2.7459998912        0.9005572933       -3.1046635120
	 C          -2.5608598829        1.6482743730       -1.2082970531
	 H           1.2741790217        2.8908432165       -1.7468194770
	 H           0.4149492807        2.4540132105        1.4528112426
	 C           0.2434758282        1.6924786872       -0.4415889219
	 H           0.4066229782       -2.1002977746       -1.9295579411
	 H           3.3651039866       -0.8920511096       -0.9552659437
	 C           1.3701454496       -0.9968961966       -0.4971832408
	 H           1.8478877020       -4.1848665718        2.0285882317
	 H          -0.9300381940       -2.4244254867        2.5639213041
	 H           2.0230122377       -1.2110933267        3.5254606092
	 C           1.0565832020       -2.2968753605        2.0833583749
	             0.0055861584        0.0035557132       -0.0027108380
	             0.0050888184       -0.0046742328        0.0002943240
	             0.0025865289        0.0021050804        0.0060879227
	            -0.0156014446       -0.0043280830       -0.0065670059
	            -0.0031650151       -0.0064196009        0.0021369913
	            -0.0034770640       -0.0058511252       -0.0050347734
	             0.0110975991        0.0172038460        0.0106334283
	            -0.0005138702        0.0040742413        0.0074927961
	            -0.0063715337        0.0023207533        0.0033363099
	             0.0052101333       -0.0101741913       -0.0198360713
	            -0.0015139515        0.0067572721       -0.0024805029
	             0.0057444122        0.0013848929       -0.0037933876
	            -0.0026435096       -0.0019524803       -0.0058531144
	            -0.0020272616       -0.0040020857        0.0162939210

	---Fragment 1 Intrafragment Coordinates---
	 - Coordinate -           - BOHR/RAD -       - ANG/DEG -
	 R(1,4)           =         2.047531	       1.083507
	 R(2,4)           =         2.049223	       1.084402
	 R(3,4)           =         2.046842	       1.083142
	 R(4,7)           =         2.907593	       1.538632
	 R(5,7)           =         2.049891	       1.084756
	 R(6,7)           =         2.048924	       1.084244
	 R(7,10)          =         2.916370	       1.543276
	 R(8,10)          =         2.048797	       1.084177
	 R(9,10)          =         2.049559	       1.084580
	 R(10,14)         =         2.906452	       1.538028
	 R(11,14)         =         2.047846	       1.083673
	 R(12,14)         =         2.047895	       1.083699
	 R(13,14)         =         2.047576	       1.083530
	 B(1,4,2)         =         1.900566	     108.894424
	 B(1,4,3)         =         1.904252	     109.105589
	 B(1,4,7)         =         1.918156	     109.902240
	 B(2,4,3)         =         1.901693	     108.958964
	 B(2,4,7)         =         1.924283	     110.253308
	 B(3,4,7)         =         1.914630	     109.700241
	 B(4,7,5)         =         1.902802	     109.022499
	 B(4,7,6)         =         1.907283	     109.279272
	 B(4,7,10)        =         1.932171	     110.705221
	 B(5,7,6)         =         1.906412	     109.229347
	 B(5,7,10)        =         1.909973	     109.433403
	 B(6,7,10)        =         1.905024	     109.149844
	 B(7,10,8)        =         1.905284	     109.164736
	 B(7,10,9)        =         1.910409	     109.458353
	 B(7,10,14)       =         1.932487	     110.723358
	 B(8,10,9)        =         1.906095	     109.211182
	 B(8,10,14)       =         1.906161	     109.214952
	 B(9,10,14)       =         1.903217	     109.046294
	 B(10,14,11)      =         1.925087	     110.299387
	 B(10,14,12)      =         1.918631	     109.929472
	 B(10,14,13)      =         1.914762	     109.707777
	 B(11,14,12)      =         1.900435	     108.886903
	 B(11,14,13)      =         1.902168	     108.986201
	 B(12,14,13)      =         1.902464	     109.003184
	 D(1,4,7,5)       =        -3.136789	    -179.724781
	 D(1,4,7,6)       =        -1.054284	     -60.406026
	 D(1,4,7,10)      =         1.044430	      59.841447
	 D(2,4,7,5)       =        -1.041611	     -59.679905
	 D(2,4,7,6)       =         1.040894	      59.638851
	 D(2,4,7,10)      =         3.139609	     179.886324
	 D(3,4,7,5)       =         1.052726	      60.316742
	 D(3,4,7,6)       =         3.135231	     179.635497
	 D(3,4,7,10)      =        -1.049240	     -60.117029
	 D(4,7,10,8)      =         0.530344	      30.386451
	 D(4,7,10,9)      =         2.615810	     149.874899
	 D(4,7,10,14)     =        -1.568693	     -89.879511
	 D(5,7,10,8)      =        -1.567344	     -89.802172
	 D(5,7,10,9)      =         0.518123	      29.686275
	 D(5,7,10,14)     =         2.616805	     149.931866
	 D(6,7,10,8)      =         2.630406	     150.711162
	 D(6,7,10,9)      =        -1.567312	     -89.800390
	 D(6,7,10,14)     =         0.531369	      30.445200
	 D(7,10,14,11)    =         3.139373	     179.872829
	 D(7,10,14,12)    =         1.043546	      59.790796
	 D(7,10,14,13)    =        -1.048300	     -60.063157
	 D(8,10,14,11)    =         1.040859	      59.636835
	 D(8,10,14,12)    =        -1.054968	     -60.445198
	 D(8,10,14,13)    =         3.136371	     179.700849
	 D(9,10,14,11)    =        -1.040844	     -59.635970
	 D(9,10,14,12)    =        -3.136671	    -179.718003
	 D(9,10,14,13)    =         1.054668	      60.428044

	Current energy   :      -157.8395480043

	Energy change for the previous step:
		Projected    :        -0.0058884354
		Actual       :        -0.0041025960

	Performing BFGS update.
	Previous computed or guess Hessian on step 1.
	Steps to be used in Hessian update: 1
	Adding user-defined constraint: Fragment 1; Coordinate 49:
		Value =    -1.568693; Fixed value    =    -1.570800
		Force =    -0.001106; Force constant =     0.525000
	Removing off-diagonal coupling between coordinate 49 and others.
	Taking RFO optimization step.
	Going to follow RFO solution 1.
	Using RFO vector 1.

	Determining step-restricting scale parameter for RS-RFO.
	Maximum step size allowed    0.10000

	 Iter      |step|        alpha        rfo_root  
	------------------------------------------------
	    0     0.21499       1.00000           1
	    1     0.16670       3.63605           1
	    2     0.13055      10.94593           1
	    3     0.10927      21.15184           1
	    4     0.10127      27.37722           1
	    5     0.10003      28.51546           1
	    6     0.10000      28.54302           1
	------------------------------------------------
	Norm of target step-size    0.10000
	Projected energy change by RFO approximation:        -0.0019508701

	Back-transformation to cartesian coordinates...
	Could not converge backtransformation.
	Using first guess instead.

	--- Internal Coordinate Step in ANG or DEG, aJ/ANG or AJ/DEG ---
	 ---------------------------------------------------------------------------
	   Coordinate                Previous        Force       Change         New 
	   ----------                --------       ------       ------       ------
	    1 R(1,4)          =      1.083507     0.054815     0.008626     1.092133
	    2 R(2,4)          =      1.084402     0.051482     0.007619     1.092021
	    3 R(3,4)          =      1.083142     0.054731     0.008413     1.091555
	    4 R(4,7)          =      1.538632    -0.025304    -0.006608     1.532024
	    5 R(5,7)          =      1.084756     0.055240     0.008246     1.093001
	    6 R(6,7)          =      1.084244     0.058667     0.009178     1.093422
	    7 R(7,10)         =      1.543276    -0.006115    -0.003117     1.540160
	    8 R(8,10)         =      1.084177     0.059245     0.009250     1.093426
	    9 R(9,10)         =      1.084580     0.056260     0.008384     1.092964
	   10 R(10,14)        =      1.538028    -0.022812    -0.006131     1.531897
	   11 R(11,14)        =      1.083673     0.055600     0.008175     1.091849
	   12 R(12,14)        =      1.083699     0.053955     0.008497     1.092197
	   13 R(13,14)        =      1.083530     0.052771     0.008136     1.091666
	   14 B(1,4,2)        =    108.894424    -0.000222    -0.784170   108.110254
	   15 B(1,4,3)        =    109.105589    -0.000182    -0.752561   108.353028
	   16 B(1,4,7)        =    109.902240     0.000202     0.781370   110.683609
	   17 B(2,4,3)        =    108.958964    -0.000185    -0.659984   108.298980
	   18 B(2,4,7)        =    110.253308     0.000250     0.839558   111.092866
	   19 B(3,4,7)        =    109.700241     0.000126     0.510852   110.211093
	   20 B(4,7,5)        =    109.022499    -0.000117    -0.285954   108.736545
	   21 B(4,7,6)        =    109.279272    -0.000066     0.019298   109.298571
	   22 B(4,7,10)       =    110.705221     0.000384     1.232152   111.937372
	   23 B(5,7,6)        =    109.229347    -0.000097    -1.026309   108.203038
	   24 B(5,7,10)       =    109.433403    -0.000012     0.139963   109.573366
	   25 B(6,7,10)       =    109.149844    -0.000096    -0.132197   109.017646
	   26 B(7,10,8)       =    109.164736    -0.000099    -0.144644   109.020091
	   27 B(7,10,9)       =    109.458353    -0.000012     0.133705   109.592059
	   28 B(7,10,14)      =    110.723358     0.000381     1.217854   111.941211
	   29 B(8,10,9)       =    109.211182    -0.000097    -1.021659   108.189523
	   30 B(8,10,14)      =    109.214952    -0.000058     0.056880   109.271832
	   31 B(9,10,14)      =    109.046294    -0.000119    -0.295254   108.751040
	   32 B(10,14,11)     =    110.299387     0.000246     0.814136   111.113523
	   33 B(10,14,12)     =    109.929472     0.000194     0.756383   110.685855
	   34 B(10,14,13)     =    109.707777     0.000127     0.513395   110.221172
	   35 B(11,14,12)     =    108.886903    -0.000218    -0.773945   108.112958
	   36 B(11,14,13)     =    108.986201    -0.000187    -0.670432   108.315769
	   37 B(12,14,13)     =    109.003184    -0.000173    -0.704380   108.298804
	   38 D(1,4,7,5)      =   -179.724781     0.000023     0.521850  -179.202931
	   39 D(1,4,7,6)      =    -60.406026    -0.000029    -0.874243   -61.280268
	   40 D(1,4,7,10)     =     59.841447    -0.000011    -0.241688    59.599760
	   41 D(2,4,7,5)      =    -59.679905     0.000026     0.592855   -59.087050
	   42 D(2,4,7,6)      =     59.638851    -0.000026    -0.803238    58.835612
	   43 D(2,4,7,10)     =    179.886324    -0.000008    -0.170683   179.715641
	   44 D(3,4,7,5)      =     60.316742     0.000028     0.636419    60.953161
	   45 D(3,4,7,6)      =    179.635497    -0.000024    -0.759673   178.875824
	   46 D(3,4,7,10)     =    -60.117029    -0.000006    -0.127118   -60.244148
	   47 D(4,7,10,8)     =     30.386451     0.000031     0.941135    31.327586
	   48 D(4,7,10,9)     =    149.874899    -0.000011    -0.306735   149.568164
	   49 D(4,7,10,14)    =    -89.879511     0.000008     0.193844   -89.685666
	   50 D(5,7,10,8)     =    -89.802172     0.000011     0.417080   -89.385092
	   51 D(5,7,10,9)     =     29.686275    -0.000032    -0.830789    28.855486
	   52 D(5,7,10,14)    =    149.931866    -0.000012    -0.330210   149.601656
	   53 D(6,7,10,8)     =    150.711162     0.000053     1.659131   152.370293
	   54 D(6,7,10,9)     =    -89.800390     0.000011     0.411262   -89.389129
	   55 D(6,7,10,14)    =     30.445200     0.000030     0.911841    31.357041
	   56 D(7,10,14,11)   =    179.872829    -0.000008    -0.161670   179.711159
	   57 D(7,10,14,12)   =     59.790796    -0.000010    -0.214059    59.576736
	   58 D(7,10,14,13)   =    -60.063157    -0.000007    -0.144390   -60.207547
	   59 D(8,10,14,11)   =     59.636835    -0.000025    -0.793127    58.843708
	   60 D(8,10,14,12)   =    -60.445198    -0.000028    -0.845517   -61.290715
	   61 D(8,10,14,13)   =    179.700849    -0.000025    -0.775847   178.925002
	   62 D(9,10,14,11)   =    -59.635970     0.000026     0.580150   -59.055821
	   63 D(9,10,14,12)   =   -179.718003     0.000023     0.527760  -179.190243
	   64 D(9,10,14,13)   =     60.428044     0.000026     0.597430    61.025473
	 ---------------------------------------------------------------------------
	 Forces used to impose fixed constraints are not included.
	  Forces zeroed: 49 

  ==> Convergence Check <==

  Measures of convergence in internal coordinates in au.
  Criteria marked as inactive (o), active & met (*), and active & unmet ( ).
  ---------------------------------------------------------------------------------------------
   Step     Total Energy     Delta E     MAX Force     RMS Force      MAX Disp      RMS Disp   
  ---------------------------------------------------------------------------------------------
    Convergence Criteria    1.00e-06 *    3.00e-04 *             o    1.20e-03 *             o
  ---------------------------------------------------------------------------------------------
      2    -157.83954800   -4.10e-03      7.19e-03      3.21e-03 o    2.90e-02      1.25e-02 o  ~
  ---------------------------------------------------------------------------------------------

	Writing optimization data to binary file.
	Structure for next step:
	Cartesian Geometry (in Angstrom)
	    H    -1.9422813619   0.2665280450   0.0387327098
	    H    -1.7725009449   1.8959751220  -0.6266935459
	    H    -1.4709183238   0.4864482936  -1.6537296973
	    C    -1.3572742854   0.8861311811  -0.6443579436
	    H     0.6724396447   1.5294305400  -0.9340714692
	    H     0.2191049210   1.3116344233   0.7641471422
	    C     0.1204348742   0.8904502155  -0.2400639415
	    H     0.2258753035  -1.1198542077  -1.0229400025
	    H     1.7874564198  -0.4696112429  -0.4986194071
	    C     0.7242803436  -0.5263520255  -0.2516236244
	    H     0.9977005829  -2.2296821623   1.0779428088
	    H    -0.4843497781  -1.3119661294   1.3743141310
	    H     1.0789433552  -0.6548934720   1.8819631736
	    C     0.5699910366  -1.2253991456   1.1027160326
			--------------------------
			 OPTKING Finished Execution 
			--------------------------

    Structure for next step:
    Molecular point group: c1
    Full point group: C1

    Geometry (in Angstrom), charge = 0, multiplicity = 1:

    H           -1.942199845598     0.266533971878     0.038659871562
    H           -1.772419428621     1.895981048810    -0.626766384130
    H           -1.470836807508     0.486454220485    -1.653802535564
    C           -1.357192769102     0.886137107978    -0.644430781862
    H            0.672521161027     1.529436466860    -0.934144307424
    H            0.219186437306     1.311640350170     0.764074303941
    C            0.120516390480     0.890456142368    -0.240136779705
    H            0.225956819786    -1.119848280847    -1.023012840714
    H            1.787537936092    -0.469605315994    -0.498692245359
    C            0.724361859941    -0.526346098683    -0.251696462608
    H            0.997782099239    -2.229676235485     1.077869970585
    H           -0.484268261825    -1.311960202570     1.374241292776
    H            1.079024871514    -0.654887545163     1.881890335320
    C            0.570072552902    -1.225393218704     1.102643194345

gradient() will perform analytic gradient computation.
    SCF Algorithm Type (re)set to DF.

*** tstart() called on lski1497
*** at Mon Feb 20 17:28:10 2017


         ---------------------------------------------------------
                                   SCF
            by Justin Turney, Rob Parrish, and Andy Simmonett
                              RHF Reference
                        1 Threads,   1000 MiB Core
         ---------------------------------------------------------

  ==> Geometry <==

    Molecular point group: c1
    Full point group: C1

    Geometry (in Angstrom), charge = 0, multiplicity = 1:

       Center              X                  Y                   Z               Mass       
    ------------   -----------------  -----------------  -----------------  -----------------
           H         -1.942199845598     0.266533971878     0.038659871562     1.007825032070
           H         -1.772419428621     1.895981048810    -0.626766384130     1.007825032070
           H         -1.470836807508     0.486454220485    -1.653802535564     1.007825032070
           C         -1.357192769102     0.886137107978    -0.644430781862    12.000000000000
           H          0.672521161027     1.529436466860    -0.934144307424     1.007825032070
           H          0.219186437306     1.311640350170     0.764074303941     1.007825032070
           C          0.120516390480     0.890456142368    -0.240136779705    12.000000000000
           H          0.225956819786    -1.119848280847    -1.023012840714     1.007825032070
           H          1.787537936092    -0.469605315994    -0.498692245359     1.007825032070
           C          0.724361859941    -0.526346098683    -0.251696462608    12.000000000000
           H          0.997782099239    -2.229676235485     1.077869970585     1.007825032070
           H         -0.484268261825    -1.311960202570     1.374241292776     1.007825032070
           H          1.079024871514    -0.654887545163     1.881890335320     1.007825032070
           C          0.570072552902    -1.225393218704     1.102643194345    12.000000000000

  Running in c1 symmetry.

  Rotational constants: A =      0.49165  B =      0.14498  C =      0.13359 [cm^-1]
  Rotational constants: A =  14739.44358  B =   4346.44384  C =   4004.86671 [MHz]
  Nuclear repulsion =  132.063450931663908

  Charge       = 0
  Multiplicity = 1
  Electrons    = 34
  Nalpha       = 17
  Nbeta        = 17

  ==> Algorithm <==

  SCF Algorithm Type is DF.
  DIIS enabled.
  MOM disabled.
  Fractional occupation disabled.
  Guess Type is READ.
  Energy threshold   = 1.00e-10
  Density threshold  = 1.00e-10
  Integral threshold = 0.00e+00

  ==> Primary Basis <==

  Basis Set: 6-31G(D)
    Number of shells: 44
    Number of basis function: 80
    Number of Cartesian functions: 80
    Spherical Harmonics?: false
    Max angular momentum: 2

  ==> Pre-Iterations <==

   -------------------------------------------------------
    Irrep   Nso     Nmo     Nalpha   Nbeta   Ndocc  Nsocc
   -------------------------------------------------------
     A         80      80       0       0       0       0
   -------------------------------------------------------
    Total      80      80      17      17      17       0
   -------------------------------------------------------

  ==> Integral Setup <==

  ==> DFJK: Density-Fitted J/K Matrices <==

    J tasked:                  Yes
    K tasked:                  Yes
    wK tasked:                  No
    OpenMP threads:              1
    Integrals threads:           1
    Memory (MB):               715
    Algorithm:                Core
    Integral Cache:           NONE
    Schwarz Cutoff:          1E-12
    Fitting Condition:       1E-12

   => Auxiliary Basis Set <=

  Basis Set: 
    Number of shells: 186
    Number of basis function: 574
    Number of Cartesian functions: 574
    Spherical Harmonics?: false
    Max angular momentum: 3

  Minimum eigenvalue in the overlap matrix is 5.4166176931E-03.
  Using Symmetric Orthogonalization.
  SCF Guess was Projection but file not found.
  Switching over to SAD guess.

  SCF Guess: Superposition of Atomic Densities via on-the-fly atomic UHF.

  ==> Iterations <==

                           Total Energy        Delta E     RMS |[F,P]|

   @DF-RHF iter   0:  -158.74445499345126   -1.58744e+02   4.55937e-02 
   @DF-RHF iter   1:  -157.19722503118516    1.54723e+00   4.11953e-03 
   @DF-RHF iter   2:  -157.28413264836757   -8.69076e-02   1.24122e-03 DIIS
   @DF-RHF iter   3:  -157.29322729744047   -9.09465e-03   4.57846e-04 DIIS
   @DF-RHF iter   4:  -157.29420895019211   -9.81653e-04   8.58041e-05 DIIS
   @DF-RHF iter   5:  -157.29426103499100   -5.20848e-05   1.47355e-05 DIIS
   @DF-RHF iter   6:  -157.29426278850815   -1.75352e-06   2.89227e-06 DIIS
   @DF-RHF iter   7:  -157.29426283509775   -4.65896e-08   8.95546e-07 DIIS
   @DF-RHF iter   8:  -157.29426283975937   -4.66162e-09   1.84172e-07 DIIS
   @DF-RHF iter   9:  -157.29426284002562   -2.66255e-10   5.00850e-08 DIIS
   @DF-RHF iter  10:  -157.29426284004495   -1.93268e-11   1.21674e-08 DIIS
   @DF-RHF iter  11:  -157.29426284004552   -5.68434e-13   2.90561e-09 DIIS
   @DF-RHF iter  12:  -157.29426284004575   -2.27374e-13   5.95447e-10 DIIS
   @DF-RHF iter  13:  -157.29426284004563    1.13687e-13   1.16928e-10 DIIS
   @DF-RHF iter  14:  -157.29426284004569   -5.68434e-14   2.96164e-11 DIIS

  ==> Post-Iterations <==

    Orbital Energies (a.u.)
    -----------------------

    Doubly Occupied:                                                      

       1A    -11.215155     2A    -11.214587     3A    -11.209717  
       4A    -11.209699     5A     -1.068618     6A     -0.975674  
       7A     -0.864841     8A     -0.780878     9A     -0.624594  
      10A     -0.615311    11A     -0.575961    12A     -0.539197  
      13A     -0.520367    14A     -0.503901    15A     -0.467169  
      16A     -0.455433    17A     -0.452692  

    Virtual:                                                              

      18A      0.229719    19A      0.275663    20A      0.275990  
      21A      0.290573    22A      0.310604    23A      0.316247  
      24A      0.341398    25A      0.343641    26A      0.349992  
      27A      0.380843    28A      0.396412    29A      0.446272  
      30A      0.457632    31A      0.711853    32A      0.727326  
      33A      0.731172    34A      0.750533    35A      0.771096  
      36A      0.833782    37A      0.869412    38A      0.930799  
      39A      0.952913    40A      0.998740    41A      1.074995  
      42A      1.116609    43A      1.151213    44A      1.154464  
      45A      1.177661    46A      1.182608    47A      1.188378  
      48A      1.223968    49A      1.239087    50A      1.242424  
      51A      1.245303    52A      1.263470    53A      1.277760  
      54A      1.471645    55A      1.712713    56A      1.730548  
      57A      1.839499    58A      1.865709    59A      2.011675  
      60A      2.051492    61A      2.192135    62A      2.242481  
      63A      2.269338    64A      2.302672    65A      2.368589  
      66A      2.444820    67A      2.448513    68A      2.583872  
      69A      2.627771    70A      2.652498    71A      2.706898  
      72A      2.757370    73A      2.792406    74A      2.912831  
      75A      2.985570    76A      3.069457    77A      4.557100  
      78A      4.663375    79A      4.837290    80A      4.943263  

    Final Occupation by Irrep:
              A 
    DOCC [    17 ]

  Energy converged.

  @DF-RHF Final Energy:  -157.29426284004569

   => Energetics <=

    Nuclear Repulsion Energy =            132.0634509316639082
    One-Electron Energy =                -472.1278427116612875
    Two-Electron Energy =                 182.7701289399516895
    DFT Exchange-Correlation Energy =       0.0000000000000000
    Empirical Dispersion Energy =           0.0000000000000000
    PCM Polarization Energy =               0.0000000000000000
    EFP Energy =                            0.0000000000000000
    Total Energy =                       -157.2942628400456897


  Saving occupied orbitals to File 180.

*** tstop() called on lski1497 at Mon Feb 20 17:28:17 2017
Module time:
	user time   =       4.76 seconds =       0.08 minutes
	system time =       0.13 seconds =       0.00 minutes
	total time  =          7 seconds =       0.12 minutes
Total time:
	user time   =      49.69 seconds =       0.83 minutes
	system time =       1.41 seconds =       0.02 minutes
	total time  =         70 seconds =       1.17 minutes


Properties will be evaluated at   0.000000,   0.000000,   0.000000 Bohr

Properties computed using the SCF density matrix

  Nuclear Dipole Moment: (a.u.)
     X:    -0.6447      Y:    -0.2774      Z:     0.3753

  Electronic Dipole Moment: (a.u.)
     X:     0.6709      Y:     0.2887      Z:    -0.3906

  Dipole Moment: (a.u.)
     X:     0.0262      Y:     0.0113      Z:    -0.0154     Total:     0.0324

  Dipole Moment: (Debye)
     X:     0.0666      Y:     0.0287      Z:    -0.0390     Total:     0.0824


  //>>>>>>>>>>>>>>>>>>>>>>>>>>>>>>>>>>>//
  //               DFMP2               //
  //<<<<<<<<<<<<<<<<<<<<<<<<<<<<<<<<<<<//


*** tstart() called on lski1497
*** at Mon Feb 20 17:28:17 2017


*** tstop() called on lski1497 at Mon Feb 20 17:28:17 2017
Module time:
	user time   =       0.48 seconds =       0.01 minutes
	system time =       0.00 seconds =       0.00 minutes
	total time  =          0 seconds =       0.00 minutes
Total time:
	user time   =      50.19 seconds =       0.84 minutes
	system time =       1.41 seconds =       0.02 minutes
	total time  =         70 seconds =       1.17 minutes
	 --------------------------------------------------------
	                          DF-MP2                         
	      2nd-Order Density-Fitted Moller-Plesset Theory     
	              RMP2 Wavefunction,   1 Threads             
	                                                         
	        Rob Parrish, Justin Turney, Andy Simmonett,      
	           Ed Hohenstein, and C. David Sherrill          
	 --------------------------------------------------------

   => Auxiliary Basis Set <=

  Basis Set: 
    Number of shells: 132
    Number of basis function: 364
    Number of Cartesian functions: 414
    Spherical Harmonics?: true
    Max angular momentum: 3

	 --------------------------------------------------------
	                 NBF =    80, NAUX =   364
	 --------------------------------------------------------
	   CLASS    FOCC     OCC    AOCC    AVIR     VIR    FVIR
	   PAIRS       0      17      17      63      63       0
	 --------------------------------------------------------

DGAS Warning! /src/lib/libfock/apps.cc:80 is not currently checking restricted

         ------------------------------------------------------------
                                     CPHF                           
                                  Rob Parrish                       
         ------------------------------------------------------------

  ==> Geometry <==

    Molecular point group: c1
    Full point group: C1

    Geometry (in Angstrom), charge = 0, multiplicity = 1:

       Center              X                  Y                   Z               Mass       
    ------------   -----------------  -----------------  -----------------  -----------------
           H         -1.942199845598     0.266533971878     0.038659871562     1.007825032070
           H         -1.772419428621     1.895981048810    -0.626766384130     1.007825032070
           H         -1.470836807508     0.486454220485    -1.653802535564     1.007825032070
           C         -1.357192769102     0.886137107978    -0.644430781862    12.000000000000
           H          0.672521161027     1.529436466860    -0.934144307424     1.007825032070
           H          0.219186437306     1.311640350170     0.764074303941     1.007825032070
           C          0.120516390480     0.890456142368    -0.240136779705    12.000000000000
           H          0.225956819786    -1.119848280847    -1.023012840714     1.007825032070
           H          1.787537936092    -0.469605315994    -0.498692245359     1.007825032070
           C          0.724361859941    -0.526346098683    -0.251696462608    12.000000000000
           H          0.997782099239    -2.229676235485     1.077869970585     1.007825032070
           H         -0.484268261825    -1.311960202570     1.374241292776     1.007825032070
           H          1.079024871514    -0.654887545163     1.881890335320     1.007825032070
[...]
    Max angular momentum: 3

  ==> CPHF Iterations <==

  => Iterations <=

             Iter  Converged  Remaining    Residual
  CGR           1          0          1   7.598E-02
  CGR           2          0          1   9.164E-03
  CGR           3          0          1   2.596E-03
  CGR           4          0          1   4.364E-04
  CGR           5          0          1   8.339E-05
  CGR           6          0          1   1.693E-05
  CGR           7          0          1   2.456E-06
  CGR           8          1          0   4.773E-07

    CGRSolver converged.

  ==> DFCorrGrad: Density-Fitted Correlated Gradients <==

    OpenMP threads:              1
    Integrals threads:           1
    Memory (MB):               715
    Schwarz Cutoff:          0E+00
    Fitting Condition:       1E-12

   => Auxiliary Basis Set <=

  Basis Set: 
    Number of shells: 186
    Number of basis function: 510
    Number of Cartesian functions: 574
    Spherical Harmonics?: true
    Max angular momentum: 3

	-----------------------------------------------------------
	 ==================> DF-MP2 Energies <==================== 
	-----------------------------------------------------------
	 Reference Energy          =    -157.2946464492091252 [Eh]
	 Singles Energy            =      -0.0000000000000000 [Eh]
	 Same-Spin Energy          =      -0.1244572245026146 [Eh]
	 Opposite-Spin Energy      =      -0.4224231759995541 [Eh]
	 Correlation Energy        =      -0.5468804005021688 [Eh]
	 Total Energy              =    -157.8415268497113004 [Eh]
	-----------------------------------------------------------
	 ================> DF-SCS-MP2 Energies <================== 
	-----------------------------------------------------------
	 SCS Same-Spin Scale       =       0.3333333333333333 [-]
	 SCS Opposite-Spin Scale   =       1.2000000000000000 [-]
	 SCS Same-Spin Energy      =      -0.0414857415008715 [Eh]
	 SCS Opposite-Spin Energy  =      -0.5069078111994649 [Eh]
	 SCS Correlation Energy    =      -0.5483935527003365 [Eh]
	 SCS Total Energy          =    -157.8430400019094577 [Eh]
	-----------------------------------------------------------


  -Total Gradient:
     Atom            X                  Y                   Z
    ------   -----------------  -----------------  -----------------
       1       -0.000007344576    -0.000001085551    -0.000000029994
       2       -0.000002147890     0.000004736138     0.000001213012
       3        0.000006248445     0.000002734842    -0.000000945170
       4        0.000756645877     0.000310273633    -0.002732729739
       5       -0.000003714105     0.000000714794     0.000000890494
       6       -0.000004453778     0.000000504337    -0.000012437130
       7       -0.000086180156     0.000008755614     0.004112772106
       8        0.000008451628     0.000001235744     0.000010205340
       9       -0.000001560491    -0.000002992130     0.000002137580
      10       -0.003169875684    -0.001410153159    -0.002209565448
      11        0.000000979833    -0.000004909689    -0.000000629416
      12       -0.000003091830    -0.000003396840     0.000006063075
      13        0.000004440577     0.000001886438    -0.000005000694
      14        0.002501602153     0.001091695832     0.000828055983


			-----------------------------------------
			 OPTKING 2.0: for geometry optimizations 
			  - R.A. King,  Bethel University        
			-----------------------------------------

	Previous internal coordinate definitions found.
	---Fragment 1 Geometry and Gradient---
	 H          -3.6951317849        0.4639800940        0.0073340133
	 H          -3.3749898834        3.5721274562       -1.1675930036
	 H          -2.7882082705        0.9595857564       -3.1684911537
	 C          -2.5699538658        1.6699419970       -1.2400105866
	 H           1.2539672142        2.8682587230       -1.8000293112
	 H           0.4379200101        2.5373969064        1.3929208973
	 C           0.2102027190        1.6678892211       -0.4735816000
	 H           0.4997133286       -2.1339958974       -1.9408088227
	 H           3.3837026017       -0.8729707406       -0.9099101669
	 C           1.3678924670       -0.9889386744       -0.4485493326
	 H           1.8606246050       -4.2236583866        2.0524824554
	 H          -0.8901150468       -2.4367108254        2.6719744880
	 H           2.1018155430       -1.2548981578        3.5695734535
	 C           1.0935399683       -2.3051457925        2.1027257950
	            -0.0000073446       -0.0000010856       -0.0000000300
	            -0.0000021479        0.0000047361        0.0000012130
	             0.0000062484        0.0000027348       -0.0000009452
	             0.0007566459        0.0003102736       -0.0027327297
	            -0.0000037141        0.0000007148        0.0000008905
	            -0.0000044538        0.0000005043       -0.0000124371
	            -0.0000861802        0.0000087556        0.0041127721
	             0.0000084516        0.0000012357        0.0000102053
	            -0.0000015605       -0.0000029921        0.0000021376
	            -0.0031698757       -0.0014101532       -0.0022095654
	             0.0000009798       -0.0000049097       -0.0000006294
	            -0.0000030918       -0.0000033968        0.0000060631
	             0.0000044406        0.0000018864       -0.0000050007
	             0.0025016022        0.0010916958        0.0008280560

	---Fragment 1 Intrafragment Coordinates---
	 - Coordinate -           - BOHR/RAD -       - ANG/DEG -
	 R(1,4)           =         2.067907	       1.094289
	 R(2,4)           =         2.066794	       1.093700
	 R(3,4)           =         2.066707	       1.093654
	 R(4,7)           =         2.883867	       1.526077
	 R(5,7)           =         2.071182	       1.096022
	 R(6,7)           =         2.071649	       1.096270
	 R(7,10)          =         2.898207	       1.533665
	 R(8,10)          =         2.071649	       1.096269
	 R(9,10)          =         2.071182	       1.096022
	 R(10,14)         =         2.883865	       1.526075
	 R(11,14)         =         2.066793	       1.093700
	 R(12,14)         =         2.067907	       1.094289
	 R(13,14)         =         2.066708	       1.093655
	 B(1,4,2)         =         1.879328	     107.677580
	 B(1,4,3)         =         1.880672	     107.754591
	 B(1,4,7)         =         1.943167	     111.335281
	 B(2,4,3)         =         1.883782	     107.932731
	 B(2,4,7)         =         1.946412	     111.521175
	 B(3,4,7)         =         1.927889	     110.459904
	 B(4,7,5)         =         1.891471	     108.373322
	 B(4,7,6)         =         1.923159	     110.188867
	 B(4,7,10)        =         1.969293	     112.832169
	 B(5,7,6)         =         1.852889	     106.162732
	 B(5,7,10)        =         1.912952	     109.604088
	 B(6,7,10)        =         1.910355	     109.455301
	 B(7,10,8)        =         1.910355	     109.455301
	 B(7,10,9)        =         1.912953	     109.604126
	 B(7,10,14)       =         1.969291	     112.832090
	 B(8,10,9)        =         1.852889	     106.162737
	 B(8,10,14)       =         1.923159	     110.188871
	 B(9,10,14)       =         1.891472	     108.373362
	 B(10,14,11)      =         1.946411	     111.521157
	 B(10,14,12)      =         1.943168	     111.335326
	 B(10,14,13)      =         1.927889	     110.459902
	 B(11,14,12)      =         1.879328	     107.677557
	 B(11,14,13)      =         1.883781	     107.932693
	 B(12,14,13)      =         1.880673	     107.754626
	 D(1,4,7,5)       =         3.121939	     178.873957
	 D(1,4,7,6)       =        -1.140800	     -65.363008
	 D(1,4,7,10)      =         1.000265	      57.310963
	 D(2,4,7,5)       =        -1.061694	     -60.830591
	 D(2,4,7,6)       =         0.958752	      54.932444
	 D(2,4,7,10)      =         3.099817	     177.606415
	 D(3,4,7,5)       =         1.033142	      59.194688
	 D(3,4,7,6)       =         3.053588	     174.957723
	 D(3,4,7,10)      =        -1.088532	     -62.368306
	 D(4,7,10,8)      =         0.585462	      33.544528
	 D(4,7,10,9)      =         2.610968	     149.597472
	 D(4,7,10,14)     =        -1.562741	     -89.538462
	 D(5,7,10,8)      =        -1.524013	     -87.319513
	 D(5,7,10,9)      =         0.501493	      28.733431
	 D(5,7,10,14)     =         2.610969	     149.597497
	 D(6,7,10,8)      =         2.733667	     156.627569
	 D(6,7,10,9)      =        -1.524013	     -87.319487
	 D(6,7,10,14)     =         0.585463	      33.544579
	 D(7,10,14,11)    =         3.099814	     177.606281
	 D(7,10,14,12)    =         1.000263	      57.310840
	 D(7,10,14,13)    =        -1.088536	     -62.368501
	 D(8,10,14,11)    =         0.958751	      54.932365
	 D(8,10,14,12)    =        -1.140801	     -65.363077
	 D(8,10,14,13)    =         3.053586	     174.957582
	 D(9,10,14,11)    =        -1.061696	     -60.830700
	 D(9,10,14,12)    =         3.121938	     178.873858
	 D(9,10,14,13)    =         1.033139	      59.194517

	Current energy   :      -157.8415268497

	Energy change for the previous step:
		Projected    :        -0.0000056789
		Actual       :        -0.0000005765

	Performing BFGS update.
	Previous computed or guess Hessian on step 1.
	Steps to be used in Hessian update: 7 6
	Adding user-defined constraint: Fragment 1; Coordinate 49:
		Value =    -1.562741; Fixed value    =    -1.570800
		Force =    -0.005440; Force constant =     0.675000
	Removing off-diagonal coupling between coordinate 49 and others.
	Taking RFO optimization step.
	Going to follow RFO solution 1.
	Rejecting RFO root 1 because normalization gives large value.
	Rejecting RFO root 2 because normalization gives large value.
	Using RFO vector 3.
	Norm of target step-size    0.00247
	Projected energy change by RFO approximation:         0.0000000950

	Back-transformation to cartesian coordinates...
	Successfully converged to displaced geometry.

	--- Internal Coordinate Step in ANG or DEG, aJ/ANG or AJ/DEG ---
	 ---------------------------------------------------------------------------
	   Coordinate                Previous        Force       Change         New 
	   ----------                --------       ------       ------       ------
	    1 R(1,4)          =      1.094289    -0.000038    -0.000003     1.094286
	    2 R(2,4)          =      1.093700    -0.000042    -0.000002     1.093698
	    3 R(3,4)          =      1.093654     0.000005     0.000008     1.093662
	    4 R(4,7)          =      1.526077    -0.000002    -0.000007     1.526070
	    5 R(5,7)          =      1.096022     0.000017     0.000004     1.096026
	    6 R(6,7)          =      1.096270     0.000095     0.000025     1.096294
	    7 R(7,10)         =      1.533665    -0.000198    -0.000043     1.533623
	    8 R(8,10)         =      1.096269     0.000096     0.000025     1.096294
	    9 R(9,10)         =      1.096022     0.000018     0.000004     1.096026
	   10 R(10,14)        =      1.526075     0.000004    -0.000005     1.526071
	   11 R(11,14)        =      1.093700    -0.000040    -0.000001     1.093699
	   12 R(12,14)        =      1.094289    -0.000040    -0.000004     1.094286
	   13 R(13,14)        =      1.093655     0.000002     0.000007     1.093662
	   14 B(1,4,2)        =    107.677580     0.000000    -0.000315   107.677265
	   15 B(1,4,3)        =    107.754591    -0.000000    -0.001281   107.753310
	   16 B(1,4,7)        =    111.335281    -0.000001    -0.004816   111.330464
	   17 B(2,4,3)        =    107.932731    -0.000000    -0.000172   107.932559
	   18 B(2,4,7)        =    111.521175     0.000000     0.000046   111.521221
	   19 B(3,4,7)        =    110.459904     0.000001     0.006454   110.466358
	   20 B(4,7,5)        =    108.373322    -0.000004     0.004079   108.377401
	   21 B(4,7,6)        =    110.188867     0.000005     0.000981   110.189848
	   22 B(4,7,10)       =    112.832169    -0.000002    -0.005615   112.826555
	   23 B(5,7,6)        =    106.162732    -0.000000     0.001667   106.164399
	   24 B(5,7,10)       =    109.604088     0.000001    -0.004719   109.599369
	   25 B(6,7,10)       =    109.455301     0.000000     0.003980   109.459281
	   26 B(7,10,8)       =    109.455301     0.000000     0.003970   109.459270
	   27 B(7,10,9)       =    109.604126     0.000000    -0.004808   109.599318
	   28 B(7,10,14)      =    112.832090    -0.000002    -0.005538   112.826552
	   29 B(8,10,9)       =    106.162737    -0.000000     0.001676   106.164413
	   30 B(8,10,14)      =    110.188871     0.000005     0.001019   110.189890
	   31 B(9,10,14)      =    108.373362    -0.000004     0.004049   108.377412
	   32 B(10,14,11)     =    111.521157     0.000000     0.000141   111.521298
	   33 B(10,14,12)     =    111.335326    -0.000001    -0.004900   111.330427
	   34 B(10,14,13)     =    110.459902     0.000001     0.006461   110.466363
	   35 B(11,14,12)     =    107.677557     0.000000    -0.000322   107.677235
	   36 B(11,14,13)     =    107.932693    -0.000000    -0.000192   107.932501
	   37 B(12,14,13)     =    107.754626    -0.000000    -0.001275   107.753351
	   38 D(1,4,7,5)      =    178.873957    -0.000000     0.029631   178.903588
	   39 D(1,4,7,6)      =    -65.363008    -0.000000     0.034482   -65.328526
	   40 D(1,4,7,10)     =     57.310963     0.000000     0.036389    57.347352
	   41 D(2,4,7,5)      =    -60.830591    -0.000000     0.025962   -60.804629
	   42 D(2,4,7,6)      =     54.932444    -0.000000     0.030814    54.963258
	   43 D(2,4,7,10)     =    177.606415     0.000000     0.032721   177.639135
	   44 D(3,4,7,5)      =     59.194688    -0.000000     0.030107    59.224794
	   45 D(3,4,7,6)      =    174.957723    -0.000000     0.034958   174.992681
	   46 D(3,4,7,10)     =    -62.368306     0.000001     0.036865   -62.331441
	   47 D(4,7,10,8)     =     33.544528    -0.000001    -0.005786    33.538742
	   48 D(4,7,10,9)     =    149.597472    -0.000001    -0.004237   149.593235
	   49 D(4,7,10,14)    =    -89.538462    -0.000003    -0.006153   -89.544616
	   50 D(5,7,10,8)     =    -87.319513     0.000000    -0.003919   -87.323432
	   51 D(5,7,10,9)     =     28.733431     0.000000    -0.002370    28.731061
	   52 D(5,7,10,14)    =    149.597497    -0.000001    -0.004287   149.593210
	   53 D(6,7,10,8)     =    156.627569     0.000000    -0.005513   156.622055
	   54 D(6,7,10,9)     =    -87.319487     0.000000    -0.003964   -87.323451
	   55 D(6,7,10,14)    =     33.544579    -0.000001    -0.005881    33.538698
	   56 D(7,10,14,11)   =    177.606281     0.000000     0.033237   177.639519
	   57 D(7,10,14,12)   =     57.310840     0.000000     0.036906    57.347746
	   58 D(7,10,14,13)   =    -62.368501     0.000001     0.037425   -62.331077
	   59 D(8,10,14,11)   =     54.932365    -0.000000     0.031262    54.963626
	   60 D(8,10,14,12)   =    -65.363077    -0.000000     0.034931   -65.328146
	   61 D(8,10,14,13)   =    174.957582    -0.000000     0.035449   174.993031
	   62 D(9,10,14,11)   =    -60.830700    -0.000000     0.026395   -60.804305
	   63 D(9,10,14,12)   =    178.873858    -0.000000     0.030064   178.903922
	   64 D(9,10,14,13)   =     59.194517    -0.000000     0.030583    59.225100
	 ---------------------------------------------------------------------------
	 Forces used to impose fixed constraints are not included.
	  Forces zeroed: 49 

  ==> Convergence Check <==

  Measures of convergence in internal coordinates in au.
  Criteria marked as inactive (o), active & met (*), and active & unmet ( ).
  ---------------------------------------------------------------------------------------------
   Step     Total Energy     Delta E     MAX Force     RMS Force      MAX Disp      RMS Disp   
  ---------------------------------------------------------------------------------------------
    Convergence Criteria    1.00e-06 *    3.00e-04 *             o    1.20e-03 *             o
  ---------------------------------------------------------------------------------------------
      8    -157.84152685   -5.76e-07 *    7.55e-05 *    2.72e-05 o    6.53e-04 *    3.08e-04 o  ~
  ---------------------------------------------------------------------------------------------


  **** Optimization is complete! (in 8 steps) ****

  ==> Optimization Summary <==

  Measures of convergence in internal coordinates in au.
  --------------------------------------------------------------------------------------------------------------- ~
   Step         Total Energy             Delta E       MAX Force       RMS Force        MAX Disp        RMS Disp  ~
  --------------------------------------------------------------------------------------------------------------- ~
      1    -157.835445408263   -157.835445408263      0.01781391      0.00725498      0.02805321      0.01250230  ~
      2    -157.839548004305     -0.004102596042      0.00719107      0.00321117      0.02895730      0.01251817  ~
      3    -157.841049327207     -0.001501322902      0.00206905      0.00096534      0.04364070      0.01251829  ~
      4    -157.841443746136     -0.000394418929      0.00116098      0.00027992      0.02792308      0.01249799  ~
      5    -157.841522090683     -0.000078344547      0.00014157      0.00006014      0.01931966      0.00958041  ~
      6    -157.841536148420     -0.000014057737      0.00031632      0.00007391      0.00613346      0.00303915  ~
      7    -157.841526273258      0.000009875162      0.00009315      0.00002951      0.00456697      0.00231222  ~
      8    -157.841526849711     -0.000000576454      0.00015136      0.00003314      0.00065319      0.00030847  ~
  --------------------------------------------------------------------------------------------------------------- ~

	Writing optimization data to binary file.
	Final energy is   -157.8415268497113
	Final (previous) structure:
	Cartesian Geometry (in Angstrom)
	    H    -1.9553795233   0.2455276910   0.0038809927
	    H    -1.7859677255   1.8902884360  -0.6178636064
	    H    -1.4754562695   0.5077909120  -1.6766933042
	    C    -1.3599610129   0.8836952445  -0.6561853408
	    H     0.6635708701   1.5178171446  -0.9525344863
	    H     0.2317372885   1.3427326120   0.7371019922
	    C     0.1112344881   0.8826089623  -0.2506085891
	    H     0.2644369043  -1.1292619921  -1.0270317952
	    H     1.7905782975  -0.4619562197  -0.4815037222
	    C     0.7238575173  -0.5233238072  -0.2373620837
	    H     0.9846001347  -2.2350637551   1.0861269364
	    H    -0.4710285958  -1.2894518327   1.4139480010
	    H     1.1122328820  -0.6640635042   1.8889369160
	    C     0.5786764279  -1.2198306159   1.1127145666
	Saving final (previous) structure.
			--------------------------
			 OPTKING Finished Execution 
			--------------------------

    Final optimized geometry and variables:
    Molecular point group: c1
    Full point group: C1

    Geometry (in Angstrom), charge = 0, multiplicity = 1:

    H           -1.955379523284     0.245527690986     0.003880992705
    H           -1.785967725533     1.890288435978    -0.617863606440
    H           -1.475456269525     0.507790911995    -1.676693304156
    C           -1.359961012929     0.883695244475    -0.656185340842
    H            0.663570870062     1.517817144553    -0.952534486275
    H            0.231737288544     1.342732611998     0.737101992244
    C            0.111234488104     0.882608962267    -0.250608589145
    H            0.264436904339    -1.129261992104    -1.027031795200
    H            1.790578297482    -0.461956219673    -0.481503722208
    C            0.723857517343    -0.523323807210    -0.237362083729
    H            0.984600134714    -2.235063755084     1.086126936405
    H           -0.471028595775    -1.289451832721     1.413948000961
    H            1.112232881991    -0.664063504208     1.888936915987
    C            0.578676427913    -1.219830615857     1.112714566630

	Cleaning optimization helper files.

*** Psi4 exiting successfully. Buy a developer a beer!
