    -----------------------------------------------------------------------
          Psi4: An Open-Source Ab Initio Electronic Structure Package
                              Psi4 1.0.0 Driver

                          Git: Rev {master} 6a9a71b 

    J. M. Turney, A. C. Simmonett, R. M. Parrish, E. G. Hohenstein,
    F. A. Evangelista, J. T. Fermann, B. J. Mintz, L. A. Burns, J. J. Wilke,
    M. L. Abrams, N. J. Russ, M. L. Leininger, C. L. Janssen, E. T. Seidl,
    W. D. Allen, H. F. Schaefer, R. A. King, E. F. Valeev, C. D. Sherrill,
    and T. D. Crawford, WIREs Comput. Mol. Sci. 2, 556-565 (2012)
    (doi: 10.1002/wcms.93)

                         Additional Contributions by
    A. E. DePrince, U. Bozkaya, A. Yu. Sokolov, D. G. A. Smith, R. Di Remigio,
    R. M. Richard, J. F. Gonthier, H. R. McAlexander, M. Saitow, and
    B. P. Pritchard
    -----------------------------------------------------------------------


    Psi4 started on: Tue Feb 21 20:12:11 2017

    Process ID:  52765
    PSI4DATADIR: /Users/sternc1/anaconda/share/psi4
    Memory level set to 256.000 MB

  ==> Input File <==

--------------------------------------------------------------------------

memory 1000 mb

molecule butane {
  symmetry C1
  0 1 
  H      1.604   0.760   -8.260
  H      1.745   2.388   -8.880
  H      2.043   1.024   -9.930
  C      2.142   1.395   -8.932
  H      4.169   2.051   -9.210
  H      3.731   1.788   -7.539
  C      3.631   1.416   -8.537
  H      5.179   -0.028   -8.174
  H      3.562   -0.682   -8.078
  C      4.203   -0.012   -8.612
  H      4.691   -1.445   -10.136
  H      4.934   0.216   -10.619
  H      3.317   -0.437   -10.523
  C      4.293   -0.453   -10.084
  units Angstrom
}

dih_string = "4 7 10 14 70"
set optking fixed_dihedral = $dih_string

optimize('B3LYP/cc-PVDZ')
--------------------------------------------------------------------------

  Memory set to 1000.000 MiB by Python script.
gradient() will perform analytic gradient computation.

*** tstart() called on lski1497
*** at Tue Feb 21 20:12:16 2017


         ---------------------------------------------------------
                                   SCF
            by Justin Turney, Rob Parrish, and Andy Simmonett
                              RKS Reference
                        1 Threads,   1000 MiB Core
         ---------------------------------------------------------

  ==> Geometry <==

    Molecular point group: c1
    Full point group: C1

    Geometry (in Angstrom), charge = 0, multiplicity = 1:

       Center              X                  Y                   Z               Mass       
    ------------   -----------------  -----------------  -----------------  -----------------
           H         -1.951146364715     0.177491162890     0.797500974114     1.007825032070
           H         -1.810146364715     1.805491162890     0.177500974114     1.007825032070
           H         -1.512146364715     0.441491162890    -0.872499025886     1.007825032070
           C         -1.413146364715     0.812491162890     0.125500974114    12.000000000000
           H          0.613853635285     1.468491162890    -0.152499025886     1.007825032070
           H          0.175853635285     1.205491162890     1.518500974114     1.007825032070
           C          0.075853635285     0.833491162890     0.520500974114    12.000000000000
           H          1.623853635285    -0.610508837110     0.883500974114     1.007825032070
           H          0.006853635285    -1.264508837110     0.979500974114     1.007825032070
           C          0.647853635285    -0.594508837110     0.445500974114    12.000000000000
           H          1.135853635285    -2.027508837110    -1.078499025886     1.007825032070
           H          1.378853635285    -0.366508837110    -1.561499025886     1.007825032070
           H         -0.238146364715    -1.019508837110    -1.465499025886     1.007825032070
           C          0.737853635285    -1.035508837110    -1.026499025886    12.000000000000

  Running in c1 symmetry.

  Rotational constants: A =      0.43630  B =      0.16667  C =      0.14255 [cm^-1]
  Rotational constants: A =  13079.90354  B =   4996.50450  C =   4273.58009 [MHz]
  Nuclear repulsion =  134.280302708106944

  Charge       = 0
  Multiplicity = 1
  Electrons    = 34
  Nalpha       = 17
  Nbeta        = 17

  ==> Algorithm <==

  SCF Algorithm Type is DF.
  DIIS enabled.
  MOM disabled.
  Fractional occupation disabled.
  Guess Type is SAD.
  Energy threshold   = 1.00e-08
  Density threshold  = 1.00e-08
  Integral threshold = 0.00e+00

  ==> Primary Basis <==

  Basis Set: CC-PVDZ
    Number of shells: 54
    Number of basis function: 106
    Number of Cartesian functions: 110
    Spherical Harmonics?: true
    Max angular momentum: 2

  ==> DFT Potential <==

   => B3LYP Composite Functional <= 

    B3LYP Hybrid-GGA Exchange-Correlation Functional (VWN1-RPA)

    P.J. Stephens et. al., J. Phys. Chem., 98, 11623-11627, 1994

    Points   =           5000
    Deriv    =              1
    GGA      =           TRUE
    Meta     =          FALSE

    X_LRC        =          FALSE
    X_Hybrid     =           TRUE
    X_Alpha      =   2.000000E-01
    X_Omega      =   0.000000E+00
    C_LRC        =          FALSE
    C_Hybrid     =          FALSE
    C_Alpha      =   0.000000E+00
    C_Omega      =   0.000000E+00

   => Exchange Functionals <=

    0.8000    B3_X
    0.2000      HF 

   => Correlation Functionals <=

    0.1900 VWN3RPA_C
    0.8100   LYP_C

   => Molecular Quadrature <=

    Radial Scheme    =       TREUTLER
    Pruning Scheme   =           FLAT
    Nuclear Scheme   =       TREUTLER

    BS radius alpha  =              1
    Pruning alpha    =              1
    Radial Points    =             75
    Spherical Points =            302
    Total Points     =         312719
    Total Blocks     =            278
    Max Points       =           4997
    Max Functions    =            106

  ==> Pre-Iterations <==

   -------------------------------------------------------
    Irrep   Nso     Nmo     Nalpha   Nbeta   Ndocc  Nsocc
   -------------------------------------------------------
     A        106     106       0       0       0       0
   -------------------------------------------------------
    Total     106     106      17      17      17       0
   -------------------------------------------------------

  ==> Integral Setup <==

  ==> DFJK: Density-Fitted J/K Matrices <==

    J tasked:                  Yes
    K tasked:                  Yes
    wK tasked:                  No
    OpenMP threads:              1
    Integrals threads:           1
    Memory (MB):               715
    Algorithm:                Core
    Integral Cache:           NONE
    Schwarz Cutoff:          1E-12
    Fitting Condition:       1E-12

   => Auxiliary Basis Set <=

  Basis Set: 
    Number of shells: 186
    Number of basis function: 510
    Number of Cartesian functions: 574
    Spherical Harmonics?: true
    Max angular momentum: 3

  Minimum eigenvalue in the overlap matrix is 4.9914805721E-03.
  Using Symmetric Orthogonalization.
  SCF Guess: Superposition of Atomic Densities via on-the-fly atomic UHF.

  ==> Iterations <==

                           Total Energy        Delta E     RMS |[F,P]|

   @DF-RKS iter   0:  -159.06309579948828   -1.59063e+02   3.39943e-02 
   @DF-RKS iter   1:  -158.30128869037253    7.61807e-01   4.74165e-03 
   @DF-RKS iter   2:  -158.25269121031445    4.85975e-02   5.61653e-03 DIIS
   @DF-RKS iter   3:  -158.44626291641688   -1.93572e-01   3.79297e-04 DIIS
   @DF-RKS iter   4:  -158.44706774595318   -8.04830e-04   1.03247e-04 DIIS
   @DF-RKS iter   5:  -158.44711867344529   -5.09275e-05   4.39794e-05 DIIS
   @DF-RKS iter   6:  -158.44712912621372   -1.04528e-05   6.79770e-06 DIIS
   @DF-RKS iter   7:  -158.44712940867322   -2.82459e-07   9.10825e-07 DIIS
   @DF-RKS iter   8:  -158.44712941431882   -5.64560e-09   1.06397e-07 DIIS
   @DF-RKS iter   9:  -158.44712941439474   -7.59144e-11   3.06513e-08 DIIS
   @DF-RKS iter  10:  -158.44712941439886   -4.12115e-12   1.49798e-08 DIIS
   @DF-RKS iter  11:  -158.44712941439991   -1.05160e-12   1.85165e-09 DIIS

  ==> Post-Iterations <==

    Orbital Energies (a.u.)
    -----------------------

    Doubly Occupied:                                                      

       1A    -10.170204     2A    -10.170015     3A    -10.163987  
       4A    -10.163961     5A     -0.796576     6A     -0.718698  
       7A     -0.640767     8A     -0.571445     9A     -0.459924  
      10A     -0.457985    11A     -0.419228    12A     -0.381727  
      13A     -0.381226    14A     -0.359078    15A     -0.331984  
      16A     -0.319461    17A     -0.316074  

    Virtual:                                                              

      18A      0.064756    19A      0.097939    20A      0.099782  
      21A      0.107931    22A      0.135986    23A      0.146510  
      24A      0.156122    25A      0.163029    26A      0.165066  
      27A      0.198045    28A      0.232091    29A      0.236466  
      30A      0.258528    31A      0.408578    32A      0.415228  
      33A      0.433051    34A      0.436325    35A      0.445038  
      36A      0.467708    37A      0.532867    38A      0.596992  
      39A      0.605802    40A      0.626206    41A      0.640447  
      42A      0.656203    43A      0.664433    44A      0.678366  
      45A      0.680723    46A      0.692348    47A      0.696504  
      48A      0.712987    49A      0.720039    50A      0.740954  
      51A      0.766030    52A      0.813281    53A      0.896346  
      54A      0.916121    55A      0.964797    56A      1.108708  
      57A      1.130431    58A      1.186237    59A      1.218823  
      60A      1.274405    61A      1.360343    62A      1.389587  
      63A      1.427188    64A      1.454733    65A      1.471009  
      66A      1.472980    67A      1.579082    68A      1.579805  
      69A      1.625896    70A      1.638990    71A      1.652350  
      72A      1.663293    73A      1.674832    74A      1.689131  
      75A      1.699000    76A      1.717565    77A      1.718064  
      78A      1.727056    79A      1.744562    80A      1.762610  
      81A      1.809425    82A      1.838960    83A      1.893857  
      84A      1.911127    85A      1.995428    86A      2.006523  
      87A      2.027883    88A      2.052103    89A      2.114161  
      90A      2.155860    91A      2.240276    92A      2.276356  
      93A      2.294544    94A      2.315091    95A      2.350056  
      96A      2.364528    97A      2.493668    98A      2.499390  
      99A      2.515855   100A      2.535312   101A      2.540043  
     102A      2.589042   103A      2.655619   104A      2.677608  
     105A      2.727721   106A      2.778739  

    Final Occupation by Irrep:
              A 
    DOCC [    17 ]

  Energy converged.

  @DF-RKS Final Energy:  -158.44712941439991

   => Energetics <=

    Nuclear Repulsion Energy =            134.2803027081069445
    One-Electron Energy =                -476.9437641955916547
    Two-Electron Energy =                 204.8984230964065603
    DFT Exchange-Correlation Energy =     -20.6820910233217496
    Empirical Dispersion Energy =           0.0000000000000000
    PCM Polarization Energy =               0.0000000000000000
    EFP Energy =                            0.0000000000000000
    Total Energy =                       -158.4471294143999103


  Saving occupied orbitals to File 180.

*** tstop() called on lski1497 at Tue Feb 21 20:15:37 2017
Module time:
	user time   =     170.48 seconds =       2.84 minutes
	system time =       2.19 seconds =       0.04 minutes
	total time  =        201 seconds =       3.35 minutes
Total time:
	user time   =     170.48 seconds =       2.84 minutes
	system time =       2.19 seconds =       0.04 minutes
	total time  =        201 seconds =       3.35 minutes


Properties will be evaluated at   0.000000,   0.000000,   0.000000 Bohr

Properties computed using the SCF density matrix

  Nuclear Dipole Moment: (a.u.)
     X:    -0.5404      Y:    -0.1782      Z:    -0.7256

  Electronic Dipole Moment: (a.u.)
     X:     0.5566      Y:     0.1832      Z:     0.7467

  Dipole Moment: (a.u.)
     X:     0.0162      Y:     0.0050      Z:     0.0211     Total:     0.0271

  Dipole Moment: (Debye)
     X:     0.0411      Y:     0.0127      Z:     0.0537     Total:     0.0688


*** tstart() called on lski1497
*** at Tue Feb 21 20:15:37 2017


         ------------------------------------------------------------
                                   SCF GRAD                          
                          Rob Parrish, Justin Turney,                
                       Andy Simmonett, and Alex Sokolov              
         ------------------------------------------------------------

  ==> Geometry <==

    Molecular point group: c1
    Full point group: C1

    Geometry (in Angstrom), charge = 0, multiplicity = 1:

       Center              X                  Y                   Z               Mass       
    ------------   -----------------  -----------------  -----------------  -----------------
           H         -1.951146364715     0.177491162890     0.797500974114     1.007825032070
           H         -1.810146364715     1.805491162890     0.177500974114     1.007825032070
           H         -1.512146364715     0.441491162890    -0.872499025886     1.007825032070
           C         -1.413146364715     0.812491162890     0.125500974114    12.000000000000
           H          0.613853635285     1.468491162890    -0.152499025886     1.007825032070
           H          0.175853635285     1.205491162890     1.518500974114     1.007825032070
           C          0.075853635285     0.833491162890     0.520500974114    12.000000000000
           H          1.623853635285    -0.610508837110     0.883500974114     1.007825032070
           H          0.006853635285    -1.264508837110     0.979500974114     1.007825032070
           C          0.647853635285    -0.594508837110     0.445500974114    12.000000000000
           H          1.135853635285    -2.027508837110    -1.078499025886     1.007825032070
           H          1.378853635285    -0.366508837110    -1.561499025886     1.007825032070
           H         -0.238146364715    -1.019508837110    -1.465499025886     1.007825032070
           C          0.737853635285    -1.035508837110    -1.026499025886    12.000000000000

  Nuclear repulsion =  134.280302708106944

  ==> Basis Set <==

  Basis Set: CC-PVDZ
    Number of shells: 54
    Number of basis function: 106
    Number of Cartesian functions: 110
    Spherical Harmonics?: true
    Max angular momentum: 2

  ==> DFJKGrad: Density-Fitted SCF Gradients <==

    Gradient:                    1
    J tasked:                  Yes
    K tasked:                  Yes
    wK tasked:                  No
    OpenMP threads:              1
    Integrals threads:           1
    Memory (MB):               715
    Schwarz Cutoff:          0E+00
    Fitting Condition:       1E-12

   => Auxiliary Basis Set <=

  Basis Set: 
    Number of shells: 186
    Number of basis function: 510
    Number of Cartesian functions: 574
    Spherical Harmonics?: true
    Max angular momentum: 3

  ==> DFT Potential <==

   => B3LYP Composite Functional <= 

    B3LYP Hybrid-GGA Exchange-Correlation Functional (VWN1-RPA)

    P.J. Stephens et. al., J. Phys. Chem., 98, 11623-11627, 1994

    Points   =           5000
    Deriv    =              1
    GGA      =           TRUE
    Meta     =          FALSE

    X_LRC        =          FALSE
    X_Hybrid     =           TRUE
    X_Alpha      =   2.000000E-01
    X_Omega      =   0.000000E+00
    C_LRC        =          FALSE
    C_Hybrid     =          FALSE
    C_Alpha      =   0.000000E+00
    C_Omega      =   0.000000E+00

   => Exchange Functionals <=

    0.8000    B3_X
    0.2000      HF 

   => Correlation Functionals <=

    0.1900 VWN3RPA_C
    0.8100   LYP_C

   => Molecular Quadrature <=

    Radial Scheme    =       TREUTLER
    Pruning Scheme   =           FLAT
    Nuclear Scheme   =       TREUTLER

    BS radius alpha  =              1
    Pruning alpha    =              1
    Radial Points    =             75
    Spherical Points =            302
    Total Points     =         312719
    Total Blocks     =            278
    Max Points       =           4997
    Max Functions    =            106


  -Total Gradient:
     Atom            X                  Y                   Z
    ------   -----------------  -----------------  -----------------
       1        0.014162277840     0.012825014951    -0.012905657026
       2        0.012270281087    -0.018724902412     0.000414774763
       3        0.006912751378     0.005886703621     0.019719085674
       4       -0.028833222843    -0.008703512043    -0.008488807998
       5       -0.013310869811    -0.015323104204     0.011763486280
       6       -0.003038468807    -0.010977277013    -0.020609187979
       7        0.021305283877     0.031253455340     0.003928440385
       8       -0.020531499097     0.003137620436    -0.010949033420
       9        0.011652831731     0.014812059611    -0.014363784354
      10        0.003986684962    -0.023118408306     0.029684233920
      11       -0.007776242668     0.020671362807     0.005730379128
      12       -0.013326016959    -0.012540564231     0.013841976331
      13        0.016800278228     0.002249108785     0.012391721146
      14       -0.000283523788    -0.001450483105    -0.030169820776


*** tstop() called on lski1497 at Tue Feb 21 20:16:22 2017
Module time:
	user time   =      40.76 seconds =       0.68 minutes
	system time =       0.60 seconds =       0.01 minutes
	total time  =         45 seconds =       0.75 minutes
Total time:
	user time   =     211.27 seconds =       3.52 minutes
	system time =       2.79 seconds =       0.05 minutes
	total time  =        246 seconds =       4.10 minutes

			-----------------------------------------
			 OPTKING 2.0: for geometry optimizations 
			  - R.A. King,  Bethel University        
			-----------------------------------------

	Internal coordinates to be generated automatically.
	Detected frag 1 with atoms:  1 2 3 4 5 6 7 8 9 10 11 12 13 14
	---Fragment 1 Bond Connectivity---
	 1 : 4
	 2 : 4
	 3 : 4
	 4 : 1 2 3 7
	 5 : 7
	 6 : 7
	 7 : 4 5 6 10
	 8 : 10
	 9 : 10
	 10 : 7 8 9 14
	 11 : 14
	 12 : 14
	 13 : 14
	 14 : 10 11 12 13

	Assuming in current code that numbering for constraints corresponds to unified fragment.
	Fixed dihedral atom list: 
	     4     7    10    14
	---Fragment 1 Geometry and Gradient---
	 H          -3.6871322745        0.3354096889        1.5070584318
	 H          -3.4206808898        3.4118838332        0.3354282294
	 H          -2.8575425022        0.8342973880       -1.6487842101
	 C          -2.6704596150        1.5353857833        0.2371624705
	 H           1.1600152564        2.7750461264       -0.2881813945
	 H           0.3323152102        2.2780481535        2.8695509736
	 C           0.1433425969        1.5750700320        0.9836042930
	 H           3.0686386506       -1.1536945038        1.6695748792
	 H           0.0129514937       -2.3895753948        1.8509885880
	 C           1.2242659449       -1.1234588857        0.8418748330
	 H           2.1464522977       -3.8314364341       -2.0380677935
	 H           2.6056557480       -0.6926013274       -2.9508055157
	 H          -0.4500314089       -1.9265924922       -2.7693918069
	 C           1.3943412968       -1.9568281103       -1.9398020346
	             0.0141622778        0.0128250150       -0.0129056570
	             0.0122702811       -0.0187249024        0.0004147748
	             0.0069127514        0.0058867036        0.0197190857
	            -0.0288332228       -0.0087035120       -0.0084888080
	            -0.0133108698       -0.0153231042        0.0117634863
	            -0.0030384688       -0.0109772770       -0.0206091880
	             0.0213052839        0.0312534553        0.0039284404
	            -0.0205314991        0.0031376204       -0.0109490334
	             0.0116528317        0.0148120596       -0.0143637844
	             0.0039866850       -0.0231184083        0.0296842339
	            -0.0077762427        0.0206713628        0.0057303791
	            -0.0133260170       -0.0125405642        0.0138419763
	             0.0168002782        0.0022491088        0.0123917211
	            -0.0002835238       -0.0014504831       -0.0301698208

	Previous optimization step data not found.  Starting new optimization.

	---Fragment 1 Intrafragment Coordinates---
	 - Coordinate -           - BOHR/RAD -       - ANG/DEG -
	 R(1,4)           =         2.021436	       1.069698
	 R(2,4)           =         2.023298	       1.070683
	 R(3,4)           =         2.020723	       1.069320
	 R(4,7)           =         2.911397	       1.540645
	 R(5,7)           =         2.022623	       1.070326
	 R(6,7)           =         2.021555	       1.069761
	 R(7,10)          =         2.910419	       1.540128
	 R(8,10)          =         2.021809	       1.069895
	 R(9,10)          =         2.022040	       1.070017
	 R(10,14)         =         2.908807	       1.539274
	 R(11,14)         =         2.022247	       1.070127
	 R(12,14)         =         2.021801	       1.069891
	 R(13,14)         =         2.022584	       1.070305
	 B(1,4,2)         =         1.910870	     109.484805
	 B(1,4,3)         =         1.911121	     109.499161
	 B(1,4,7)         =         1.910399	     109.457783
	 B(2,4,3)         =         1.910042	     109.437340
	 B(2,4,7)         =         1.910564	     109.467262
	 B(3,4,7)         =         1.910803	     109.480971
	 B(4,7,5)         =         1.909937	     109.431343
	 B(4,7,6)         =         1.911630	     109.528316
	 B(4,7,10)        =         1.911154	     109.501062
	 B(5,7,6)         =         1.910605	     109.469614
	 B(5,7,10)        =         1.910047	     109.437654
	 B(6,7,10)        =         1.910425	     109.459295
	 B(7,10,8)        =         1.909997	     109.434770
	 B(7,10,9)        =         1.911108	     109.498399
	 B(7,10,14)       =         1.911260	     109.507159
	 B(8,10,9)        =         1.910079	     109.439471
	 B(8,10,14)       =         1.911204	     109.503915
	 B(9,10,14)       =         1.910151	     109.443600
	 B(10,14,11)      =         1.911125	     109.499373
	 B(10,14,12)      =         1.911425	     109.516582
	 B(10,14,13)      =         1.912016	     109.550461
	 B(11,14,12)      =         1.909772	     109.421874
	 B(11,14,13)      =         1.910360	     109.455543
	 B(12,14,13)      =         1.909099	     109.383344
	 D(1,4,7,5)       =         3.140997	     179.965873
	 D(1,4,7,6)       =        -1.047644	     -60.025575
	 D(1,4,7,10)      =         1.047427	      60.013132
	 D(2,4,7,5)       =        -1.047689	     -60.028143
	 D(2,4,7,6)       =         1.046856	      59.980409
	 D(2,4,7,10)      =        -3.141259	    -179.980883
	 D(3,4,7,5)       =         1.046044	      59.933911
	 D(3,4,7,6)       =         3.140588	     179.942463
	 D(3,4,7,10)      =        -1.047526	     -60.018830
	 D(4,7,10,8)      =        -2.966552	    -169.970886
	 D(4,7,10,9)      =        -0.872934	     -50.015451
	 D(4,7,10,14)     =         1.221545	      69.989396
	 D(5,7,10,8)      =         1.223131	      70.080238
	 D(5,7,10,9)      =        -2.966437	    -169.964327
	 D(5,7,10,14)     =        -0.871957	     -49.959480
	 D(6,7,10,8)      =        -0.870744	     -49.889960
	 D(6,7,10,9)      =         1.222873	      70.065474
	 D(6,7,10,14)     =        -2.965832	    -169.929678
	 D(7,10,14,11)    =         3.141007	     179.966437
	 D(7,10,14,12)    =         1.046881	      59.981837
	 D(7,10,14,13)    =        -1.046969	     -59.986890
	 D(8,10,14,11)    =         1.046657	      59.969025
	 D(8,10,14,12)    =        -1.047469	     -60.015575
	 D(8,10,14,13)    =        -3.141319	    -179.984302
	 D(9,10,14,11)    =        -1.047114	     -59.995188
	 D(9,10,14,12)    =        -3.141240	    -179.979788
	 D(9,10,14,13)    =         1.048096	      60.051485

	Current energy   :      -158.4471294144

	Generating empirical Hessian (Schlegel '84) for each fragment.
	Adding user-defined constraint: Fragment 1; Coordinate 49:
		Value =     1.221545; Fixed value    =     1.221730
		Force =     0.000093; Force constant =     0.500000
	Removing off-diagonal coupling between coordinate 49 and others.
	Taking RFO optimization step.
	Going to follow RFO solution 1.
	Using RFO vector 1.

	Determining step-restricting scale parameter for RS-RFO.
	Maximum step size allowed    0.10000

	 Iter      |step|        alpha        rfo_root  
	------------------------------------------------
	    0     0.27835       1.00000           1
	    1     0.20179       6.07587           1
	    2     0.14757      19.20595           1
	    3     0.11639      39.13481           1
	    4     0.10305      54.65316           1
	    5     0.10014      58.97983           1
	    6     0.10000      59.19938           1
	------------------------------------------------
	Norm of target step-size    0.10000
	Projected energy change by RFO approximation:        -0.0075646525

	Back-transformation to cartesian coordinates...
	Could not converge backtransformation.
	Using first guess instead.

	--- Internal Coordinate Step in ANG or DEG, aJ/ANG or AJ/DEG ---
	 ---------------------------------------------------------------------------
	   Coordinate                Previous        Force       Change         New 
	   ----------                --------       ------       ------       ------
	    1 R(1,4)          =      1.069698     0.188210     0.014480     1.084178
	    2 R(2,4)          =      1.070683     0.180390     0.013974     1.084657
	    3 R(3,4)          =      1.069320     0.173730     0.013674     1.082994
	    4 R(4,7)          =      1.540645     0.032323     0.003035     1.543680
	    5 R(5,7)          =      1.070326     0.190956     0.014683     1.085009
	    6 R(6,7)          =      1.069761     0.192187     0.014801     1.084562
	    7 R(7,10)         =      1.540128     0.060182     0.005283     1.545411
	    8 R(8,10)         =      1.069895     0.191617     0.014761     1.084656
	    9 R(9,10)         =      1.070017     0.192979     0.014830     1.084848
	   10 R(10,14)        =      1.539274     0.037460     0.003472     1.542746
	   11 R(11,14)        =      1.070127     0.183989     0.014238     1.084365
	   12 R(12,14)        =      1.069891     0.187415     0.014422     1.084313
	   13 R(13,14)        =      1.070305     0.167822     0.013238     1.083543
	   14 B(1,4,2)        =    109.484805    -0.000300    -0.355208   109.129597
	   15 B(1,4,3)        =    109.499161    -0.000292    -0.360294   109.138867
	   16 B(1,4,7)        =    109.457783     0.000185     0.208966   109.666749
	   17 B(2,4,3)        =    109.437340    -0.000399    -0.473943   108.963398
	   18 B(2,4,7)        =    109.467262     0.000372     0.452974   109.920237
	   19 B(3,4,7)        =    109.480971     0.000435     0.519216   110.000187
	   20 B(4,7,5)        =    109.431343    -0.000268    -0.286404   109.144939
	   21 B(4,7,6)        =    109.528316    -0.000425    -0.455007   109.073309
	   22 B(4,7,10)       =    109.501062     0.001300     1.457202   110.958264
	   23 B(5,7,6)        =    109.469614     0.000071    -0.015550   109.454064
	   24 B(5,7,10)       =    109.437654    -0.000376    -0.403227   109.034427
	   25 B(6,7,10)       =    109.459295    -0.000300    -0.302382   109.156912
	   26 B(7,10,8)       =    109.434770    -0.000301    -0.303001   109.131770
	   27 B(7,10,9)       =    109.498399    -0.000383    -0.412051   109.086349
	   28 B(7,10,14)      =    109.507159     0.001304     1.461506   110.968665
	   29 B(8,10,9)       =    109.439471     0.000072    -0.013547   109.425924
	   30 B(8,10,14)      =    109.503915    -0.000424    -0.452673   109.051242
	   31 B(9,10,14)      =    109.443600    -0.000269    -0.286309   109.157291
	   32 B(10,14,11)     =    109.499373     0.000372     0.452760   109.952132
	   33 B(10,14,12)     =    109.516582     0.000174     0.196871   109.713453
	   34 B(10,14,13)     =    109.550461     0.000426     0.509188   110.059649
	   35 B(11,14,12)     =    109.421874    -0.000293    -0.346827   109.075047
	   36 B(11,14,13)     =    109.455543    -0.000400    -0.476393   108.979150
	   37 B(12,14,13)     =    109.383344    -0.000280    -0.346001   109.037343
	   38 D(1,4,7,5)      =    179.965873     0.000040     0.226231   180.192104
	   39 D(1,4,7,6)      =    -60.025575    -0.000038    -0.240259   -60.265834
	   40 D(1,4,7,10)     =     60.013132     0.000001     0.002804    60.015936
	   41 D(2,4,7,5)      =    -60.028143     0.000034     0.198579   -59.829563
	   42 D(2,4,7,6)      =     59.980409    -0.000044    -0.267911    59.712498
	   43 D(2,4,7,10)     =   -179.980883    -0.000005    -0.024848  -180.005731
	   44 D(3,4,7,5)      =     59.933911     0.000035     0.218666    60.152577
	   45 D(3,4,7,6)      =    179.942463    -0.000043    -0.247825   179.694638
	   46 D(3,4,7,10)     =    -60.018830    -0.000004    -0.004761   -60.023591
	   47 D(4,7,10,8)     =   -169.970886     0.000045     0.236548  -169.734337
	   48 D(4,7,10,9)     =    -50.015451    -0.000031    -0.211049   -50.226500
	   49 D(4,7,10,14)    =     69.989396     0.000023     0.081257    70.070653
	   50 D(5,7,10,8)     =     70.080238    -0.000009    -0.056432    70.023806
	   51 D(5,7,10,9)     =   -169.964327    -0.000085    -0.504029  -170.468357
	   52 D(5,7,10,14)    =    -49.959480    -0.000031    -0.211723   -50.171203
	   53 D(6,7,10,8)     =    -49.889960     0.000066     0.387723   -49.502237
	   54 D(6,7,10,9)     =     70.065474    -0.000010    -0.059874    70.005601
	   55 D(6,7,10,14)    =   -169.929678     0.000044     0.232433  -169.697246
	   56 D(7,10,14,11)   =    179.966437    -0.000004    -0.018299   179.948138
	   57 D(7,10,14,12)   =     59.981837     0.000002     0.006156    59.987992
	   58 D(7,10,14,13)   =    -59.986890    -0.000004    -0.005803   -59.992693
	   59 D(8,10,14,11)   =     59.969025    -0.000043    -0.263749    59.705277
	   60 D(8,10,14,12)   =    -60.015575    -0.000037    -0.239294   -60.254869
	   61 D(8,10,14,13)   =   -179.984302    -0.000043    -0.251252  -180.235554
	   62 D(9,10,14,11)   =    -59.995188     0.000034     0.198347   -59.796840
	   63 D(9,10,14,12)   =   -179.979788     0.000040     0.222802  -179.756986
	   64 D(9,10,14,13)   =     60.051485     0.000034     0.210844    60.262329
	 ---------------------------------------------------------------------------
	 Forces used to impose fixed constraints are not included.
	  Forces zeroed: 49 

  ==> Convergence Check <==

  Measures of convergence in internal coordinates in au.
  Criteria marked as inactive (o), active & met (*), and active & unmet ( ).
  --------------------------------------------------------------------------------------------- ~
   Step     Total Energy     Delta E     MAX Force     RMS Force      MAX Disp      RMS Disp    ~
  --------------------------------------------------------------------------------------------- ~
    Convergence Criteria    1.00e-06 *    3.00e-04 *             o    1.20e-03 *             o  ~
  --------------------------------------------------------------------------------------------- ~
      1    -158.44712941   -1.58e+02      2.34e-02      9.88e-03 o    2.80e-02      1.26e-02 o  ~
  ---------------------------------------------------------------------------------------------

	Writing optimization data to binary file.
	Structure for next step:
	Cartesian Geometry (in Angstrom)
	    H    -1.9833211748   0.1928034961   0.8115339263
	    H    -1.8257588854   1.8448640347   0.2044658480
	    H    -1.5528219118   0.4779474410  -0.8771338122
	    C    -1.4304262610   0.8370584020   0.1372307767
	    H     0.6088041897   1.4811953433  -0.1550349875
	    H     0.1701056974   1.1985491106   1.5376005084
	    C     0.0644032809   0.8316793800   0.5224613257
	    H     1.6415074604  -0.5994008769   0.8806108329
	    H     0.0087058021  -1.2779977486   0.9782884301
	    C     0.6526801363  -0.5946984821   0.4348792029
	    H     1.1745119793  -2.0596055613  -1.0748741816
	    H     1.4052314081  -0.3838241364  -1.5834211884
	    H    -0.2212432811  -1.0640294204  -1.4930343500
	    C     0.7595724539  -1.0586647015  -1.0325586936
			--------------------------
			 OPTKING Finished Execution 
			--------------------------

    Structure for next step:
    Molecular point group: c1
    Full point group: C1

    Geometry (in Angstrom), charge = 0, multiplicity = 1:

    H           -1.982907643964     0.192915172456     0.812100071561
    H           -1.825345354559     1.844975711024     0.205031993312
    H           -1.552408381029     0.478059117308    -0.876567666951
    C           -1.430012730243     0.837170078324     0.137796921921
    H            0.609217720485     1.481307019607    -0.154468842199
    H            0.170519228230     1.198660786988     1.538166653623
    C            0.064816811694     0.831791056396     0.523027470924
    H            1.641920991220    -0.599289200521     0.881176978154
    H            0.009119332877    -1.277886072278     0.978854575341
    C            0.653093667051    -0.594586805758     0.435445348151
    H            1.174925510124    -2.059493884992    -1.074308036382
    H            1.405644938900    -0.383712460009    -1.582855043093
    H           -0.220829750306    -1.063917744022    -1.492468204765
    C            0.759985984704    -1.058553025116    -1.031992548326

gradient() will perform analytic gradient computation.

*** tstart() called on lski1497
*** at Tue Feb 21 20:16:23 2017


         ---------------------------------------------------------
                                   SCF
            by Justin Turney, Rob Parrish, and Andy Simmonett
                              RKS Reference
                        1 Threads,   1000 MiB Core
         ---------------------------------------------------------

  ==> Geometry <==

    Molecular point group: c1
    Full point group: C1

    Geometry (in Angstrom), charge = 0, multiplicity = 1:

       Center              X                  Y                   Z               Mass       
    ------------   -----------------  -----------------  -----------------  -----------------
           H         -1.982907643964     0.192915172456     0.812100071561     1.007825032070
           H         -1.825345354559     1.844975711024     0.205031993312     1.007825032070
           H         -1.552408381029     0.478059117308    -0.876567666951     1.007825032070
           C         -1.430012730243     0.837170078324     0.137796921921    12.000000000000
           H          0.609217720485     1.481307019607    -0.154468842199     1.007825032070
           H          0.170519228230     1.198660786988     1.538166653623     1.007825032070
           C          0.064816811694     0.831791056396     0.523027470924    12.000000000000
           H          1.641920991220    -0.599289200521     0.881176978154     1.007825032070
           H          0.009119332877    -1.277886072278     0.978854575341     1.007825032070
           C          0.653093667051    -0.594586805758     0.435445348151    12.000000000000
           H          1.174925510124    -2.059493884992    -1.074308036382     1.007825032070
           H          1.405644938900    -0.383712460009    -1.582855043093     1.007825032070
           H         -0.220829750306    -1.063917744022    -1.492468204765     1.007825032070
           C          0.759985984704    -1.058553025116    -1.031992548326    12.000000000000

  Running in c1 symmetry.

  Rotational constants: A =      0.43815  B =      0.16108  C =      0.13853 [cm^-1]
  Rotational constants: A =  13135.51447  B =   4829.16071  C =   4152.93552 [MHz]
  Nuclear repulsion =  132.965552704072763

  Charge       = 0
  Multiplicity = 1
  Electrons    = 34
  Nalpha       = 17
  Nbeta        = 17

  ==> Algorithm <==

  SCF Algorithm Type is DF.
  DIIS enabled.
  MOM disabled.
  Fractional occupation disabled.
  Guess Type is READ.
  Energy threshold   = 1.00e-08
  Density threshold  = 1.00e-08
  Integral threshold = 0.00e+00

  ==> Primary Basis <==

  Basis Set: CC-PVDZ
    Number of shells: 54
    Number of basis function: 106
    Number of Cartesian functions: 110
    Spherical Harmonics?: true
    Max angular momentum: 2

  ==> DFT Potential <==

   => B3LYP Composite Functional <= 

    B3LYP Hybrid-GGA Exchange-Correlation Functional (VWN1-RPA)

    P.J. Stephens et. al., J. Phys. Chem., 98, 11623-11627, 1994

    Points   =           5000
    Deriv    =              1
    GGA      =           TRUE
    Meta     =          FALSE

    X_LRC        =          FALSE
    X_Hybrid     =           TRUE
    X_Alpha      =   2.000000E-01
    X_Omega      =   0.000000E+00
    C_LRC        =          FALSE
    C_Hybrid     =          FALSE
    C_Alpha      =   0.000000E+00
    C_Omega      =   0.000000E+00

   => Exchange Functionals <=

    0.8000    B3_X
    0.2000      HF 

   => Correlation Functionals <=

    0.1900 VWN3RPA_C
    0.8100   LYP_C

   => Molecular Quadrature <=

    Radial Scheme    =       TREUTLER
    Pruning Scheme   =           FLAT
    Nuclear Scheme   =       TREUTLER

    BS radius alpha  =              1
    Pruning alpha    =              1
    Radial Points    =             75
    Spherical Points =            302
    Total Points     =         312758
    Total Blocks     =            278
    Max Points       =           4958
    Max Functions    =            106

  ==> Pre-Iterations <==

   -------------------------------------------------------
    Irrep   Nso     Nmo     Nalpha   Nbeta   Ndocc  Nsocc
   -------------------------------------------------------
     A        106     106       0       0       0       0
   -------------------------------------------------------
    Total     106     106      17      17      17       0
   -------------------------------------------------------

  ==> Integral Setup <==

  ==> DFJK: Density-Fitted J/K Matrices <==

    J tasked:                  Yes
    K tasked:                  Yes
    wK tasked:                  No
    OpenMP threads:              1
    Integrals threads:           1
    Memory (MB):               715
    Algorithm:                Core
    Integral Cache:           NONE
    Schwarz Cutoff:          1E-12
    Fitting Condition:       1E-12

   => Auxiliary Basis Set <=

  Basis Set: 
    Number of shells: 186
    Number of basis function: 510
    Number of Cartesian functions: 574
    Spherical Harmonics?: true
    Max angular momentum: 3

  Minimum eigenvalue in the overlap matrix is 5.0929025678E-03.
  Using Symmetric Orthogonalization.
  SCF Guess was Projection but file not found.
  Switching over to SAD guess.

  SCF Guess: Superposition of Atomic Densities via on-the-fly atomic UHF.

  ==> Iterations <==

                           Total Energy        Delta E     RMS |[F,P]|

   @DF-RKS iter   0:  -158.98777346398987   -1.58988e+02   3.31501e-02 
   @DF-RKS iter   1:  -158.31278636614590    6.74987e-01   4.63402e-03 
   @DF-RKS iter   2:  -158.26192065754063    5.08657e-02   5.54765e-03 DIIS
   @DF-RKS iter   3:  -158.45241829662629   -1.90498e-01   3.70908e-04 DIIS
   @DF-RKS iter   4:  -158.45319880677422   -7.80510e-04   1.01884e-04 DIIS
   @DF-RKS iter   5:  -158.45324848072303   -4.96739e-05   4.43770e-05 DIIS
   @DF-RKS iter   6:  -158.45325917385134   -1.06931e-05   6.80782e-06 DIIS
   @DF-RKS iter   7:  -158.45325945815495   -2.84304e-07   9.12295e-07 DIIS
   @DF-RKS iter   8:  -158.45325946386467   -5.70972e-09   1.10777e-07 DIIS
   @DF-RKS iter   9:  -158.45325946394604   -8.13714e-11   3.39936e-08 DIIS
   @DF-RKS iter  10:  -158.45325946395189   -5.85487e-12   1.63035e-08 DIIS
   @DF-RKS iter  11:  -158.45325946395275   -8.52651e-13   1.89906e-09 DIIS

  ==> Post-Iterations <==

    Orbital Energies (a.u.)
    -----------------------

    Doubly Occupied:                                                      

       1A    -10.174984     2A    -10.174812     3A    -10.169229  
       4A    -10.169210     5A     -0.792417     6A     -0.716778  
       7A     -0.637776     8A     -0.567336     9A     -0.455620  
      10A     -0.455411    11A     -0.416769    12A     -0.380559  
      13A     -0.379300    14A     -0.357711    15A     -0.329059  
      16A     -0.319248    17A     -0.317421  

    Virtual:                                                              

      18A      0.061716    19A      0.095414    20A      0.097532  
      21A      0.105835    22A      0.133656    23A      0.143319  
      24A      0.153088    25A      0.158931    26A      0.160976  
      27A      0.194561    28A      0.223354    29A      0.234135  
      30A      0.259038    31A      0.408516    32A      0.408760  
      33A      0.431374    34A      0.436161    35A      0.442848  
      36A      0.469966    37A      0.531900    38A      0.590611  
      39A      0.602170    40A      0.626087    41A      0.630389  
      42A      0.650381    43A      0.656830    44A      0.668779  
      45A      0.674390    46A      0.685381    47A      0.689027  
      48A      0.700976    49A      0.710959    50A      0.727785  
      51A      0.760505    52A      0.806880    53A      0.895601  
      54A      0.908831    55A      0.963722    56A      1.105547  
      57A      1.131372    58A      1.183814    59A      1.202415  
      60A      1.264651    61A      1.354148    62A      1.383958  
      63A      1.421181    64A      1.442645    65A      1.460896  
      66A      1.464515    67A      1.572169    68A      1.577646  
      69A      1.614858    70A      1.631486    71A      1.643193  
      72A      1.652344    73A      1.663919    74A      1.681454  
      75A      1.685463    76A      1.699727    77A      1.706698  
      78A      1.717156    79A      1.730894    80A      1.740720  
      81A      1.798587    82A      1.821468    83A      1.882510  
      84A      1.889200    85A      1.987847    86A      1.988790  
      87A      2.028657    88A      2.034192    89A      2.098271  
      90A      2.137807    91A      2.218603    92A      2.254144  
      93A      2.271706    94A      2.284792    95A      2.318652  
      96A      2.336828    97A      2.458594    98A      2.465287  
      99A      2.476838   100A      2.505593   101A      2.511910  
     102A      2.554638   103A      2.629257   104A      2.642836  
     105A      2.701999   106A      2.745845  

    Final Occupation by Irrep:
              A 
    DOCC [    17 ]

  Energy converged.

  @DF-RKS Final Energy:  -158.45325946395275

   => Energetics <=

    Nuclear Repulsion Energy =            132.9655527040727634
    One-Electron Energy =                -474.3768922290828414
    Two-Electron Energy =                 203.5925383723645723
    DFT Exchange-Correlation Energy =     -20.6344583113072488
    Empirical Dispersion Energy =           0.0000000000000000
    PCM Polarization Energy =               0.0000000000000000
    EFP Energy =                            0.0000000000000000
    Total Energy =                       -158.4532594639527474


  Saving occupied orbitals to File 180.

*** tstop() called on lski1497 at Tue Feb 21 20:18:32 2017
Module time:
	user time   =     119.95 seconds =       2.00 minutes
	system time =       1.36 seconds =       0.02 minutes
	total time  =        129 seconds =       2.15 minutes
Total time:
	user time   =     331.92 seconds =       5.53 minutes
	system time =       4.18 seconds =       0.07 minutes
	total time  =        376 seconds =       6.27 minutes


Properties will be evaluated at   0.000000,   0.000000,   0.000000 Bohr

Properties computed using the SCF density matrix

  Nuclear Dipole Moment: (a.u.)
     X:    -0.5345      Y:    -0.1766      Z:    -0.7175

  Electronic Dipole Moment: (a.u.)
     X:     0.5492      Y:     0.1813      Z:     0.7368

  Dipole Moment: (a.u.)
     X:     0.0147      Y:     0.0047      Z:     0.0193     Total:     0.0247

  Dipole Moment: (Debye)
     X:     0.0374      Y:     0.0119      Z:     0.0491     Total:     0.0628


*** tstart() called on lski1497
*** at Tue Feb 21 20:18:33 2017


         ------------------------------------------------------------
                                   SCF GRAD                          
                          Rob Parrish, Justin Turney,                
                       Andy Simmonett, and Alex Sokolov              
         ------------------------------------------------------------

  ==> Geometry <==

    Molecular point group: c1
    Full point group: C1

    Geometry (in Angstrom), charge = 0, multiplicity = 1:

       Center              X                  Y                   Z               Mass       
    ------------   -----------------  -----------------  -----------------  -----------------
           H         -1.982907643964     0.192915172456     0.812100071561     1.007825032070
           H         -1.825345354559     1.844975711024     0.205031993312     1.007825032070
           H         -1.552408381029     0.478059117308    -0.876567666951     1.007825032070
           C         -1.430012730243     0.837170078324     0.137796921921    12.000000000000
           H          0.609217720485     1.481307019607    -0.154468842199     1.007825032070
           H          0.170519228230     1.198660786988     1.538166653623     1.007825032070
           C          0.064816811694     0.831791056396     0.523027470924    12.000000000000
           H          1.641920991220    -0.599289200521     0.881176978154     1.007825032070
           H          0.009119332877    -1.277886072278     0.978854575341     1.007825032070
           C          0.653093667051    -0.594586805758     0.435445348151    12.000000000000
           H          1.174925510124    -2.059493884992    -1.074308036382     1.007825032070
           H          1.405644938900    -0.383712460009    -1.582855043093     1.007825032070
           H         -0.220829750306    -1.063917744022    -1.492468204765     1.007825032070
           C          0.759985984704    -1.058553025116    -1.031992548326    12.000000000000

  Nuclear repulsion =  132.965552704072763

  ==> Basis Set <==

  Basis Set: CC-PVDZ
    Number of shells: 54
    Number of basis function: 106
    Number of Cartesian functions: 110
    Spherical Harmonics?: true
    Max angular momentum: 2

  ==> DFJKGrad: Density-Fitted SCF Gradients <==

    Gradient:                    1
    J tasked:                  Yes
    K tasked:                  Yes
    wK tasked:                  No
    OpenMP threads:              1
    Integrals threads:           1
    Memory (MB):               715
    Schwarz Cutoff:          0E+00
    Fitting Condition:       1E-12

   => Auxiliary Basis Set <=

  Basis Set: 
    Number of shells: 186
    Number of basis function: 510
    Number of Cartesian functions: 574
    Spherical Harmonics?: true
    Max angular momentum: 3

  ==> DFT Potential <==

   => B3LYP Composite Functional <= 

    B3LYP Hybrid-GGA Exchange-Correlation Functional (VWN1-RPA)

    P.J. Stephens et. al., J. Phys. Chem., 98, 11623-11627, 1994

    Points   =           5000
    Deriv    =              1
    GGA      =           TRUE
    Meta     =          FALSE

    X_LRC        =          FALSE
    X_Hybrid     =           TRUE
    X_Alpha      =   2.000000E-01
    X_Omega      =   0.000000E+00
    C_LRC        =          FALSE
    C_Hybrid     =          FALSE
    C_Alpha      =   0.000000E+00
    C_Omega      =   0.000000E+00

   => Exchange Functionals <=

    0.8000    B3_X
    0.2000      HF 

   => Correlation Functionals <=

    0.1900 VWN3RPA_C
    0.8100   LYP_C

   => Molecular Quadrature <=

    Radial Scheme    =       TREUTLER
    Pruning Scheme   =           FLAT
    Nuclear Scheme   =       TREUTLER

    BS radius alpha  =              1
    Pruning alpha    =              1
    Radial Points    =             75
    Spherical Points =            302
    Total Points     =         312758
    Total Blocks     =            278
    Max Points       =           4958
    Max Functions    =            106


  -Total Gradient:
     Atom            X                  Y                   Z
    ------   -----------------  -----------------  -----------------
       1        0.008641179102     0.006707246026    -0.006409460035
       2        0.007235407301    -0.009600635942     0.000275654981
       3        0.005115358785     0.002899394658     0.010851086475
       4       -0.020731016070    -0.005086769029    -0.006075239245
       5       -0.008018159959    -0.009557040456     0.004754213452
       6       -0.002732560220    -0.007005285264    -0.010449774667
       7        0.014988310907     0.022060548534     0.003602810479
       8       -0.010368728560     0.002654523858    -0.007094123019
       9        0.004795182310     0.008479911604    -0.009272597349
      10        0.003583265503    -0.016028715228     0.021074912768
      11       -0.004194499192     0.010832901819     0.003798308926
      12       -0.007055800509    -0.006189471108     0.008413268782
      13        0.008815958197     0.001871521911     0.007890884143
      14       -0.000074322213    -0.002038219758    -0.021360376017


*** tstop() called on lski1497 at Tue Feb 21 20:19:17 2017
Module time:
	user time   =      39.67 seconds =       0.66 minutes
	system time =       0.58 seconds =       0.01 minutes
	total time  =         44 seconds =       0.73 minutes
Total time:
	user time   =     371.61 seconds =       6.19 minutes
	system time =       4.76 seconds =       0.08 minutes
	total time  =        421 seconds =       7.02 minutes

			-----------------------------------------
			 OPTKING 2.0: for geometry optimizations 
			  - R.A. King,  Bethel University        
			-----------------------------------------

	Previous internal coordinate definitions found.
	---Fragment 1 Geometry and Gradient---
	 H          -3.7471523939        0.3645568428        1.5346467277
	 H          -3.4494028181        3.4864988157        0.3874543158
	 H          -2.9336266865        0.9034008070       -1.6564728275
	 C          -2.7023324267        1.5820221747        0.2603984444
	 H           1.1512546470        2.7992645858       -0.2919038078
	 H           0.3222346417        2.2651406136        2.9067137221
	 C           0.1224860229        1.5718572964        0.9883786800
	 H           3.1027810052       -1.1324924634        1.6651831633
	 H           0.0172330417       -2.4148547056        1.8497670713
	 C           1.2341681698       -1.1236062251        0.8228724538
	 H           2.2202874407       -3.8918794150       -2.0301479711
	 H           2.6562839746       -0.7251114632       -2.9911625395
	 H          -0.4173077501       -2.0105131641       -2.8203561690
	 C           1.4361653759       -2.0003753146       -1.9501832875
	             0.0086411791        0.0067072460       -0.0064094600
	             0.0072354073       -0.0096006359        0.0002756550
	             0.0051153588        0.0028993947        0.0108510865
	            -0.0207310161       -0.0050867690       -0.0060752392
	            -0.0080181600       -0.0095570405        0.0047542135
	            -0.0027325602       -0.0070052853       -0.0104497747
	             0.0149883109        0.0220605485        0.0036028105
	            -0.0103687286        0.0026545239       -0.0070941230
	             0.0047951823        0.0084799116       -0.0092725973
	             0.0035832655       -0.0160287152        0.0210749128
	            -0.0041944992        0.0108329018        0.0037983089
	            -0.0070558005       -0.0061894711        0.0084132688
	             0.0088159582        0.0018715219        0.0078908841
	            -0.0000743222       -0.0020382198       -0.0213603760

	---Fragment 1 Intrafragment Coordinates---
	 - Coordinate -           - BOHR/RAD -       - ANG/DEG -
	 R(1,4)           =         2.048799	       1.084178
	 R(2,4)           =         2.049705	       1.084657
	 R(3,4)           =         2.046563	       1.082994
	 R(4,7)           =         2.917132	       1.543680
	 R(5,7)           =         2.050370	       1.085009
	 R(6,7)           =         2.049524	       1.084562
	 R(7,10)          =         2.920403	       1.545411
	 R(8,10)          =         2.049702	       1.084656
	 R(9,10)          =         2.050065	       1.084848
	 R(10,14)         =         2.915367	       1.542746
	 R(11,14)         =         2.049153	       1.084365
	 R(12,14)         =         2.049055	       1.084313
	 R(13,14)         =         2.047600	       1.083543
	 B(1,4,2)         =         1.904671	     109.129597
	 B(1,4,3)         =         1.904833	     109.138867
	 B(1,4,7)         =         1.914046	     109.666749
	 B(2,4,3)         =         1.901770	     108.963398
	 B(2,4,7)         =         1.918470	     109.920237
	 B(3,4,7)         =         1.919865	     110.000187
	 B(4,7,5)         =         1.904939	     109.144939
	 B(4,7,6)         =         1.903688	     109.073309
	 B(4,7,10)        =         1.936587	     110.958264
	 B(5,7,6)         =         1.910334	     109.454064
	 B(5,7,10)        =         1.903010	     109.034427
	 B(6,7,10)        =         1.905148	     109.156912
	 B(7,10,8)        =         1.904709	     109.131770
	 B(7,10,9)        =         1.903916	     109.086349
	 B(7,10,14)       =         1.936769	     110.968665
	 B(8,10,9)        =         1.909843	     109.425924
	 B(8,10,14)       =         1.903303	     109.051242
	 B(9,10,14)       =         1.905154	     109.157291
	 B(10,14,11)      =         1.919027	     109.952132
	 B(10,14,12)      =         1.914861	     109.713453
	 B(10,14,13)      =         1.920903	     110.059649
	 B(11,14,12)      =         1.903719	     109.075047
	 B(11,14,13)      =         1.902045	     108.979150
	 B(12,14,13)      =         1.903061	     109.037343
	 D(1,4,7,5)       =        -3.138240	    -179.807896
	 D(1,4,7,6)       =        -1.051837	     -60.265834
	 D(1,4,7,10)      =         1.047476	      60.015936
	 D(2,4,7,5)       =        -1.044223	     -59.829563
	 D(2,4,7,6)       =         1.042180	      59.712498
	 D(2,4,7,10)      =         3.141493	     179.994269
	 D(3,4,7,5)       =         1.049861	      60.152577
	 D(3,4,7,6)       =         3.136263	     179.694638
	 D(3,4,7,10)      =        -1.047609	     -60.023591
	 D(4,7,10,8)      =        -2.962423	    -169.734337
	 D(4,7,10,9)      =        -0.876618	     -50.226500
	 D(4,7,10,14)     =         1.222964	      70.070653
	 D(5,7,10,8)      =         1.222146	      70.023806
	 D(5,7,10,9)      =        -2.975234	    -170.468357
	 D(5,7,10,14)     =        -0.875653	     -50.171203
	 D(6,7,10,8)      =        -0.863977	     -49.502237
	 D(6,7,10,9)      =         1.221828	      70.005601
	 D(6,7,10,14)     =        -2.961776	    -169.697246
	 D(7,10,14,11)    =         3.140687	     179.948138
	 D(7,10,14,12)    =         1.046988	      59.987992
	 D(7,10,14,13)    =        -1.047070	     -59.992693
	 D(8,10,14,11)    =         1.042054	      59.705277
	 D(8,10,14,12)    =        -1.051646	     -60.254869
	 D(8,10,14,13)    =         3.137481	     179.764446
	 D(9,10,14,11)    =        -1.043652	     -59.796840
	 D(9,10,14,12)    =        -3.137351	    -179.756986
	 D(9,10,14,13)    =         1.051776	      60.262329

	Current energy   :      -158.4532594640

	Energy change for the previous step:
		Projected    :        -0.0075646525
		Actual       :        -0.0061300496

	Performing BFGS update.
	Previous computed or guess Hessian on step 1.
	Steps to be used in Hessian update: 1
	Adding user-defined constraint: Fragment 1; Coordinate 49:
		Value =     1.222964; Fixed value    =     1.221730
		Force =    -0.000648; Force constant =     0.525000
	Removing off-diagonal coupling between coordinate 49 and others.
	Taking RFO optimization step.
	Going to follow RFO solution 1.
	Using RFO vector 1.

	Determining step-restricting scale parameter for RS-RFO.
	Maximum step size allowed    0.10000

	 Iter      |step|        alpha        rfo_root  
	------------------------------------------------
	    0     0.19995       1.00000           1
	    1     0.15128       6.94975           1
	    2     0.12042      18.27361           1
	    3     0.10496      30.07559           1
	    4     0.10040      34.98982           1
	    5     0.10000      35.46200           1
	------------------------------------------------
	Norm of target step-size    0.10000
	Projected energy change by RFO approximation:        -0.0046243167

	Back-transformation to cartesian coordinates...
	Could not converge backtransformation.
	Using first guess instead.

	--- Internal Coordinate Step in ANG or DEG, aJ/ANG or AJ/DEG ---
	 ---------------------------------------------------------------------------
	   Coordinate                Previous        Force       Change         New 
	   ----------                --------       ------       ------       ------
	    1 R(1,4)          =      1.084178     0.101995     0.012662     1.096840
	    2 R(2,4)          =      1.084657     0.095073     0.011571     1.096228
	    3 R(3,4)          =      1.082994     0.096416     0.012798     1.095792
	    4 R(4,7)          =      1.543680    -0.000553    -0.002223     1.541457
	    5 R(5,7)          =      1.085009     0.104733     0.013071     1.098080
	    6 R(6,7)          =      1.084562     0.102301     0.012454     1.097015
	    7 R(7,10)         =      1.545411     0.012524    -0.001001     1.544409
	    8 R(8,10)         =      1.084656     0.101992     0.012418     1.097074
	    9 R(9,10)         =      1.084848     0.105717     0.013173     1.098021
	   10 R(10,14)        =      1.542746     0.002678    -0.001720     1.541026
	   11 R(11,14)        =      1.084365     0.096822     0.011757     1.096123
	   12 R(12,14)        =      1.084313     0.101574     0.012607     1.096920
	   13 R(13,14)        =      1.083543     0.093449     0.012461     1.096004
	   14 B(1,4,2)        =    109.129597    -0.000238    -0.601868   108.527729
	   15 B(1,4,3)        =    109.138867    -0.000245    -0.670798   108.468069
	   16 B(1,4,7)        =    109.666749     0.000182     0.518523   110.185271
	   17 B(2,4,3)        =    108.963398    -0.000296    -0.710936   108.252461
	   18 B(2,4,7)        =    109.920237     0.000256     0.596609   110.516846
	   19 B(3,4,7)        =    110.000187     0.000330     0.818400   110.818588
	   20 B(4,7,5)        =    109.144939    -0.000144    -0.156378   108.988561
	   21 B(4,7,6)        =    109.073309    -0.000218    -0.307165   108.766144
	   22 B(4,7,10)       =    110.958264     0.000765     1.453905   112.412169
	   23 B(5,7,6)        =    109.454064    -0.000035    -0.457197   108.996866
	   24 B(5,7,10)       =    109.034427    -0.000202    -0.286140   108.748287
	   25 B(6,7,10)       =    109.156912    -0.000172    -0.281192   108.875721
	   26 B(7,10,8)       =    109.131770    -0.000172    -0.275575   108.856195
	   27 B(7,10,9)       =    109.086349    -0.000207    -0.299998   108.786350
	   28 B(7,10,14)      =    110.968665     0.000766     1.450852   112.419516
	   29 B(8,10,9)       =    109.425924    -0.000034    -0.453206   108.972718
	   30 B(8,10,14)      =    109.051242    -0.000217    -0.301931   108.749311
	   31 B(9,10,14)      =    109.157291    -0.000143    -0.154888   109.002403
	   32 B(10,14,11)     =    109.952132     0.000255     0.588420   110.540552
	   33 B(10,14,12)     =    109.713453     0.000173     0.495279   110.208732
	   34 B(10,14,13)     =    110.059649     0.000322     0.797470   110.857119
	   35 B(11,14,12)     =    109.075047    -0.000231    -0.583259   108.491788
	   36 B(11,14,13)     =    108.979150    -0.000296    -0.711246   108.267904
	   37 B(12,14,13)     =    109.037343    -0.000234    -0.637906   108.399437
	   38 D(1,4,7,5)      =   -179.807896     0.000031     0.427414  -179.380482
	   39 D(1,4,7,6)      =    -60.265834    -0.000028    -0.397042   -60.662876
	   40 D(1,4,7,10)     =     60.015936     0.000000    -0.033309    59.982627
	   41 D(2,4,7,5)      =    -59.829563     0.000027     0.387137   -59.442426
	   42 D(2,4,7,6)      =     59.712498    -0.000032    -0.437318    59.275180
	   43 D(2,4,7,10)     =    179.994269    -0.000004    -0.073586   179.920683
	   44 D(3,4,7,5)      =     60.152577     0.000027     0.409477    60.562053
	   45 D(3,4,7,6)      =    179.694638    -0.000032    -0.414979   179.279659
	   46 D(3,4,7,10)     =    -60.023591    -0.000004    -0.051247   -60.074838
	   47 D(4,7,10,8)     =   -169.734337     0.000031     0.408374  -169.325963
	   48 D(4,7,10,9)     =    -50.226500    -0.000030    -0.475366   -50.701866
	   49 D(4,7,10,14)    =     70.070653     0.000009     0.050748    70.121401
	   50 D(5,7,10,8)     =     70.023806    -0.000007    -0.124927    69.898879
	   51 D(5,7,10,9)     =   -170.468357    -0.000068    -1.008667  -171.477024
	   52 D(5,7,10,14)    =    -50.171203    -0.000030    -0.482553   -50.653756
	   53 D(6,7,10,8)     =    -49.502237     0.000054     0.758660   -48.743576
	   54 D(6,7,10,9)     =     70.005601    -0.000007    -0.125080    69.880521
	   55 D(6,7,10,14)    =   -169.697246     0.000031     0.401034  -169.296212
	   56 D(7,10,14,11)   =    179.948138    -0.000003    -0.058834   179.889304
	   57 D(7,10,14,12)   =     59.987992     0.000001    -0.022279    59.965714
	   58 D(7,10,14,13)   =    -59.992693    -0.000004    -0.053469   -60.046162
	   59 D(8,10,14,11)   =     59.705277    -0.000032    -0.430185    59.275092
	   60 D(8,10,14,12)   =    -60.254869    -0.000028    -0.393630   -60.648499
	   61 D(8,10,14,13)   =    179.764446    -0.000032    -0.424820   179.339626
	   62 D(9,10,14,11)   =    -59.796840     0.000026     0.385171   -59.411669
	   63 D(9,10,14,12)   =   -179.756986     0.000031     0.421726  -179.335259
	   64 D(9,10,14,13)   =     60.262329     0.000026     0.390536    60.652865
	 ---------------------------------------------------------------------------
	 Forces used to impose fixed constraints are not included.
	  Forces zeroed: 49 

  ==> Convergence Check <==

  Measures of convergence in internal coordinates in au.
  Criteria marked as inactive (o), active & met (*), and active & unmet ( ).
  ---------------------------------------------------------------------------------------------
   Step     Total Energy     Delta E     MAX Force     RMS Force      MAX Disp      RMS Disp   
  ---------------------------------------------------------------------------------------------
    Convergence Criteria    1.00e-06 *    3.00e-04 *             o    1.20e-03 *             o
  ---------------------------------------------------------------------------------------------
      2    -158.45325946   -6.13e-03      1.28e-02      5.51e-03 o    2.54e-02      1.26e-02 o  ~
  ---------------------------------------------------------------------------------------------

	Writing optimization data to binary file.
	Structure for next step:
	Cartesian Geometry (in Angstrom)
	    H    -2.0136202988   0.2074845819   0.8214524657
	    H    -1.8364822214   1.8776955573   0.2315870836
	    H    -1.5929659386   0.5137721375  -0.8798787322
	    C    -1.4414438790   0.8584441336   0.1491998218
	    H     0.6054588045   1.4922754018  -0.1538165693
	    H     0.1678896349   1.1892590146   1.5521078755
	    C     0.0536439336   0.8266285607   0.5230841566
	    H     1.6533896861  -0.5868516535   0.8792498426
	    H     0.0131746767  -1.2884499505   0.9790254122
	    C     0.6554155430  -0.5922373285   0.4236299835
	    H     1.2102503850  -2.0845140060  -1.0686369682
	    H     1.4272046840  -0.4013367019  -1.6046074142
	    H    -0.2030740278  -1.1072945937  -1.5196598546
	    C     0.7788993429  -1.0774354040  -1.0337974317
			--------------------------
			 OPTKING Finished Execution 
			--------------------------

    Structure for next step:
    Molecular point group: c1
    Full point group: C1

    Geometry (in Angstrom), charge = 0, multiplicity = 1:

    H           -2.013361234349     0.207564327134     0.821861403241
    H           -1.836223156951     1.877775302515     0.231996021154
    H           -1.592706874158     0.513851882769    -0.879469794668
    C           -1.441184814579     0.858523878869     0.149608759377
    H            0.605717868933     1.492355147056    -0.153407631732
    H            0.168148699309     1.189338759872     1.552516813037
    C            0.053902998039     0.826708305999     0.523493094218
    H            1.653648750581    -0.586771908218     0.879658780220
    H            0.013433741138    -1.288370205210     0.979434349815
    C            0.655674607386    -0.592157583222     0.424038921089
    H            1.210509449459    -2.084434260750    -1.068228030640
    H            1.427463748471    -0.401256956651    -1.604198476632
    H           -0.202814963365    -1.107214848471    -1.519250917007
    C            0.779158407376    -1.077355658767    -1.033388494091

gradient() will perform analytic gradient computation.

*** tstart() called on lski1497
*** at Tue Feb 21 20:19:18 2017


         ---------------------------------------------------------
                                   SCF
            by Justin Turney, Rob Parrish, and Andy Simmonett
                              RKS Reference
                        1 Threads,   1000 MiB Core
         ---------------------------------------------------------

  ==> Geometry <==

    Molecular point group: c1
    Full point group: C1

    Geometry (in Angstrom), charge = 0, multiplicity = 1:

       Center              X                  Y                   Z               Mass       
    ------------   -----------------  -----------------  -----------------  -----------------
           H         -2.013361234349     0.207564327134     0.821861403241     1.007825032070
           H         -1.836223156951     1.877775302515     0.231996021154     1.007825032070
           H         -1.592706874158     0.513851882769    -0.879469794668     1.007825032070
           C         -1.441184814579     0.858523878869     0.149608759377    12.000000000000
           H          0.605717868933     1.492355147056    -0.153407631732     1.007825032070
           H          0.168148699309     1.189338759872     1.552516813037     1.007825032070
           C          0.053902998039     0.826708305999     0.523493094218    12.000000000000
           H          1.653648750581    -0.586771908218     0.879658780220     1.007825032070
           H          0.013433741138    -1.288370205210     0.979434349815     1.007825032070
           C          0.655674607386    -0.592157583222     0.424038921089    12.000000000000
           H          1.210509449459    -2.084434260750    -1.068228030640     1.007825032070
           H          1.427463748471    -0.401256956651    -1.604198476632     1.007825032070
           H         -0.202814963365    -1.107214848471    -1.519250917007     1.007825032070
           C          0.779158407376    -1.077355658767    -1.033388494091    12.000000000000

  Running in c1 symmetry.

  Rotational constants: A =      0.44210  B =      0.15684  C =      0.13554 [cm^-1]
  Rotational constants: A =  13253.75419  B =   4701.80458  C =   4063.43592 [MHz]
  Nuclear repulsion =  132.043729455802605

  Charge       = 0
  Multiplicity = 1
  Electrons    = 34
  Nalpha       = 17
  Nbeta        = 17

  ==> Algorithm <==

  SCF Algorithm Type is DF.
  DIIS enabled.
  MOM disabled.
  Fractional occupation disabled.
  Guess Type is READ.
  Energy threshold   = 1.00e-08
  Density threshold  = 1.00e-08
  Integral threshold = 0.00e+00

  ==> Primary Basis <==

  Basis Set: CC-PVDZ
    Number of shells: 54
    Number of basis function: 106
    Number of Cartesian functions: 110
    Spherical Harmonics?: true
    Max angular momentum: 2

  ==> DFT Potential <==

   => B3LYP Composite Functional <= 

    B3LYP Hybrid-GGA Exchange-Correlation Functional (VWN1-RPA)

    P.J. Stephens et. al., J. Phys. Chem., 98, 11623-11627, 1994

    Points   =           5000
    Deriv    =              1
    GGA      =           TRUE
    Meta     =          FALSE

    X_LRC        =          FALSE
    X_Hybrid     =           TRUE
    X_Alpha      =   2.000000E-01
    X_Omega      =   0.000000E+00
    C_LRC        =          FALSE
    C_Hybrid     =          FALSE
    C_Alpha      =   0.000000E+00
    C_Omega      =   0.000000E+00

   => Exchange Functionals <=

    0.8000    B3_X
    0.2000      HF 

   => Correlation Functionals <=

    0.1900 VWN3RPA_C
    0.8100   LYP_C

   => Molecular Quadrature <=

    Radial Scheme    =       TREUTLER
    Pruning Scheme   =           FLAT
    Nuclear Scheme   =       TREUTLER

    BS radius alpha  =              1
    Pruning alpha    =              1
    Radial Points    =             75
    Spherical Points =            302
    Total Points     =         312778
    Total Blocks     =            280
    Max Points       =           4987
    Max Functions    =            106

  ==> Pre-Iterations <==

   -------------------------------------------------------
    Irrep   Nso     Nmo     Nalpha   Nbeta   Ndocc  Nsocc
   -------------------------------------------------------
     A        106     106       0       0       0       0
   -------------------------------------------------------
    Total     106     106      17      17      17       0
   -------------------------------------------------------

  ==> Integral Setup <==

  ==> DFJK: Density-Fitted J/K Matrices <==

    J tasked:                  Yes
    K tasked:                  Yes
    wK tasked:                  No
    OpenMP threads:              1
    Integrals threads:           1
    Memory (MB):               715
    Algorithm:                Core
    Integral Cache:           NONE
    Schwarz Cutoff:          1E-12
    Fitting Condition:       1E-12

   => Auxiliary Basis Set <=

  Basis Set: 
    Number of shells: 186
    Number of basis function: 510
    Number of Cartesian functions: 574
    Spherical Harmonics?: true
    Max angular momentum: 3

  Minimum eigenvalue in the overlap matrix is 5.1132177401E-03.
  Using Symmetric Orthogonalization.
  SCF Guess was Projection but file not found.
  Switching over to SAD guess.

  SCF Guess: Superposition of Atomic Densities via on-the-fly atomic UHF.

  ==> Iterations <==

                           Total Energy        Delta E     RMS |[F,P]|

   @DF-RKS iter   0:  -158.93720281315990   -1.58937e+02   3.25853e-02 
   @DF-RKS iter   1:  -158.31898417279831    6.18219e-01   4.56622e-03 
   @DF-RKS iter   2:  -158.26441957980958    5.45646e-02   5.53538e-03 DIIS
   @DF-RKS iter   3:  -158.45539991990330   -1.90980e-01   3.66681e-04 DIIS
   @DF-RKS iter   4:  -158.45617286448385   -7.72945e-04   9.99622e-05 DIIS
   @DF-RKS iter   5:  -158.45622080613327   -4.79416e-05   4.43400e-05 DIIS
   @DF-RKS iter   6:  -158.45623149962921   -1.06935e-05   6.85289e-06 DIIS
   @DF-RKS iter   7:  -158.45623178752280   -2.87894e-07   9.21402e-07 DIIS
   @DF-RKS iter   8:  -158.45623179337679   -5.85399e-09   1.16595e-07 DIIS
   @DF-RKS iter   9:  -158.45623179346583   -8.90452e-11   3.91541e-08 DIIS
   @DF-RKS iter  10:  -158.45623179347322   -7.38964e-12   1.77651e-08 DIIS
   @DF-RKS iter  11:  -158.45623179347496   -1.73372e-12   1.94469e-09 DIIS

  ==> Post-Iterations <==

    Orbital Energies (a.u.)
    -----------------------

    Doubly Occupied:                                                      

       1A    -10.178663     2A    -10.178495     3A    -10.173433  
       4A    -10.173423     5A     -0.790316     6A     -0.715748  
       7A     -0.635849     8A     -0.564043     9A     -0.453367  
      10A     -0.452428    11A     -0.414770    12A     -0.379606  
      13A     -0.378226    14A     -0.356563    15A     -0.326546  
      16A     -0.319114    17A     -0.318547  

    Virtual:                                                              

      18A      0.059198    19A      0.092851    20A      0.095505  
      21A      0.103717    22A      0.131951    23A      0.140939  
      24A      0.150205    25A      0.155367    26A      0.157213  
      27A      0.191609    28A      0.216614    29A      0.233965  
      30A      0.262248    31A      0.403138    32A      0.406718  
      33A      0.431078    34A      0.434866    35A      0.441641  
      36A      0.473020    37A      0.532165    38A      0.587747  
      39A      0.601136    40A      0.623248    41A      0.627016  
      42A      0.644744    43A      0.649895    44A      0.661088  
      45A      0.669188    46A      0.678772    47A      0.684018  
      48A      0.687988    49A      0.705249    50A      0.717510  
      51A      0.756126    52A      0.800793    53A      0.896031  
      54A      0.903951    55A      0.963420    56A      1.103431  
      57A      1.131463    58A      1.181460    59A      1.188617  
      60A      1.257340    61A      1.349241    62A      1.379162  
      63A      1.418052    64A      1.434056    65A      1.450328  
      66A      1.459511    67A      1.569089    68A      1.578283  
      69A      1.606774    70A      1.625509    71A      1.635089  
      72A      1.647292    73A      1.655887    74A      1.671747  
      75A      1.677162    76A      1.686725    77A      1.698625  
      78A      1.710034    79A      1.719695    80A      1.723126  
      81A      1.790164    82A      1.803487    83A      1.872265  
      84A      1.874465    85A      1.972383    86A      1.985009  
      87A      2.026866    88A      2.034950    89A      2.084979  
      90A      2.123304    91A      2.201209    92A      2.234494  
      93A      2.252802    94A      2.261454    95A      2.292816  
      96A      2.310830    97A      2.424692    98A      2.435792  
      99A      2.449790   100A      2.487036   101A      2.493629  
     102A      2.530362   103A      2.615909   104A      2.616352  
     105A      2.685096   106A      2.723513  

    Final Occupation by Irrep:
              A 
    DOCC [    17 ]

  Energy converged.

  @DF-RKS Final Energy:  -158.45623179347496

   => Energetics <=

    Nuclear Repulsion Energy =            132.0437294558026053
    One-Electron Energy =                -472.5732570654266738
    Two-Electron Energy =                 202.6716400348100535
    DFT Exchange-Correlation Energy =     -20.5983442186609196
    Empirical Dispersion Energy =           0.0000000000000000
    PCM Polarization Energy =               0.0000000000000000
    EFP Energy =                            0.0000000000000000
    Total Energy =                       -158.4562317934749558


  Saving occupied orbitals to File 180.

*** tstop() called on lski1497 at Tue Feb 21 20:21:40 2017
Module time:
	user time   =     123.69 seconds =       2.06 minutes
	system time =       1.44 seconds =       0.02 minutes
	total time  =        142 seconds =       2.37 minutes
Total time:
	user time   =     495.98 seconds =       8.27 minutes
	system time =       6.22 seconds =       0.10 minutes
	total time  =        564 seconds =       9.40 minutes


Properties will be evaluated at   0.000000,   0.000000,   0.000000 Bohr

Properties computed using the SCF density matrix

  Nuclear Dipole Moment: (a.u.)
     X:    -0.5308      Y:    -0.1755      Z:    -0.7116

  Electronic Dipole Moment: (a.u.)
     X:     0.5446      Y:     0.1800      Z:     0.7298

  Dipole Moment: (a.u.)
     X:     0.0138      Y:     0.0045      Z:     0.0182     Total:     0.0233

  Dipole Moment: (Debye)
     X:     0.0350      Y:     0.0115      Z:     0.0462     Total:     0.0591


*** tstart() called on lski1497
*** at Tue Feb 21 20:21:40 2017


         ------------------------------------------------------------
                                   SCF GRAD                          
                          Rob Parrish, Justin Turney,                
                       Andy Simmonett, and Alex Sokolov              
         ------------------------------------------------------------

  ==> Geometry <==

    Molecular point group: c1
    Full point group: C1

    Geometry (in Angstrom), charge = 0, multiplicity = 1:

       Center              X                  Y                   Z               Mass       
    ------------   -----------------  -----------------  -----------------  -----------------
           H         -2.013361234349     0.207564327134     0.821861403241     1.007825032070
           H         -1.836223156951     1.877775302515     0.231996021154     1.007825032070
           H         -1.592706874158     0.513851882769    -0.879469794668     1.007825032070
           C         -1.441184814579     0.858523878869     0.149608759377    12.000000000000
           H          0.605717868933     1.492355147056    -0.153407631732     1.007825032070
           H          0.168148699309     1.189338759872     1.552516813037     1.007825032070
           C          0.053902998039     0.826708305999     0.523493094218    12.000000000000
           H          1.653648750581    -0.586771908218     0.879658780220     1.007825032070
           H          0.013433741138    -1.288370205210     0.979434349815     1.007825032070
           C          0.655674607386    -0.592157583222     0.424038921089    12.000000000000
           H          1.210509449459    -2.084434260750    -1.068228030640     1.007825032070
           H          1.427463748471    -0.401256956651    -1.604198476632     1.007825032070
           H         -0.202814963365    -1.107214848471    -1.519250917007     1.007825032070
           C          0.779158407376    -1.077355658767    -1.033388494091    12.000000000000

  Nuclear repulsion =  132.043729455802605

  ==> Basis Set <==

  Basis Set: CC-PVDZ
    Number of shells: 54
    Number of basis function: 106
    Number of Cartesian functions: 110
    Spherical Harmonics?: true
    Max angular momentum: 2

  ==> DFJKGrad: Density-Fitted SCF Gradients <==

    Gradient:                    1
    J tasked:                  Yes
    K tasked:                  Yes
    wK tasked:                  No
    OpenMP threads:              1
    Integrals threads:           1
    Memory (MB):               715
    Schwarz Cutoff:          0E+00
    Fitting Condition:       1E-12

   => Auxiliary Basis Set <=

  Basis Set: 
    Number of shells: 186
    Number of basis function: 510
    Number of Cartesian functions: 574
    Spherical Harmonics?: true
    Max angular momentum: 3

  ==> DFT Potential <==

   => B3LYP Composite Functional <= 

    B3LYP Hybrid-GGA Exchange-Correlation Functional (VWN1-RPA)

    P.J. Stephens et. al., J. Phys. Chem., 98, 11623-11627, 1994

    Points   =           5000
    Deriv    =              1
    GGA      =           TRUE
    Meta     =          FALSE

    X_LRC        =          FALSE
    X_Hybrid     =           TRUE
    X_Alpha      =   2.000000E-01
    X_Omega      =   0.000000E+00
    C_LRC        =          FALSE
    C_Hybrid     =          FALSE
    C_Alpha      =   0.000000E+00
    C_Omega      =   0.000000E+00

   => Exchange Functionals <=

    0.8000    B3_X
    0.2000      HF 

   => Correlation Functionals <=

    0.1900 VWN3RPA_C
    0.8100   LYP_C

   => Molecular Quadrature <=

    Radial Scheme    =       TREUTLER
    Pruning Scheme   =           FLAT
    Nuclear Scheme   =       TREUTLER

    BS radius alpha  =              1
    Pruning alpha    =              1
[...]
  Basis Set: CC-PVDZ
    Number of shells: 54
    Number of basis function: 106
    Number of Cartesian functions: 110
    Spherical Harmonics?: true
    Max angular momentum: 2

  ==> DFJKGrad: Density-Fitted SCF Gradients <==

    Gradient:                    1
    J tasked:                  Yes
    K tasked:                  Yes
    wK tasked:                  No
    OpenMP threads:              1
    Integrals threads:           1
    Memory (MB):               715
    Schwarz Cutoff:          0E+00
    Fitting Condition:       1E-12

   => Auxiliary Basis Set <=

  Basis Set: 
    Number of shells: 186
    Number of basis function: 510
    Number of Cartesian functions: 574
    Spherical Harmonics?: true
    Max angular momentum: 3

  ==> DFT Potential <==

   => B3LYP Composite Functional <= 

    B3LYP Hybrid-GGA Exchange-Correlation Functional (VWN1-RPA)

    P.J. Stephens et. al., J. Phys. Chem., 98, 11623-11627, 1994

    Points   =           5000
    Deriv    =              1
    GGA      =           TRUE
    Meta     =          FALSE

    X_LRC        =          FALSE
    X_Hybrid     =           TRUE
    X_Alpha      =   2.000000E-01
    X_Omega      =   0.000000E+00
    C_LRC        =          FALSE
    C_Hybrid     =          FALSE
    C_Alpha      =   0.000000E+00
    C_Omega      =   0.000000E+00

   => Exchange Functionals <=

    0.8000    B3_X
    0.2000      HF 

   => Correlation Functionals <=

    0.1900 VWN3RPA_C
    0.8100   LYP_C

   => Molecular Quadrature <=

    Radial Scheme    =       TREUTLER
    Pruning Scheme   =           FLAT
    Nuclear Scheme   =       TREUTLER

    BS radius alpha  =              1
    Pruning alpha    =              1
    Radial Points    =             75
    Spherical Points =            302
    Total Points     =         312796
    Total Blocks     =            278
    Max Points       =           4893
    Max Functions    =            106


  -Total Gradient:
     Atom            X                  Y                   Z
    ------   -----------------  -----------------  -----------------
       1        0.000001736930     0.000005798908    -0.000005239528
       2       -0.000002930162    -0.000002588336    -0.000000197348
       3        0.000002535218     0.000002853968     0.000005990354
       4       -0.000123498734    -0.000112432807     0.000563920336
       5       -0.000012243422    -0.000001027596    -0.000000348264
       6        0.000010171674    -0.000000270183    -0.000007981655
       7        0.000393804494     0.000253188143    -0.000798161902
       8       -0.000010497970     0.000000087101     0.000007279815
       9        0.000003030416    -0.000002045325    -0.000011470240
      10       -0.000798607877    -0.000388478638     0.000261222381
      11        0.000000026209     0.000001722837    -0.000002829729
      12       -0.000004304509    -0.000006380939     0.000002677205
      13        0.000005808607    -0.000000023400     0.000005013408
      14        0.000532426170     0.000248747194    -0.000023249452


*** tstop() called on lski1497 at Tue Feb 21 20:38:08 2017
Module time:
	user time   =      30.59 seconds =       0.51 minutes
	system time =       0.39 seconds =       0.01 minutes
	total time  =         30 seconds =       0.50 minutes
Total time:
	user time   =    1406.21 seconds =      23.44 minutes
	system time =      17.64 seconds =       0.29 minutes
	total time  =       1552 seconds =      25.87 minutes

			-----------------------------------------
			 OPTKING 2.0: for geometry optimizations 
			  - R.A. King,  Bethel University        
			-----------------------------------------

	Previous internal coordinate definitions found.
	---Fragment 1 Geometry and Gradient---
	 H          -3.8584928601        0.4168824408        1.5274727563
	 H          -3.4802454734        3.6073655131        0.5331825218
	 H          -3.0925174549        1.1084947657       -1.6715198065
	 C          -2.7351909909        1.6760694097        0.3011571798
	 H           1.1529238323        2.8624370124       -0.2423158263
	 H           0.3311660175        2.2408688516        2.9290460772
	 C           0.0772577475        1.5478895173        0.9762399231
	 H           3.1261778482       -1.0815466164        1.6636432345
	 H           0.0920054964       -2.4449784425        1.8960718550
	 C           1.2387530967       -1.1065981110        0.7719360225
	 H           2.3941862098       -3.9715464944       -1.9758901000
	 H           2.6839316471       -0.8107311866       -3.0877357817
	 H          -0.3424111219       -2.2603198535       -2.8914002594
	 C           1.5026008363       -2.0893874556       -1.9385189561
	             0.0000017369        0.0000057989       -0.0000052395
	            -0.0000029302       -0.0000025883       -0.0000001973
	             0.0000025352        0.0000028540        0.0000059904
	            -0.0001234987       -0.0001124328        0.0005639203
	            -0.0000122434       -0.0000010276       -0.0000003483
	             0.0000101717       -0.0000002702       -0.0000079817
	             0.0003938045        0.0002531881       -0.0007981619
	            -0.0000104980        0.0000000871        0.0000072798
	             0.0000030304       -0.0000020453       -0.0000114702
	            -0.0007986079       -0.0003884786        0.0002612224
	             0.0000000262        0.0000017228       -0.0000028297
	            -0.0000043045       -0.0000063809        0.0000026772
	             0.0000058086       -0.0000000234        0.0000050134
	             0.0005324262        0.0002487472       -0.0000232495

	---Fragment 1 Intrafragment Coordinates---
	 - Coordinate -           - BOHR/RAD -       - ANG/DEG -
	 R(1,4)           =         2.085955	       1.103840
	 R(2,4)           =         2.082990	       1.102271
	 R(3,4)           =         2.083573	       1.102579
	 R(4,7)           =         2.895174	       1.532060
	 R(5,7)           =         2.090448	       1.106217
	 R(6,7)           =         2.087616	       1.104719
	 R(7,10)          =         2.904671	       1.537086
	 R(8,10)          =         2.087616	       1.104719
	 R(9,10)          =         2.090448	       1.106218
	 R(10,14)         =         2.895178	       1.532062
	 R(11,14)         =         2.082989	       1.102270
	 R(12,14)         =         2.085954	       1.103839
	 R(13,14)         =         2.083571	       1.102578
	 B(1,4,2)         =         1.877154	     107.552988
	 B(1,4,3)         =         1.875292	     107.446331
	 B(1,4,7)         =         1.938328	     111.057986
	 B(2,4,3)         =         1.872017	     107.258699
	 B(2,4,7)         =         1.941789	     111.256309
	 B(3,4,7)         =         1.955518	     112.042914
	 B(4,7,5)         =         1.913566	     109.639275
	 B(4,7,6)         =         1.898185	     108.758003
	 B(4,7,10)        =         1.995999	     114.362313
	 B(5,7,6)         =         1.848293	     105.899400
	 B(5,7,10)        =         1.904891	     109.142200
	 B(6,7,10)        =         1.897071	     108.694135
	 B(7,10,8)        =         1.897070	     108.694128
	 B(7,10,9)        =         1.904889	     109.142129
	 B(7,10,14)       =         1.996004	     114.362582
	 B(8,10,9)        =         1.848293	     105.899393
	 B(8,10,14)       =         1.898181	     108.757738
	 B(9,10,14)       =         1.913567	     109.639335
	 B(10,14,11)      =         1.941781	     111.255848
	 B(10,14,12)      =         1.938324	     111.057769
	 B(10,14,13)      =         1.955517	     112.042897
	 B(11,14,12)      =         1.877160	     107.553338
	 B(11,14,13)      =         1.872022	     107.258933
	 B(12,14,13)      =         1.875295	     107.446491
	 D(1,4,7,5)       =        -3.115047	    -178.479049
	 D(1,4,7,6)       =        -1.101554	     -63.114379
	 D(1,4,7,10)      =         1.022389	      58.578595
	 D(2,4,7,5)       =        -1.024645	     -58.707843
	 D(2,4,7,6)       =         0.988848	      56.656826
	 D(2,4,7,10)      =         3.112791	     178.349800
	 D(3,4,7,5)       =         1.070855	      61.355474
	 D(3,4,7,6)       =         3.084348	     176.720144
	 D(3,4,7,10)      =        -1.074894	     -61.586883
	 D(4,7,10,8)      =        -2.938289	    -168.351557
	 D(4,7,10,9)      =        -0.930096	     -53.290603
	 D(4,7,10,14)     =         1.220345	      69.920593
	 D(5,7,10,8)      =         1.194459	      68.437461
	 D(5,7,10,9)      =        -3.080534	    -176.501585
	 D(5,7,10,14)     =        -0.930093	     -53.290389
	 D(6,7,10,8)      =        -0.813734	     -46.623543
	 D(6,7,10,9)      =         1.194458	      68.437411
	 D(6,7,10,14)     =        -2.938286	    -168.351393
	 D(7,10,14,11)    =         3.112783	     178.349326
	 D(7,10,14,12)    =         1.022381	      58.578131
	 D(7,10,14,13)    =        -1.074903	     -61.587389
	 D(8,10,14,11)    =         0.988840	      56.656376
	 D(8,10,14,12)    =        -1.101561	     -63.114820
	 D(8,10,14,13)    =         3.084340	     176.719661
	 D(9,10,14,11)    =        -1.024651	     -58.708171
	 D(9,10,14,12)    =        -3.115053	    -178.479366
	 D(9,10,14,13)    =         1.070849	      61.355115

	Current energy   :      -158.4574149299

	Energy change for the previous step:
		Projected    :        -0.0000002924
		Actual       :        -0.0000008371

	Performing BFGS update.
	Previous computed or guess Hessian on step 1.
	Steps to be used in Hessian update: 6 5
	Adding user-defined constraint: Fragment 1; Coordinate 49:
		Value =     1.220345; Fixed value    =     1.221730
		Force =     0.000901; Force constant =     0.650000
	Removing off-diagonal coupling between coordinate 49 and others.
	Taking RFO optimization step.
	Going to follow RFO solution 1.
	Rejecting RFO root 1 because normalization gives large value.
	Using RFO vector 2.
	Norm of target step-size    0.00277
	Projected energy change by RFO approximation:         0.0000002136

	Back-transformation to cartesian coordinates...
	Successfully converged to displaced geometry.

	--- Internal Coordinate Step in ANG or DEG, aJ/ANG or AJ/DEG ---
	 ---------------------------------------------------------------------------
	   Coordinate                Previous        Force       Change         New 
	   ----------                --------       ------       ------       ------
	    1 R(1,4)          =      1.103840     0.000069    -0.000029     1.103811
	    2 R(2,4)          =      1.102271     0.000007    -0.000050     1.102220
	    3 R(3,4)          =      1.102579     0.000057    -0.000034     1.102546
	    4 R(4,7)          =      1.532060     0.000161     0.000044     1.532105
	    5 R(5,7)          =      1.106217     0.000052    -0.000008     1.106210
	    6 R(6,7)          =      1.104719     0.000051     0.000028     1.104747
	    7 R(7,10)         =      1.537086    -0.000083    -0.000025     1.537061
	    8 R(8,10)         =      1.104719     0.000052     0.000027     1.104746
	    9 R(9,10)         =      1.106218     0.000050    -0.000008     1.106209
	   10 R(10,14)        =      1.532062     0.000155     0.000042     1.532104
	   11 R(11,14)        =      1.102270     0.000008    -0.000051     1.102219
	   12 R(12,14)        =      1.103839     0.000072    -0.000029     1.103811
	   13 R(13,14)        =      1.102578     0.000062    -0.000031     1.102548
	   14 B(1,4,2)        =    107.552988     0.000000     0.003208   107.556196
	   15 B(1,4,3)        =    107.446331    -0.000000     0.000182   107.446513
	   16 B(1,4,7)        =    111.057986    -0.000000    -0.008713   111.049273
	   17 B(2,4,3)        =    107.258699     0.000000     0.005547   107.264246
	   18 B(2,4,7)        =    111.256309    -0.000000     0.004091   111.260401
	   19 B(3,4,7)        =    112.042914     0.000000    -0.003721   112.039193
	   20 B(4,7,5)        =    109.639275    -0.000001     0.014537   109.653813
	   21 B(4,7,6)        =    108.758003     0.000001    -0.021342   108.736661
	   22 B(4,7,10)       =    114.362313    -0.000000    -0.005427   114.356886
	   23 B(5,7,6)        =    105.899400     0.000000    -0.004037   105.895363
	   24 B(5,7,10)       =    109.142200    -0.000000     0.007939   109.150138
	   25 B(6,7,10)       =    108.694135     0.000000     0.008174   108.702309
	   26 B(7,10,8)       =    108.694128     0.000000     0.008216   108.702344
	   27 B(7,10,9)       =    109.142129    -0.000000     0.008007   109.150136
	   28 B(7,10,14)      =    114.362582    -0.000000    -0.005650   114.356932
	   29 B(8,10,9)       =    105.899393     0.000000    -0.003879   105.895514
	   30 B(8,10,14)      =    108.757738     0.000001    -0.021251   108.736487
	   31 B(9,10,14)      =    109.639335    -0.000001     0.014433   109.653768
	   32 B(10,14,11)     =    111.255848    -0.000000     0.005492   111.261340
	   33 B(10,14,12)     =    111.057769    -0.000000    -0.007740   111.050028
	   34 B(10,14,13)     =    112.042897     0.000000    -0.004093   112.038804
	   35 B(11,14,12)     =    107.553338     0.000000     0.002048   107.555386
	   36 B(11,14,13)     =    107.258933     0.000000     0.004938   107.263871
	   37 B(12,14,13)     =    107.446491    -0.000000    -0.000191   107.446300
	   38 D(1,4,7,5)      =   -178.479049    -0.000000     0.027686  -178.451363
	   39 D(1,4,7,6)      =    -63.114379    -0.000000     0.018923   -63.095456
	   40 D(1,4,7,10)     =     58.578595     0.000000     0.009962    58.588557
	   41 D(2,4,7,5)      =    -58.707843    -0.000000     0.028638   -58.679205
	   42 D(2,4,7,6)      =     56.656826    -0.000000     0.019876    56.676702
	   43 D(2,4,7,10)     =    178.349800     0.000000     0.010915   178.360715
	   44 D(3,4,7,5)      =     61.355474    -0.000000     0.036015    61.391489
	   45 D(3,4,7,6)      =    176.720144    -0.000000     0.027252   176.747396
	   46 D(3,4,7,10)     =    -61.586883     0.000000     0.018291   -61.568592
	   47 D(4,7,10,8)     =   -168.351557    -0.000000    -0.028722  -168.380279
	   48 D(4,7,10,9)     =    -53.290603    -0.000000    -0.024584   -53.315187
	   49 D(4,7,10,14)    =     69.920593    -0.000001    -0.003570    69.917024
	   50 D(5,7,10,8)     =     68.437461    -0.000000    -0.049980    68.387482
	   51 D(5,7,10,9)     =   -176.501585    -0.000000    -0.045841  -176.547426
	   52 D(5,7,10,14)    =    -53.290389    -0.000000    -0.024827   -53.315216
	   53 D(6,7,10,8)     =    -46.623543    -0.000000    -0.053871   -46.677414
	   54 D(6,7,10,9)     =     68.437411    -0.000000    -0.049733    68.387678
	   55 D(6,7,10,14)    =   -168.351393    -0.000000    -0.028719  -168.380111
	   56 D(7,10,14,11)   =    178.349326     0.000000     0.011759   178.361084
	   57 D(7,10,14,12)   =     58.578131     0.000000     0.010688    58.588819
	   58 D(7,10,14,13)   =    -61.587389     0.000000     0.019073   -61.568316
	   59 D(8,10,14,11)   =     56.656376    -0.000000     0.020750    56.677125
	   60 D(8,10,14,12)   =    -63.114820    -0.000000     0.019679   -63.095140
	   61 D(8,10,14,13)   =    176.719661    -0.000000     0.028064   176.747725
	   62 D(9,10,14,11)   =    -58.708171    -0.000000     0.029331   -58.678840
	   63 D(9,10,14,12)   =   -178.479366    -0.000000     0.028261  -178.451105
	   64 D(9,10,14,13)   =     61.355115    -0.000000     0.036645    61.391759
	 ---------------------------------------------------------------------------
	 Forces used to impose fixed constraints are not included.
	  Forces zeroed: 49 

  ==> Convergence Check <==

  Measures of convergence in internal coordinates in au.
  Criteria marked as inactive (o), active & met (*), and active & unmet ( ).
  ---------------------------------------------------------------------------------------------
   Step     Total Energy     Delta E     MAX Force     RMS Force      MAX Disp      RMS Disp   
  ---------------------------------------------------------------------------------------------
    Convergence Criteria    1.00e-06 *    3.00e-04 *             o    1.20e-03 *             o
  ---------------------------------------------------------------------------------------------
      7    -158.45741493   -8.37e-07 *    2.24e-05 *    8.37e-06 o    9.40e-04 *    3.46e-04 o  ~
  ---------------------------------------------------------------------------------------------


  **** Optimization is complete! (in 7 steps) ****

  ==> Optimization Summary <==

  Measures of convergence in internal coordinates in au.
  --------------------------------------------------------------------------------------------------------------- ~
   Step         Total Energy             Delta E       MAX Force       RMS Force        MAX Disp        RMS Disp  ~
  --------------------------------------------------------------------------------------------------------------- ~
      1    -158.447129414400   -158.447129414400      0.02342337      0.00988101      0.02802532      0.01257146  ~
      2    -158.453259463953     -0.006130049553      0.01283177      0.00550591      0.02537543      0.01256633  ~
      3    -158.456231793475     -0.002972329522      0.00458685      0.00215931      0.03570393      0.01252155  ~
      4    -158.457181652758     -0.000949859284      0.00152377      0.00066457      0.04200261      0.01250901  ~
      5    -158.457404120909     -0.000222468151      0.00067235      0.00017433      0.00861983      0.00394670  ~
      6    -158.457414092818     -0.000009971908      0.00013808      0.00003609      0.00137959      0.00039560  ~
      7    -158.457414929873     -0.000000837055      0.00003745      0.00000959      0.00094023      0.00034600  ~
  --------------------------------------------------------------------------------------------------------------- ~

	Writing optimization data to binary file.
	Final energy is   -158.4574149298732
	Final (previous) structure:
	Cartesian Geometry (in Angstrom)
	    H    -2.0418264811   0.2206046863   0.8083037694
	    H    -1.8416665848   1.9089356126   0.2821480386
	    H    -1.6364897543   0.5865901659  -0.8845301853
	    C    -1.4474007335   0.8869377316   0.1593655158
	    H     0.6101010153   1.5147364280  -0.1282280126
	    H     0.1752455087   1.1858167237   1.5499844269
	    C     0.0408830391   0.8191078540   0.5166039174
	    H     1.6543020672  -0.5723298194   0.8803620829
	    H     0.0486872118  -1.2938268672   1.0033580115
	    C     0.6555199059  -0.5855864994   0.4084909496
	    H     1.2669487753  -2.1016518877  -1.0455960076
	    H     1.4202754571  -0.4290204663  -1.6339594018
	    H    -0.1811961617  -1.1961097506  -1.5300631182
	    C     0.7951421162  -1.1056562214  -1.0258200500
	Saving final (previous) structure.
			--------------------------
			 OPTKING Finished Execution 
			--------------------------

    Final optimized geometry and variables:
    Molecular point group: c1
    Full point group: C1

    Geometry (in Angstrom), charge = 0, multiplicity = 1:

    H           -2.041826481066     0.220604686317     0.808303769365
    H           -1.841666584804     1.908935612577     0.282148038558
    H           -1.636489754280     0.586590165858    -0.884530185315
    C           -1.447400733524     0.886937731634     0.159365515756
    H            0.610101015319     1.514736428005    -0.128228012572
    H            0.175245508747     1.185816723706     1.549984426949
    C            0.040883039143     0.819107853957     0.516603917418
    H            1.654302067246    -0.572329819447     0.880362082925
    H            0.048687211772    -1.293826867242     1.003358011497
    C            0.655519905851    -0.585586499427     0.408490949597
    H            1.266948775349    -2.101651887717    -1.045596007596
    H            1.420275457051    -0.429020466256    -1.633959401830
    H           -0.181196161688    -1.196109750602    -1.530063118190
    C            0.795142116152    -1.105656221398    -1.025820050004

	Cleaning optimization helper files.

*** Psi4 exiting successfully. Buy a developer a beer!
