    -----------------------------------------------------------------------
          Psi4: An Open-Source Ab Initio Electronic Structure Package
                              Psi4 1.0.0 Driver

                          Git: Rev {master} 6a9a71b 

    J. M. Turney, A. C. Simmonett, R. M. Parrish, E. G. Hohenstein,
    F. A. Evangelista, J. T. Fermann, B. J. Mintz, L. A. Burns, J. J. Wilke,
    M. L. Abrams, N. J. Russ, M. L. Leininger, C. L. Janssen, E. T. Seidl,
    W. D. Allen, H. F. Schaefer, R. A. King, E. F. Valeev, C. D. Sherrill,
    and T. D. Crawford, WIREs Comput. Mol. Sci. 2, 556-565 (2012)
    (doi: 10.1002/wcms.93)

                         Additional Contributions by
    A. E. DePrince, U. Bozkaya, A. Yu. Sokolov, D. G. A. Smith, R. Di Remigio,
    R. M. Richard, J. F. Gonthier, H. R. McAlexander, M. Saitow, and
    B. P. Pritchard
    -----------------------------------------------------------------------


    Psi4 started on: Tue Feb 21 18:20:22 2017

    Process ID:  37056
    PSI4DATADIR: /Users/sternc1/anaconda/share/psi4
    Memory level set to 256.000 MB

  ==> Input File <==

--------------------------------------------------------------------------

memory 1000 mb

molecule butane {
  symmetry C1
  0 1 
  H      1.604   0.760   -8.260
  H      1.745   2.388   -8.880
  H      2.043   1.024   -9.930
  C      2.142   1.395   -8.932
  H      4.169   2.051   -9.210
  H      3.731   1.788   -7.539
  C      3.631   1.416   -8.537
  H      3.575   -0.615   -9.234
  H      5.189   0.020   -9.026
  C      4.203   -0.012   -8.612
  H      4.657   -1.610   -7.250
  H      3.274   -0.650   -6.783
  H      4.888   -0.015   -6.576
  C      4.260   -0.618   -7.198
  units Angstrom
}

dih_string = "4 7 10 14 260"
set optking fixed_dihedral = $dih_string

optimize('B3LYP/cc-PVDZ')
--------------------------------------------------------------------------

  Memory set to 1000.000 MiB by Python script.
gradient() will perform analytic gradient computation.

*** tstart() called on lski1497
*** at Tue Feb 21 18:20:24 2017


         ---------------------------------------------------------
                                   SCF
            by Justin Turney, Rob Parrish, and Andy Simmonett
                              RKS Reference
                        1 Threads,   1000 MiB Core
         ---------------------------------------------------------

  ==> Geometry <==

    Molecular point group: c1
    Full point group: C1

    Geometry (in Angstrom), charge = 0, multiplicity = 1:

       Center              X                  Y                   Z               Mass       
    ------------   -----------------  -----------------  -----------------  -----------------
           H         -1.942592689278     0.220155422783     0.050908706555     1.007825032070
           H         -1.801592689278     1.848155422783    -0.569091293445     1.007825032070
           H         -1.503592689278     0.484155422783    -1.619091293445     1.007825032070
           C         -1.404592689278     0.855155422783    -0.621091293445    12.000000000000
           H          0.622407310722     1.511155422783    -0.899091293445     1.007825032070
           H          0.184407310722     1.248155422783     0.771908706555     1.007825032070
           C          0.084407310722     0.876155422783    -0.226091293445    12.000000000000
           H          0.028407310722    -1.154844577217    -0.923091293445     1.007825032070
           H          1.642407310722    -0.519844577217    -0.715091293445     1.007825032070
           C          0.656407310722    -0.551844577217    -0.301091293445    12.000000000000
           H          1.110407310722    -2.149844577217     1.060908706555     1.007825032070
           H         -0.272592689278    -1.189844577217     1.527908706555     1.007825032070
           H          1.341407310722    -0.554844577217     1.734908706555     1.007825032070
           C          0.713407310722    -1.157844577217     1.112908706555    12.000000000000

  Running in c1 symmetry.

  Rotational constants: A =      0.51549  B =      0.14292  C =      0.13562 [cm^-1]
  Rotational constants: A =  15453.98743  B =   4284.50405  C =   4065.75724 [MHz]
  Nuclear repulsion =  133.129166358360777

  Charge       = 0
  Multiplicity = 1
  Electrons    = 34
  Nalpha       = 17
  Nbeta        = 17

  ==> Algorithm <==

  SCF Algorithm Type is DF.
  DIIS enabled.
  MOM disabled.
  Fractional occupation disabled.
  Guess Type is SAD.
  Energy threshold   = 1.00e-08
  Density threshold  = 1.00e-08
  Integral threshold = 0.00e+00

  ==> Primary Basis <==

  Basis Set: CC-PVDZ
    Number of shells: 54
    Number of basis function: 106
    Number of Cartesian functions: 110
    Spherical Harmonics?: true
    Max angular momentum: 2

  ==> DFT Potential <==

   => B3LYP Composite Functional <= 

    B3LYP Hybrid-GGA Exchange-Correlation Functional (VWN1-RPA)

    P.J. Stephens et. al., J. Phys. Chem., 98, 11623-11627, 1994

    Points   =           5000
    Deriv    =              1
    GGA      =           TRUE
    Meta     =          FALSE

    X_LRC        =          FALSE
    X_Hybrid     =           TRUE
    X_Alpha      =   2.000000E-01
    X_Omega      =   0.000000E+00
    C_LRC        =          FALSE
    C_Hybrid     =          FALSE
    C_Alpha      =   0.000000E+00
    C_Omega      =   0.000000E+00

   => Exchange Functionals <=

    0.8000    B3_X
    0.2000      HF 

   => Correlation Functionals <=

    0.1900 VWN3RPA_C
    0.8100   LYP_C

   => Molecular Quadrature <=

    Radial Scheme    =       TREUTLER
    Pruning Scheme   =           FLAT
    Nuclear Scheme   =       TREUTLER

    BS radius alpha  =              1
    Pruning alpha    =              1
    Radial Points    =             75
    Spherical Points =            302
    Total Points     =         312729
    Total Blocks     =            275
    Max Points       =           4977
    Max Functions    =            106

  ==> Pre-Iterations <==

   -------------------------------------------------------
    Irrep   Nso     Nmo     Nalpha   Nbeta   Ndocc  Nsocc
   -------------------------------------------------------
     A        106     106       0       0       0       0
   -------------------------------------------------------
    Total     106     106      17      17      17       0
   -------------------------------------------------------

  ==> Integral Setup <==

  ==> DFJK: Density-Fitted J/K Matrices <==

    J tasked:                  Yes
    K tasked:                  Yes
    wK tasked:                  No
    OpenMP threads:              1
    Integrals threads:           1
    Memory (MB):               715
    Algorithm:                Core
    Integral Cache:           NONE
    Schwarz Cutoff:          1E-12
    Fitting Condition:       1E-12

   => Auxiliary Basis Set <=

  Basis Set: 
    Number of shells: 186
    Number of basis function: 510
    Number of Cartesian functions: 574
    Spherical Harmonics?: true
    Max angular momentum: 3

  Minimum eigenvalue in the overlap matrix is 4.9295276961E-03.
  Using Symmetric Orthogonalization.
  SCF Guess: Superposition of Atomic Densities via on-the-fly atomic UHF.

  ==> Iterations <==

                           Total Energy        Delta E     RMS |[F,P]|

   @DF-RKS iter   0:  -159.04380646960041   -1.59044e+02   3.38804e-02 
   @DF-RKS iter   1:  -158.29164008346504    7.52166e-01   4.86615e-03 
   @DF-RKS iter   2:  -158.24120911938849    5.04310e-02   5.73777e-03 DIIS
   @DF-RKS iter   3:  -158.44413661288428   -2.02927e-01   3.66711e-04 DIIS
   @DF-RKS iter   4:  -158.44487887329240   -7.42260e-04   1.19267e-04 DIIS
   @DF-RKS iter   5:  -158.44494854844146   -6.96751e-05   4.73354e-05 DIIS
   @DF-RKS iter   6:  -158.44496077482398   -1.22264e-05   6.26844e-06 DIIS
   @DF-RKS iter   7:  -158.44496101514250   -2.40319e-07   1.00057e-06 DIIS
   @DF-RKS iter   8:  -158.44496102182762   -6.68513e-09   1.28672e-07 DIIS
   @DF-RKS iter   9:  -158.44496102192625   -9.86233e-11   4.51923e-08 DIIS
   @DF-RKS iter  10:  -158.44496102193685   -1.06013e-11   1.82632e-08 DIIS
   @DF-RKS iter  11:  -158.44496102193858   -1.73372e-12   2.23177e-09 DIIS

  ==> Post-Iterations <==

    Orbital Energies (a.u.)
    -----------------------

    Doubly Occupied:                                                      

       1A    -10.169032     2A    -10.168844     3A    -10.164863  
       4A    -10.164813     5A     -0.795464     6A     -0.721559  
       7A     -0.635087     8A     -0.576501     9A     -0.463058  
      10A     -0.447883    11A     -0.421726    12A     -0.391512  
      13A     -0.371477    14A     -0.361923    15A     -0.332744  
      16A     -0.320004    17A     -0.311940  

    Virtual:                                                              

      18A      0.064249    19A      0.095364    20A      0.099335  
      21A      0.107153    22A      0.136602    23A      0.148701  
      24A      0.148856    25A      0.159306    26A      0.159970  
      27A      0.194296    28A      0.216137    29A      0.255455  
      30A      0.256312    31A      0.405534    32A      0.425935  
      33A      0.434536    34A      0.440318    35A      0.457921  
      36A      0.475955    37A      0.525144    38A      0.597346  
      39A      0.603816    40A      0.635400    41A      0.648191  
      42A      0.656053    43A      0.666384    44A      0.669626  
      45A      0.672059    46A      0.696952    47A      0.702237  
      48A      0.704382    49A      0.704533    50A      0.744324  
      51A      0.749757    52A      0.780247    53A      0.873151  
      54A      0.888541    55A      0.969225    56A      1.124126  
      57A      1.134152    58A      1.186630    59A      1.219752  
      60A      1.234133    61A      1.394165    62A      1.413910  
      63A      1.430357    64A      1.447421    65A      1.450695  
      66A      1.489194    67A      1.574763    68A      1.602672  
      69A      1.640042    70A      1.648652    71A      1.649792  
      72A      1.655365    73A      1.666106    74A      1.695164  
      75A      1.702824    76A      1.710573    77A      1.731914  
      78A      1.733917    79A      1.756092    80A      1.765122  
      81A      1.768901    82A      1.851133    83A      1.868512  
      84A      1.917301    85A      1.988492    86A      2.012160  
      87A      2.041193    88A      2.074474    89A      2.100253  
      90A      2.186383    91A      2.237106    92A      2.259399  
      93A      2.270192    94A      2.301824    95A      2.342406  
      96A      2.373479    97A      2.502886    98A      2.507992  
      99A      2.512285   100A      2.538267   101A      2.538831  
     102A      2.617296   103A      2.639776   104A      2.643506  
     105A      2.693005   106A      2.753549  

    Final Occupation by Irrep:
              A 
    DOCC [    17 ]

  Energy converged.

  @DF-RKS Final Energy:  -158.44496102193858

   => Energetics <=

    Nuclear Repulsion Energy =            133.1291663583607772
    One-Electron Energy =                -474.6453020539117915
    Two-Electron Energy =                 203.7525357641496839
    DFT Exchange-Correlation Energy =     -20.6813610905372371
    Empirical Dispersion Energy =           0.0000000000000000
    PCM Polarization Energy =               0.0000000000000000
    EFP Energy =                            0.0000000000000000
    Total Energy =                       -158.4449610219385818


  Saving occupied orbitals to File 180.

*** tstop() called on lski1497 at Tue Feb 21 18:22:37 2017
Module time:
	user time   =     117.88 seconds =       1.96 minutes
	system time =       1.59 seconds =       0.03 minutes
	total time  =        133 seconds =       2.22 minutes
Total time:
	user time   =     117.88 seconds =       1.96 minutes
	system time =       1.59 seconds =       0.03 minutes
	total time  =        133 seconds =       2.22 minutes


Properties will be evaluated at   0.000000,   0.000000,   0.000000 Bohr

Properties computed using the SCF density matrix

  Nuclear Dipole Moment: (a.u.)
     X:    -0.5540      Y:    -0.2413      Z:     0.3948

  Electronic Dipole Moment: (a.u.)
     X:     0.5792      Y:     0.2520      Z:    -0.4128

  Dipole Moment: (a.u.)
     X:     0.0253      Y:     0.0107      Z:    -0.0180     Total:     0.0328

  Dipole Moment: (Debye)
     X:     0.0642      Y:     0.0271      Z:    -0.0459     Total:     0.0834


*** tstart() called on lski1497
*** at Tue Feb 21 18:22:37 2017


         ------------------------------------------------------------
                                   SCF GRAD                          
                          Rob Parrish, Justin Turney,                
                       Andy Simmonett, and Alex Sokolov              
         ------------------------------------------------------------

  ==> Geometry <==

    Molecular point group: c1
    Full point group: C1

    Geometry (in Angstrom), charge = 0, multiplicity = 1:

       Center              X                  Y                   Z               Mass       
    ------------   -----------------  -----------------  -----------------  -----------------
           H         -1.942592689278     0.220155422783     0.050908706555     1.007825032070
           H         -1.801592689278     1.848155422783    -0.569091293445     1.007825032070
           H         -1.503592689278     0.484155422783    -1.619091293445     1.007825032070
           C         -1.404592689278     0.855155422783    -0.621091293445    12.000000000000
           H          0.622407310722     1.511155422783    -0.899091293445     1.007825032070
           H          0.184407310722     1.248155422783     0.771908706555     1.007825032070
           C          0.084407310722     0.876155422783    -0.226091293445    12.000000000000
           H          0.028407310722    -1.154844577217    -0.923091293445     1.007825032070
           H          1.642407310722    -0.519844577217    -0.715091293445     1.007825032070
           C          0.656407310722    -0.551844577217    -0.301091293445    12.000000000000
           H          1.110407310722    -2.149844577217     1.060908706555     1.007825032070
           H         -0.272592689278    -1.189844577217     1.527908706555     1.007825032070
           H          1.341407310722    -0.554844577217     1.734908706555     1.007825032070
           C          0.713407310722    -1.157844577217     1.112908706555    12.000000000000

  Nuclear repulsion =  133.129166358360777

  ==> Basis Set <==

  Basis Set: CC-PVDZ
    Number of shells: 54
    Number of basis function: 106
    Number of Cartesian functions: 110
    Spherical Harmonics?: true
    Max angular momentum: 2

  ==> DFJKGrad: Density-Fitted SCF Gradients <==

    Gradient:                    1
    J tasked:                  Yes
    K tasked:                  Yes
    wK tasked:                  No
    OpenMP threads:              1
    Integrals threads:           1
    Memory (MB):               715
    Schwarz Cutoff:          0E+00
    Fitting Condition:       1E-12

   => Auxiliary Basis Set <=

  Basis Set: 
    Number of shells: 186
    Number of basis function: 510
    Number of Cartesian functions: 574
    Spherical Harmonics?: true
    Max angular momentum: 3

  ==> DFT Potential <==

   => B3LYP Composite Functional <= 

    B3LYP Hybrid-GGA Exchange-Correlation Functional (VWN1-RPA)

    P.J. Stephens et. al., J. Phys. Chem., 98, 11623-11627, 1994

    Points   =           5000
    Deriv    =              1
    GGA      =           TRUE
    Meta     =          FALSE

    X_LRC        =          FALSE
    X_Hybrid     =           TRUE
    X_Alpha      =   2.000000E-01
    X_Omega      =   0.000000E+00
    C_LRC        =          FALSE
    C_Hybrid     =          FALSE
    C_Alpha      =   0.000000E+00
    C_Omega      =   0.000000E+00

   => Exchange Functionals <=

    0.8000    B3_X
    0.2000      HF 

   => Correlation Functionals <=

    0.1900 VWN3RPA_C
    0.8100   LYP_C

   => Molecular Quadrature <=

    Radial Scheme    =       TREUTLER
    Pruning Scheme   =           FLAT
    Nuclear Scheme   =       TREUTLER

    BS radius alpha  =              1
    Pruning alpha    =              1
    Radial Points    =             75
    Spherical Points =            302
    Total Points     =         312729
    Total Blocks     =            275
    Max Points       =           4977
    Max Functions    =            106


  -Total Gradient:
     Atom            X                  Y                   Z
    ------   -----------------  -----------------  -----------------
       1        0.014543898907     0.013035642940    -0.012586539188
       2        0.012990921670    -0.018840442082    -0.000131191538
       3        0.005024268045     0.007399168657     0.021068441966
       4       -0.028987639935    -0.008994708940    -0.010196877277
       5       -0.010426813637    -0.016464896875     0.011930869202
       6       -0.004501053073    -0.011302279658    -0.019635198224
       7        0.020786169070     0.026653220662     0.017651077547
       8        0.009768165435     0.013534814377     0.015769478862
       9       -0.020654535262     0.002925737162     0.010114976854
      10        0.003167145841    -0.016379127295    -0.033919904166
      11       -0.007598980274     0.021968059750    -0.003877597130
      12        0.019518415453     0.002003396376    -0.011693675534
      13       -0.012750268916    -0.010572547589    -0.015108523225
      14       -0.000879525517    -0.004965829653     0.030614458012


*** tstop() called on lski1497 at Tue Feb 21 18:23:18 2017
Module time:
	user time   =      36.75 seconds =       0.61 minutes
	system time =       0.62 seconds =       0.01 minutes
	total time  =         41 seconds =       0.68 minutes
Total time:
	user time   =     154.66 seconds =       2.58 minutes
	system time =       2.21 seconds =       0.04 minutes
	total time  =        174 seconds =       2.90 minutes

			-----------------------------------------
			 OPTKING 2.0: for geometry optimizations 
			  - R.A. King,  Bethel University        
			-----------------------------------------

	Internal coordinates to be generated automatically.
	Detected frag 1 with atoms:  1 2 3 4 5 6 7 8 9 10 11 12 13 14
	---Fragment 1 Bond Connectivity---
	 1 : 4
	 2 : 4
	 3 : 4
	 4 : 1 2 3 7
	 5 : 7
	 6 : 7
	 7 : 4 5 6 10
	 8 : 10
	 9 : 10
	 10 : 7 8 9 14
	 11 : 14
	 12 : 14
	 13 : 14
	 14 : 10 11 12 13

	Assuming in current code that numbering for constraints corresponds to unified fragment.
	Fixed dihedral atom list: 
	     4     7    10    14
	---Fragment 1 Geometry and Gradient---
	 H          -3.6709681705        0.4160334557        0.0962035132
	 H          -3.4045167857        3.4925076001       -1.0754266892
	 H          -2.8413783981        0.9149211548       -3.0596391288
	 C          -2.6542955110        1.6160095501       -1.1736924481
	 H           1.1761793604        2.8556698933       -1.6990363131
	 H           0.3484793142        2.3586719203        1.4586960550
	 C           0.1595067009        1.6556937989       -0.4272506256
	 H           0.0536820374       -2.1823399770       -1.7443897403
	 H           3.1037000159       -0.9823638826       -1.3513267046
	 C           1.2404300489       -1.0428351189       -0.5689800856
	 H           2.0983657132       -4.0626174792        2.0048269074
	 H          -0.5151255286       -2.2484803916        2.8873290114
	 H           2.5348924499       -1.0485042973        3.2785023209
	 C           1.3481444385       -2.1880091554        2.1030926663
	             0.0145438989        0.0130356429       -0.0125865392
	             0.0129909217       -0.0188404421       -0.0001311915
	             0.0050242680        0.0073991687        0.0210684420
	            -0.0289876399       -0.0089947089       -0.0101968773
	            -0.0104268136       -0.0164648969        0.0119308692
	            -0.0045010531       -0.0113022797       -0.0196351982
	             0.0207861691        0.0266532207        0.0176510775
	             0.0097681654        0.0135348144        0.0157694789
	            -0.0206545353        0.0029257372        0.0101149769
	             0.0031671458       -0.0163791273       -0.0339199042
	            -0.0075989803        0.0219680597       -0.0038775971
	             0.0195184155        0.0020033964       -0.0116936755
	            -0.0127502689       -0.0105725476       -0.0151085232
	            -0.0008795255       -0.0049658297        0.0306144580

	Previous optimization step data not found.  Starting new optimization.

	---Fragment 1 Intrafragment Coordinates---
	 - Coordinate -           - BOHR/RAD -       - ANG/DEG -
	 R(1,4)           =         2.021436	       1.069698
	 R(2,4)           =         2.023298	       1.070683
	 R(3,4)           =         2.020723	       1.069320
	 R(4,7)           =         2.911397	       1.540645
	 R(5,7)           =         2.022623	       1.070326
	 R(6,7)           =         2.021555	       1.069761
	 R(7,10)          =         2.910419	       1.540128
	 R(8,10)          =         2.021987	       1.069989
	 R(9,10)          =         2.021756	       1.069867
	 R(10,14)         =         2.909123	       1.539442
	 R(11,14)         =         2.021545	       1.069756
	 R(12,14)         =         2.022488	       1.070255
	 R(13,14)         =         2.021987	       1.069989
	 B(1,4,2)         =         1.910870	     109.484805
	 B(1,4,3)         =         1.911121	     109.499161
	 B(1,4,7)         =         1.910399	     109.457783
	 B(2,4,3)         =         1.910042	     109.437340
	 B(2,4,7)         =         1.910564	     109.467262
	 B(3,4,7)         =         1.910803	     109.480971
	 B(4,7,5)         =         1.909937	     109.431343
	 B(4,7,6)         =         1.911630	     109.528316
	 B(4,7,10)        =         1.911154	     109.501062
	 B(5,7,6)         =         1.910605	     109.469614
	 B(5,7,10)        =         1.910047	     109.437654
	 B(6,7,10)        =         1.910425	     109.459295
	 B(7,10,8)        =         1.910126	     109.442139
	 B(7,10,9)        =         1.910699	     109.474981
	 B(7,10,14)       =         1.911353	     109.512487
	 B(8,10,9)        =         1.910090	     109.440106
	 B(8,10,14)       =         1.911164	     109.501622
	 B(9,10,14)       =         1.910367	     109.455965
	 B(10,14,11)      =         1.911478	     109.519601
	 B(10,14,12)      =         1.911149	     109.500796
	 B(10,14,13)      =         1.911164	     109.501622
	 B(11,14,12)      =         1.910301	     109.452168
	 B(11,14,13)      =         1.910320	     109.453259
	 B(12,14,13)      =         1.909387	     109.399790
	 D(1,4,7,5)       =         3.140997	     179.965873
	 D(1,4,7,6)       =        -1.047644	     -60.025575
	 D(1,4,7,10)      =         1.047427	      60.013132
	 D(2,4,7,5)       =        -1.047689	     -60.028143
	 D(2,4,7,6)       =         1.046856	      59.980409
	 D(2,4,7,10)      =        -3.141259	    -179.980883
	 D(3,4,7,5)       =         1.046044	      59.933911
	 D(3,4,7,6)       =         3.140588	     179.942463
	 D(3,4,7,10)      =        -1.047526	     -60.018830
	 D(4,7,10,8)      =         0.349701	      20.036417
	 D(4,7,10,9)      =         2.443161	     139.982824
	 D(4,7,10,14)     =        -1.745474	    -100.008276
	 D(5,7,10,8)      =        -1.743801	     -99.912459
	 D(5,7,10,9)      =         0.349658	      20.033948
	 D(5,7,10,14)     =         2.444209	     140.042848
	 D(6,7,10,8)      =         2.445509	     140.117343
	 D(6,7,10,9)      =        -1.744217	     -99.936250
	 D(6,7,10,14)     =         0.350334	      20.072650
	 D(7,10,14,11)    =         3.141279	     179.982004
	 D(7,10,14,12)    =         1.046457	      59.957547
	 D(7,10,14,13)    =        -1.047053	     -59.991695
	 D(8,10,14,11)    =         1.046739	      59.973699
	 D(8,10,14,12)    =        -1.048083	     -60.050757
	 D(8,10,14,13)    =         3.141593	     180.000000
	 D(9,10,14,11)    =        -1.047153	     -59.997462
	 D(9,10,14,12)    =         3.141210	     179.978082
	 D(9,10,14,13)    =         1.047701	      60.028839

	Current energy   :      -158.4449610219

	Generating empirical Hessian (Schlegel '84) for each fragment.
	Adding user-defined constraint: Fragment 1; Coordinate 49:
		Value =    -1.745474; Fixed value    =    -1.745329
		Force =     0.000072; Force constant =     0.500000
	Removing off-diagonal coupling between coordinate 49 and others.
	Taking RFO optimization step.
	Going to follow RFO solution 1.
	Using RFO vector 1.

	Determining step-restricting scale parameter for RS-RFO.
	Maximum step size allowed    0.10000

	 Iter      |step|        alpha        rfo_root  
	------------------------------------------------
	    0     0.26429       1.00000           1
	    1     0.19551       5.76554           1
	    2     0.14465      18.57718           1
	    3     0.11511      37.90725           1
	    4     0.10268      52.40326           1
	    5     0.10011      56.17150           1
	    6     0.10000      56.34066           1
	------------------------------------------------
	Norm of target step-size    0.10000
	Projected energy change by RFO approximation:        -0.0073871548

	Back-transformation to cartesian coordinates...
	Successfully converged to displaced geometry.

	--- Internal Coordinate Step in ANG or DEG, aJ/ANG or AJ/DEG ---
	 ---------------------------------------------------------------------------
	   Coordinate                Previous        Force       Change         New 
	   ----------                --------       ------       ------       ------
	    1 R(1,4)          =      1.069698     0.189162     0.015149     1.084847
	    2 R(2,4)          =      1.070683     0.183697     0.014734     1.085417
	    3 R(3,4)          =      1.069320     0.186982     0.014966     1.084286
	    4 R(4,7)          =      1.540645     0.023708     0.002133     1.542778
	    5 R(5,7)          =      1.070326     0.185464     0.014868     1.085194
	    6 R(6,7)          =      1.069761     0.186764     0.014959     1.084719
	    7 R(7,10)         =      1.540128     0.090644     0.008149     1.548277
	    8 R(8,10)         =      1.069989     0.185600     0.014871     1.084860
	    9 R(9,10)         =      1.069867     0.188354     0.015088     1.084956
	   10 R(10,14)        =      1.539442     0.028365     0.002548     1.541990
	   11 R(11,14)        =      1.069756     0.189514     0.015179     1.084934
	   12 R(12,14)        =      1.070255     0.185998     0.014909     1.085163
	   13 R(13,14)        =      1.069989     0.183101     0.014670     1.084660
	   14 B(1,4,2)        =    109.484805    -0.000345    -0.442494   109.042311
	   15 B(1,4,3)        =    109.499161    -0.000248    -0.320675   109.178487
	   16 B(1,4,7)        =    109.457783     0.000252     0.316160   109.773943
	   17 B(2,4,3)        =    109.437340    -0.000304    -0.384084   109.053256
	   18 B(2,4,7)        =    109.467262     0.000465     0.599737   110.066999
	   19 B(3,4,7)        =    109.480971     0.000179     0.223587   109.704558
	   20 B(4,7,5)        =    109.431343    -0.000281    -0.338561   109.092782
	   21 B(4,7,6)        =    109.528316    -0.000235    -0.264213   109.264103
	   22 B(4,7,10)       =    109.501062     0.000860     1.030025   110.531087
	   23 B(5,7,6)        =    109.469614    -0.000021    -0.123426   109.346187
	   24 B(5,7,10)       =    109.437654    -0.000099    -0.068452   109.369202
	   25 B(6,7,10)       =    109.459295    -0.000222    -0.239837   109.219457
	   26 B(7,10,8)       =    109.442139    -0.000223    -0.240147   109.201993
	   27 B(7,10,9)       =    109.474981    -0.000104    -0.074940   109.400041
	   28 B(7,10,14)      =    109.512487     0.000861     1.031489   110.543976
	   29 B(8,10,9)       =    109.440106    -0.000020    -0.121724   109.318382
	   30 B(8,10,14)      =    109.501622    -0.000233    -0.260401   109.241221
	   31 B(9,10,14)      =    109.455965    -0.000282    -0.339300   109.116665
	   32 B(10,14,11)     =    109.519601     0.000462     0.594453   110.114054
	   33 B(10,14,12)     =    109.500796     0.000243     0.305816   109.806612
	   34 B(10,14,13)     =    109.501622     0.000179     0.223124   109.724746
	   35 B(11,14,12)     =    109.452168    -0.000340    -0.436086   109.016082
	   36 B(11,14,13)     =    109.453259    -0.000305    -0.385770   109.067489
	   37 B(12,14,13)     =    109.399790    -0.000241    -0.310869   109.088921
	   38 D(1,4,7,5)      =    179.965873     0.000036     0.232490   180.198363
	   39 D(1,4,7,6)      =    -60.025575    -0.000042    -0.282535   -60.308110
	   40 D(1,4,7,10)     =     60.013132    -0.000017    -0.105981    59.907151
	   41 D(2,4,7,5)      =    -60.028143     0.000040     0.255970   -59.772172
	   42 D(2,4,7,6)      =     59.980409    -0.000038    -0.259055    59.721354
	   43 D(2,4,7,10)     =   -179.980883    -0.000013    -0.082502  -180.063385
	   44 D(3,4,7,5)      =     59.933911     0.000046     0.293241    60.227152
	   45 D(3,4,7,6)      =    179.942463    -0.000033    -0.221785   179.720678
	   46 D(3,4,7,10)     =    -60.018830    -0.000008    -0.045231   -60.064061
	   47 D(4,7,10,8)     =     20.036417     0.000038     0.248611    20.285028
	   48 D(4,7,10,9)     =    139.982824    -0.000014    -0.091271   139.891552
	   49 D(4,7,10,14)    =   -100.008276     0.000014     0.082677   -99.925598
	   50 D(5,7,10,8)     =    -99.912459     0.000010     0.071898   -99.840561
	   51 D(5,7,10,9)     =     20.033948    -0.000041    -0.267985    19.765963
	   52 D(5,7,10,14)    =    140.042848    -0.000014    -0.094036   139.948813
	   53 D(6,7,10,8)     =    140.117343     0.000061     0.409691   140.527034
	   54 D(6,7,10,9)     =    -99.936250     0.000010     0.069809   -99.866441
	   55 D(6,7,10,14)    =     20.072650     0.000037     0.243758    20.316408
	   56 D(7,10,14,11)   =    179.982004    -0.000012    -0.078326   179.903677
	   57 D(7,10,14,12)   =     59.957547    -0.000016    -0.101032    59.856515
	   58 D(7,10,14,13)   =    -59.991695    -0.000008    -0.045593   -60.037288
	   59 D(8,10,14,11)   =     59.973699    -0.000038    -0.257147    59.716552
	   60 D(8,10,14,12)   =    -60.050757    -0.000042    -0.279852   -60.330610
	   61 D(8,10,14,13)   =    180.000000    -0.000033    -0.224413   179.775587
	   62 D(9,10,14,11)   =    -59.997462     0.000040     0.253636   -59.743826
	   63 D(9,10,14,12)   =    179.978082     0.000036     0.230930   180.209012
	   64 D(9,10,14,13)   =     60.028839     0.000045     0.286369    60.315208
	 ---------------------------------------------------------------------------
	 Forces used to impose fixed constraints are not included.
	  Forces zeroed: 49 

  ==> Convergence Check <==

  Measures of convergence in internal coordinates in au.
  Criteria marked as inactive (o), active & met (*), and active & unmet ( ).
  --------------------------------------------------------------------------------------------- ~
   Step     Total Energy     Delta E     MAX Force     RMS Force      MAX Disp      RMS Disp    ~
  --------------------------------------------------------------------------------------------- ~
    Convergence Criteria    1.00e-06 *    3.00e-04 *             o    1.20e-03 *             o  ~
  --------------------------------------------------------------------------------------------- ~
      1    -158.44496102   -1.58e+02      2.30e-02      9.58e-03 o    2.87e-02      1.25e-02 o  ~
  ---------------------------------------------------------------------------------------------

	Writing optimization data to binary file.
	Structure for next step:
	Cartesian Geometry (in Angstrom)
	    H    -1.9738161185   0.2199271493   0.0381111352
	    H    -1.8287917713   1.8557964208  -0.6147957322
	    H    -1.5174747169   0.4602061333  -1.6528749991
	    C    -1.4179572508   0.8516385823  -0.6466180725
	    H     0.6153478351   1.5129087334  -0.9320429335
	    H     0.1625255682   1.2728867460   0.7625104034
	    C     0.0708171134   0.8757531487  -0.2427211088
	    H     0.0450054501  -1.1816538266  -0.9100847645
	    H     1.6697206365  -0.5126248930  -0.6967512625
	    C     0.6675636310  -0.5523354697  -0.2829477192
	    H     1.1479353917  -2.1534209630   1.0995175270
	    H    -0.2674380052  -1.2010025044   1.5594166165
	    H     1.3547288922  -0.5312469599   1.7690136269
	    C     0.7305356946  -1.1526563783   1.1359891751
			--------------------------
			 OPTKING Finished Execution 
			--------------------------

    Structure for next step:
    Molecular point group: c1
    Full point group: C1

    Geometry (in Angstrom), charge = 0, multiplicity = 1:

    H           -1.974067830495     0.219779864885     0.038287634512
    H           -1.829043483305     1.855649136438    -0.614619232876
    H           -1.517726428905     0.460058848891    -1.652698499827
    C           -1.418208962807     0.851491297880    -0.646441573168
    H            0.615096123114     1.512761448991    -0.931866434249
    H            0.162273856171     1.272739461585     0.762686902729
    C            0.070565401458     0.875605864289    -0.242544609537
    H            0.044753738100    -1.181801111045    -0.909908265233
    H            1.669468924467    -0.512772177367    -0.696574763255
    C            0.667311918983    -0.552482754121    -0.282771219915
    H            1.147683679744    -2.153568247414     1.099694026309
    H           -0.267689717177    -1.201149788797     1.559593115763
    H            1.354477180254    -0.531394244280     1.769190126146
    C            0.730283982643    -1.152803662717     1.136165674438

gradient() will perform analytic gradient computation.

*** tstart() called on lski1497
*** at Tue Feb 21 18:23:19 2017


         ---------------------------------------------------------
                                   SCF
            by Justin Turney, Rob Parrish, and Andy Simmonett
                              RKS Reference
                        1 Threads,   1000 MiB Core
         ---------------------------------------------------------

  ==> Geometry <==

    Molecular point group: c1
    Full point group: C1

    Geometry (in Angstrom), charge = 0, multiplicity = 1:

       Center              X                  Y                   Z               Mass       
    ------------   -----------------  -----------------  -----------------  -----------------
           H         -1.974067830495     0.219779864885     0.038287634512     1.007825032070
           H         -1.829043483305     1.855649136438    -0.614619232876     1.007825032070
           H         -1.517726428905     0.460058848891    -1.652698499827     1.007825032070
           C         -1.418208962807     0.851491297880    -0.646441573168    12.000000000000
           H          0.615096123114     1.512761448991    -0.931866434249     1.007825032070
           H          0.162273856171     1.272739461585     0.762686902729     1.007825032070
           C          0.070565401458     0.875605864289    -0.242544609537    12.000000000000
           H          0.044753738100    -1.181801111045    -0.909908265233     1.007825032070
           H          1.669468924467    -0.512772177367    -0.696574763255     1.007825032070
           C          0.667311918983    -0.552482754121    -0.282771219915    12.000000000000
           H          1.147683679744    -2.153568247414     1.099694026309     1.007825032070
           H         -0.267689717177    -1.201149788797     1.559593115763     1.007825032070
           H          1.354477180254    -0.531394244280     1.769190126146     1.007825032070
           C          0.730283982643    -1.152803662717     1.136165674438    12.000000000000

  Running in c1 symmetry.

  Rotational constants: A =      0.51444  B =      0.13977  C =      0.13269 [cm^-1]
  Rotational constants: A =  15422.66093  B =   4190.32186  C =   3977.96861 [MHz]
  Nuclear repulsion =  131.963445213392504

  Charge       = 0
  Multiplicity = 1
  Electrons    = 34
  Nalpha       = 17
  Nbeta        = 17

  ==> Algorithm <==

  SCF Algorithm Type is DF.
  DIIS enabled.
  MOM disabled.
  Fractional occupation disabled.
  Guess Type is READ.
  Energy threshold   = 1.00e-08
  Density threshold  = 1.00e-08
  Integral threshold = 0.00e+00

  ==> Primary Basis <==

  Basis Set: CC-PVDZ
    Number of shells: 54
    Number of basis function: 106
    Number of Cartesian functions: 110
    Spherical Harmonics?: true
    Max angular momentum: 2

  ==> DFT Potential <==

   => B3LYP Composite Functional <= 

    B3LYP Hybrid-GGA Exchange-Correlation Functional (VWN1-RPA)

    P.J. Stephens et. al., J. Phys. Chem., 98, 11623-11627, 1994

    Points   =           5000
    Deriv    =              1
    GGA      =           TRUE
    Meta     =          FALSE

    X_LRC        =          FALSE
    X_Hybrid     =           TRUE
    X_Alpha      =   2.000000E-01
    X_Omega      =   0.000000E+00
    C_LRC        =          FALSE
    C_Hybrid     =          FALSE
    C_Alpha      =   0.000000E+00
    C_Omega      =   0.000000E+00

   => Exchange Functionals <=

    0.8000    B3_X
    0.2000      HF 

   => Correlation Functionals <=

    0.1900 VWN3RPA_C
    0.8100   LYP_C

   => Molecular Quadrature <=

    Radial Scheme    =       TREUTLER
    Pruning Scheme   =           FLAT
    Nuclear Scheme   =       TREUTLER

    BS radius alpha  =              1
    Pruning alpha    =              1
    Radial Points    =             75
    Spherical Points =            302
    Total Points     =         312752
    Total Blocks     =            274
    Max Points       =           4986
    Max Functions    =            106

  ==> Pre-Iterations <==

   -------------------------------------------------------
    Irrep   Nso     Nmo     Nalpha   Nbeta   Ndocc  Nsocc
   -------------------------------------------------------
     A        106     106       0       0       0       0
   -------------------------------------------------------
    Total     106     106      17      17      17       0
   -------------------------------------------------------

  ==> Integral Setup <==

  ==> DFJK: Density-Fitted J/K Matrices <==

    J tasked:                  Yes
    K tasked:                  Yes
    wK tasked:                  No
    OpenMP threads:              1
    Integrals threads:           1
    Memory (MB):               715
    Algorithm:                Core
    Integral Cache:           NONE
    Schwarz Cutoff:          1E-12
    Fitting Condition:       1E-12

   => Auxiliary Basis Set <=

  Basis Set: 
    Number of shells: 186
    Number of basis function: 510
    Number of Cartesian functions: 574
    Spherical Harmonics?: true
    Max angular momentum: 3

  Minimum eigenvalue in the overlap matrix is 5.0453850042E-03.
  Using Symmetric Orthogonalization.
  SCF Guess was Projection but file not found.
  Switching over to SAD guess.

  SCF Guess: Superposition of Atomic Densities via on-the-fly atomic UHF.

  ==> Iterations <==

                           Total Energy        Delta E     RMS |[F,P]|

   @DF-RKS iter   0:  -158.97116023153623   -1.58971e+02   3.30388e-02 
   @DF-RKS iter   1:  -158.30539932556314    6.65761e-01   4.71906e-03 
   @DF-RKS iter   2:  -158.25302541969663    5.23739e-02   5.63045e-03 DIIS
   @DF-RKS iter   3:  -158.45002697248066   -1.97002e-01   3.57864e-04 DIIS
   @DF-RKS iter   4:  -158.45074405459283   -7.17082e-04   1.15420e-04 DIIS
   @DF-RKS iter   5:  -158.45080917941925   -6.51248e-05   4.73204e-05 DIIS
   @DF-RKS iter   6:  -158.45082145209628   -1.22727e-05   6.26265e-06 DIIS
   @DF-RKS iter   7:  -158.45082169270844   -2.40612e-07   9.97596e-07 DIIS
   @DF-RKS iter   8:  -158.45082169941787   -6.70943e-09   1.33561e-07 DIIS
   @DF-RKS iter   9:  -158.45082169952553   -1.07661e-10   4.78462e-08 DIIS
   @DF-RKS iter  10:  -158.45082169953659   -1.10560e-11   1.92209e-08 DIIS
   @DF-RKS iter  11:  -158.45082169953832   -1.73372e-12   2.26224e-09 DIIS

  ==> Post-Iterations <==

    Orbital Energies (a.u.)
    -----------------------

    Doubly Occupied:                                                      

       1A    -10.174091     2A    -10.173923     3A    -10.170145  
       4A    -10.170112     5A     -0.791562     6A     -0.719088  
       7A     -0.631985     8A     -0.572416     9A     -0.459489  
      10A     -0.445301    11A     -0.419033    12A     -0.389759  
      13A     -0.369419    14A     -0.360090    15A     -0.330211  
      16A     -0.318925    17A     -0.314054  

    Virtual:                                                              

      18A      0.061804    19A      0.093015    20A      0.096745  
      21A      0.104679    22A      0.134020    23A      0.145239  
      24A      0.146366    25A      0.155242    26A      0.156748  
      27A      0.188577    28A      0.212703    29A      0.254432  
      30A      0.255421    31A      0.402029    32A      0.426156  
      33A      0.430702    34A      0.436771    35A      0.457675  
      36A      0.476065    37A      0.525787    38A      0.589880  
      39A      0.599936    40A      0.628679    41A      0.640632  
      42A      0.649197    43A      0.659522    44A      0.660870  
      45A      0.667413    46A      0.689148    47A      0.690958  
      48A      0.696392    49A      0.702309    50A      0.732062  
      51A      0.739965    52A      0.775142    53A      0.872175  
      54A      0.886635    55A      0.966551    56A      1.121975  
      57A      1.128921    58A      1.174118    59A      1.216650  
      60A      1.228766    61A      1.382725    62A      1.404832  
      63A      1.423805    64A      1.436173    65A      1.444171  
      66A      1.478273    67A      1.571230    68A      1.590313  
      69A      1.631517    70A      1.635062    71A      1.642314  
      72A      1.643048    73A      1.656396    74A      1.685286  
      75A      1.687681    76A      1.699400    77A      1.722012  
      78A      1.723727    79A      1.744989    80A      1.748126  
      81A      1.753011    82A      1.832797    83A      1.860505  
      84A      1.903435    85A      1.969337    86A      2.004677  
      87A      2.034561    88A      2.053238    89A      2.082438  
      90A      2.164847    91A      2.214611    92A      2.235400  
      93A      2.248606    94A      2.279686    95A      2.312555  
      96A      2.341141    97A      2.459076    98A      2.470285  
      99A      2.476783   100A      2.506697   101A      2.512248  
     102A      2.587168   103A      2.604133   104A      2.612425  
     105A      2.664571   106A      2.724265  

    Final Occupation by Irrep:
              A 
    DOCC [    17 ]

  Energy converged.

  @DF-RKS Final Energy:  -158.45082169953832

   => Energetics <=

    Nuclear Repulsion Energy =            131.9634452133925038
    One-Electron Energy =                -472.3771210020735225
    Two-Electron Energy =                 202.5953191489627727
    DFT Exchange-Correlation Energy =     -20.6324650598200918
    Empirical Dispersion Energy =           0.0000000000000000
    PCM Polarization Energy =               0.0000000000000000
    EFP Energy =                            0.0000000000000000
    Total Energy =                       -158.4508216995383236


  Saving occupied orbitals to File 180.

*** tstop() called on lski1497 at Tue Feb 21 18:25:32 2017
Module time:
	user time   =     118.90 seconds =       1.98 minutes
	system time =       1.65 seconds =       0.03 minutes
	total time  =        133 seconds =       2.22 minutes
Total time:
	user time   =     274.22 seconds =       4.57 minutes
	system time =       3.89 seconds =       0.06 minutes
	total time  =        308 seconds =       5.13 minutes


Properties will be evaluated at   0.000000,   0.000000,   0.000000 Bohr

Properties computed using the SCF density matrix

  Nuclear Dipole Moment: (a.u.)
     X:    -0.5576      Y:    -0.2435      Z:     0.3973

  Electronic Dipole Moment: (a.u.)
     X:     0.5810      Y:     0.2535      Z:    -0.4140

  Dipole Moment: (a.u.)
     X:     0.0234      Y:     0.0101      Z:    -0.0167     Total:     0.0305

  Dipole Moment: (Debye)
     X:     0.0595      Y:     0.0256      Z:    -0.0426     Total:     0.0775


*** tstart() called on lski1497
*** at Tue Feb 21 18:25:32 2017


         ------------------------------------------------------------
                                   SCF GRAD                          
                          Rob Parrish, Justin Turney,                
                       Andy Simmonett, and Alex Sokolov              
         ------------------------------------------------------------

  ==> Geometry <==

    Molecular point group: c1
    Full point group: C1

    Geometry (in Angstrom), charge = 0, multiplicity = 1:

       Center              X                  Y                   Z               Mass       
    ------------   -----------------  -----------------  -----------------  -----------------
           H         -1.974067830495     0.219779864885     0.038287634512     1.007825032070
           H         -1.829043483305     1.855649136438    -0.614619232876     1.007825032070
           H         -1.517726428905     0.460058848891    -1.652698499827     1.007825032070
           C         -1.418208962807     0.851491297880    -0.646441573168    12.000000000000
           H          0.615096123114     1.512761448991    -0.931866434249     1.007825032070
           H          0.162273856171     1.272739461585     0.762686902729     1.007825032070
           C          0.070565401458     0.875605864289    -0.242544609537    12.000000000000
           H          0.044753738100    -1.181801111045    -0.909908265233     1.007825032070
           H          1.669468924467    -0.512772177367    -0.696574763255     1.007825032070
           C          0.667311918983    -0.552482754121    -0.282771219915    12.000000000000
           H          1.147683679744    -2.153568247414     1.099694026309     1.007825032070
           H         -0.267689717177    -1.201149788797     1.559593115763     1.007825032070
           H          1.354477180254    -0.531394244280     1.769190126146     1.007825032070
           C          0.730283982643    -1.152803662717     1.136165674438    12.000000000000

  Nuclear repulsion =  131.963445213392504

  ==> Basis Set <==

  Basis Set: CC-PVDZ
    Number of shells: 54
    Number of basis function: 106
    Number of Cartesian functions: 110
    Spherical Harmonics?: true
    Max angular momentum: 2

  ==> DFJKGrad: Density-Fitted SCF Gradients <==

    Gradient:                    1
    J tasked:                  Yes
    K tasked:                  Yes
    wK tasked:                  No
    OpenMP threads:              1
    Integrals threads:           1
    Memory (MB):               715
    Schwarz Cutoff:          0E+00
    Fitting Condition:       1E-12

   => Auxiliary Basis Set <=

  Basis Set: 
    Number of shells: 186
    Number of basis function: 510
    Number of Cartesian functions: 574
    Spherical Harmonics?: true
    Max angular momentum: 3

  ==> DFT Potential <==

   => B3LYP Composite Functional <= 

    B3LYP Hybrid-GGA Exchange-Correlation Functional (VWN1-RPA)

    P.J. Stephens et. al., J. Phys. Chem., 98, 11623-11627, 1994

    Points   =           5000
    Deriv    =              1
    GGA      =           TRUE
    Meta     =          FALSE

    X_LRC        =          FALSE
    X_Hybrid     =           TRUE
    X_Alpha      =   2.000000E-01
    X_Omega      =   0.000000E+00
    C_LRC        =          FALSE
    C_Hybrid     =          FALSE
    C_Alpha      =   0.000000E+00
    C_Omega      =   0.000000E+00

   => Exchange Functionals <=

    0.8000    B3_X
    0.2000      HF 

   => Correlation Functionals <=

    0.1900 VWN3RPA_C
    0.8100   LYP_C

   => Molecular Quadrature <=

    Radial Scheme    =       TREUTLER
    Pruning Scheme   =           FLAT
    Nuclear Scheme   =       TREUTLER

    BS radius alpha  =              1
    Pruning alpha    =              1
    Radial Points    =             75
    Spherical Points =            302
    Total Points     =         312752
    Total Blocks     =            274
    Max Points       =           4986
    Max Functions    =            106


  -Total Gradient:
     Atom            X                  Y                   Z
    ------   -----------------  -----------------  -----------------
       1        0.008649551796     0.006594107016    -0.005858859103
       2        0.007702642376    -0.009158896568     0.000310756598
       3        0.003663583177     0.003972428331     0.010881856118
       4       -0.019573105141    -0.006199929984    -0.007450231487
       5       -0.005479332474    -0.009630745062     0.005020741073
       6       -0.003633491734    -0.007838604084    -0.009521404510
       7        0.014111557465     0.019346881635     0.012526725955
       8        0.003263751994     0.007634309092     0.009731136264
       9       -0.010301549164     0.002734391532     0.006151197212
      10        0.002269386966    -0.012255406353    -0.023701018410
      11       -0.003780285342     0.011237706650    -0.003183446041
      12        0.009699212335     0.001500480831    -0.007163935959
      13       -0.006366213394    -0.005023095660    -0.008735144534
      14       -0.000223555912    -0.002912608051     0.020990013478


*** tstop() called on lski1497 at Tue Feb 21 18:26:15 2017
Module time:
	user time   =      37.60 seconds =       0.63 minutes
	system time =       0.60 seconds =       0.01 minutes
	total time  =         43 seconds =       0.72 minutes
Total time:
	user time   =     311.84 seconds =       5.20 minutes
	system time =       4.49 seconds =       0.07 minutes
	total time  =        351 seconds =       5.85 minutes

			-----------------------------------------
			 OPTKING 2.0: for geometry optimizations 
			  - R.A. King,  Bethel University        
			-----------------------------------------

	Previous internal coordinate definitions found.
	---Fragment 1 Geometry and Gradient---
	 H          -3.7304475674        0.4153237542        0.0723531435
	 H          -3.4563912686        3.5066686666       -1.1614620261
	 H          -2.8680872953        0.8693852294       -3.1231475449
	 C          -2.6800265389        1.6090853575       -1.2215975342
	 H           1.1623632181        2.8587048430       -1.7609723532
	 H           0.3066531467        2.4051290209        1.4412693713
	 C           0.1333492832        1.6546552839       -0.4583428870
	 H           0.0845723084       -2.2332804434       -1.7194774273
	 H           3.1548390546       -0.9689989838       -1.3163355336
	 C           1.2610367721       -1.0440410984       -0.5343601639
	 H           2.1688078419       -4.0696541961        2.0781205397
	 H          -0.5058602541       -2.2698441454        2.9472038675
	 H           2.5595909239       -1.0041895903        3.3432848154
	 C           1.3800367264       -2.1784832075        2.1470419663
	             0.0086495518        0.0065941070       -0.0058588591
	             0.0077026424       -0.0091588966        0.0003107566
	             0.0036635832        0.0039724283        0.0108818561
	            -0.0195731051       -0.0061999300       -0.0074502315
	            -0.0054793325       -0.0096307451        0.0050207411
	            -0.0036334917       -0.0078386041       -0.0095214045
	             0.0141115575        0.0193468816        0.0125267260
	             0.0032637520        0.0076343091        0.0097311363
	            -0.0103015492        0.0027343915        0.0061511972
	             0.0022693870       -0.0122554064       -0.0237010184
	            -0.0037802853        0.0112377067       -0.0031834460
	             0.0096992123        0.0015004808       -0.0071639360
	            -0.0063662134       -0.0050230957       -0.0087351445
	            -0.0002235559       -0.0029126081        0.0209900135

	---Fragment 1 Intrafragment Coordinates---
	 - Coordinate -           - BOHR/RAD -       - ANG/DEG -
	 R(1,4)           =         2.050063	       1.084847
	 R(2,4)           =         2.051141	       1.085417
	 R(3,4)           =         2.049004	       1.084286
	 R(4,7)           =         2.915428	       1.542778
	 R(5,7)           =         2.050719	       1.085194
	 R(6,7)           =         2.049822	       1.084719
	 R(7,10)          =         2.925820	       1.548277
	 R(8,10)          =         2.050088	       1.084860
	 R(9,10)          =         2.050269	       1.084956
	 R(10,14)         =         2.913938	       1.541990
	 R(11,14)         =         2.050229	       1.084934
	 R(12,14)         =         2.050662	       1.085163
	 R(13,14)         =         2.049710	       1.084660
	 B(1,4,2)         =         1.903147	     109.042311
	 B(1,4,3)         =         1.905524	     109.178487
	 B(1,4,7)         =         1.915917	     109.773943
	 B(2,4,3)         =         1.903338	     109.053256
	 B(2,4,7)         =         1.921032	     110.066999
	 B(3,4,7)         =         1.914706	     109.704558
	 B(4,7,5)         =         1.904028	     109.092782
	 B(4,7,6)         =         1.907018	     109.264103
	 B(4,7,10)        =         1.929131	     110.531087
	 B(5,7,6)         =         1.908451	     109.346187
	 B(5,7,10)        =         1.908853	     109.369202
	 B(6,7,10)        =         1.906239	     109.219457
	 B(7,10,8)        =         1.905934	     109.201993
	 B(7,10,9)        =         1.909391	     109.400041
	 B(7,10,14)       =         1.929356	     110.543976
	 B(8,10,9)        =         1.907966	     109.318382
	 B(8,10,14)       =         1.906619	     109.241221
	 B(9,10,14)       =         1.904445	     109.116665
	 B(10,14,11)      =         1.921853	     110.114054
	 B(10,14,12)      =         1.916487	     109.806612
	 B(10,14,13)      =         1.915058	     109.724746
	 B(11,14,12)      =         1.902690	     109.016082
	 B(11,14,13)      =         1.903587	     109.067489
	 B(12,14,13)      =         1.903961	     109.088921
	 D(1,4,7,5)       =        -3.138131	    -179.801637
	 D(1,4,7,6)       =        -1.052575	     -60.308110
	 D(1,4,7,10)      =         1.045577	      59.907151
	 D(2,4,7,5)       =        -1.043221	     -59.772172
	 D(2,4,7,6)       =         1.042334	      59.721354
	 D(2,4,7,10)      =         3.140486	     179.936615
	 D(3,4,7,5)       =         1.051162	      60.227152
	 D(3,4,7,6)       =         3.136718	     179.720678
	 D(3,4,7,10)      =        -1.048316	     -60.064061
	 D(4,7,10,8)      =         0.354041	      20.285028
	 D(4,7,10,9)      =         2.441568	     139.891552
	 D(4,7,10,14)     =        -1.744031	     -99.925598
	 D(5,7,10,8)      =        -1.742547	     -99.840561
	 D(5,7,10,9)      =         0.344981	      19.765963
	 D(5,7,10,14)     =         2.442568	     139.948813
	 D(6,7,10,8)      =         2.452659	     140.527034
	 D(6,7,10,9)      =        -1.742998	     -99.866441
	 D(6,7,10,14)     =         0.354588	      20.316408
	 D(7,10,14,11)    =         3.139912	     179.903677
	 D(7,10,14,12)    =         1.044693	      59.856515
	 D(7,10,14,13)    =        -1.047848	     -60.037288
	 D(8,10,14,11)    =         1.042250	      59.716552
	 D(8,10,14,12)    =        -1.052968	     -60.330610
	 D(8,10,14,13)    =         3.137676	     179.775587
	 D(9,10,14,11)    =        -1.042726	     -59.743826
	 D(9,10,14,12)    =        -3.137945	    -179.790988
	 D(9,10,14,13)    =         1.052699	      60.315208

	Current energy   :      -158.4508216995

	Energy change for the previous step:
		Projected    :        -0.0073871548
		Actual       :        -0.0058606776

	Performing BFGS update.
	Previous computed or guess Hessian on step 1.
	Steps to be used in Hessian update: 1
	Adding user-defined constraint: Fragment 1; Coordinate 49:
		Value =    -1.744031; Fixed value    =    -1.745330
		Force =    -0.000682; Force constant =     0.525000
	Removing off-diagonal coupling between coordinate 49 and others.
	Taking RFO optimization step.
	Going to follow RFO solution 1.
	Using RFO vector 1.

	Determining step-restricting scale parameter for RS-RFO.
	Maximum step size allowed    0.10000

	 Iter      |step|        alpha        rfo_root  
	------------------------------------------------
	    0     0.21388       1.00000           1
	    1     0.16547       4.84275           1
	    2     0.12844      14.30430           1
	    3     0.10842      26.35810           1
	    4     0.10108      33.38414           1
	    5     0.10002      34.56122           1
	    6     0.10000      34.58544           1
	------------------------------------------------
	Norm of target step-size    0.10000
	Projected energy change by RFO approximation:        -0.0039431239

	Back-transformation to cartesian coordinates...
	Successfully converged to displaced geometry.

	--- Internal Coordinate Step in ANG or DEG, aJ/ANG or AJ/DEG ---
	 ---------------------------------------------------------------------------
	   Coordinate                Previous        Force       Change         New 
	   ----------                --------       ------       ------       ------
	    1 R(1,4)          =      1.084847     0.098613     0.012387     1.097234
	    2 R(2,4)          =      1.085417     0.093753     0.011576     1.096993
	    3 R(3,4)          =      1.084286     0.097787     0.012311     1.096597
	    4 R(4,7)          =      1.542778    -0.001665    -0.002248     1.540530
	    5 R(5,7)          =      1.085194     0.095515     0.011882     1.097076
	    6 R(6,7)          =      1.084719     0.098870     0.012579     1.097299
	    7 R(7,10)         =      1.548277     0.038161     0.003861     1.552138
	    8 R(8,10)         =      1.084860     0.098262     0.012506     1.097366
	    9 R(9,10)         =      1.084956     0.096900     0.012038     1.096993
	   10 R(10,14)        =      1.541990     0.001165    -0.001799     1.540191
	   11 R(11,14)        =      1.084934     0.096501     0.011880     1.096814
	   12 R(12,14)        =      1.085163     0.097068     0.012212     1.097375
	   13 R(13,14)        =      1.084660     0.095895     0.012096     1.096756
	   14 B(1,4,2)        =    109.042311    -0.000268    -0.730317   108.311994
	   15 B(1,4,3)        =    109.178487    -0.000223    -0.668942   108.509544
	   16 B(1,4,7)        =    109.773943     0.000226     0.667435   110.441378
	   17 B(2,4,3)        =    109.053256    -0.000237    -0.634689   108.418567
	   18 B(2,4,7)        =    110.066999     0.000320     0.795768   110.862767
	   19 B(3,4,7)        =    109.704558     0.000172     0.519582   110.224139
	   20 B(4,7,5)        =    109.092782    -0.000176    -0.341081   108.751701
	   21 B(4,7,6)        =    109.264103    -0.000134    -0.203083   109.061020
	   22 B(4,7,10)       =    110.531087     0.000563     1.294511   111.825598
	   23 B(5,7,6)        =    109.346187    -0.000077    -0.584217   108.761970
	   24 B(5,7,10)       =    109.369202    -0.000048     0.004827   109.374030
	   25 B(6,7,10)       =    109.219457    -0.000133    -0.203870   109.015587
	   26 B(7,10,8)       =    109.201993    -0.000132    -0.200629   109.001364
	   27 B(7,10,9)       =    109.400041    -0.000051    -0.003510   109.396531
	   28 B(7,10,14)      =    110.543976     0.000562     1.290007   111.833982
	   29 B(8,10,9)       =    109.318382    -0.000076    -0.579597   108.738785
	   30 B(8,10,14)      =    109.241221    -0.000131    -0.195127   109.046093
	   31 B(9,10,14)      =    109.116665    -0.000177    -0.344562   108.772104
	   32 B(10,14,11)     =    110.114054     0.000316     0.780322   110.894375
	   33 B(10,14,12)     =    109.806612     0.000219     0.648193   110.454805
	   34 B(10,14,13)     =    109.724746     0.000170     0.514092   110.238839
	   35 B(11,14,12)     =    109.016082    -0.000264    -0.716874   108.299208
	   36 B(11,14,13)     =    109.067489    -0.000237    -0.635475   108.432014
	   37 B(12,14,13)     =    109.088921    -0.000216    -0.642301   108.446619
	   38 D(1,4,7,5)      =   -179.801637     0.000029     0.446890  -179.354747
	   39 D(1,4,7,6)      =    -60.308110    -0.000035    -0.578508   -60.886618
	   40 D(1,4,7,10)     =     59.907151    -0.000012    -0.148505    59.758646
	   41 D(2,4,7,5)      =    -59.772172     0.000032     0.475786   -59.296386
	   42 D(2,4,7,6)      =     59.721354    -0.000032    -0.549612    59.171743
	   43 D(2,4,7,10)     =    179.936615    -0.000009    -0.119609   179.817006
	   44 D(3,4,7,5)      =     60.227152     0.000035     0.525956    60.753107
	   45 D(3,4,7,6)      =    179.720678    -0.000028    -0.499442   179.221236
	   46 D(3,4,7,10)     =    -60.064061    -0.000005    -0.069439   -60.133500
	   47 D(4,7,10,8)     =     20.285028     0.000033     0.581505    20.866533
	   48 D(4,7,10,9)     =    139.891552    -0.000014    -0.244528   139.647024
	   49 D(4,7,10,14)    =    -99.925598     0.000009     0.143286   -99.782312
	   50 D(5,7,10,8)     =    -99.840561     0.000009     0.182593   -99.657968
	   51 D(5,7,10,9)     =     19.765963    -0.000037    -0.643440    19.122523
	   52 D(5,7,10,14)    =    139.948813    -0.000014    -0.255626   139.693187
	   53 D(6,7,10,8)     =    140.527034     0.000056     1.011211   141.538245
	   54 D(6,7,10,9)     =    -99.866441     0.000009     0.185177   -99.681264
	   55 D(6,7,10,14)    =     20.316408     0.000032     0.572992    20.889400
	   56 D(7,10,14,11)   =    179.903677    -0.000008    -0.110187   179.793491
	   57 D(7,10,14,12)   =     59.856515    -0.000011    -0.134776    59.721739
	   58 D(7,10,14,13)   =    -60.037288    -0.000005    -0.072854   -60.110142
	   59 D(8,10,14,11)   =     59.716552    -0.000032    -0.545866    59.170686
	   60 D(8,10,14,12)   =    -60.330610    -0.000034    -0.570456   -60.901065
	   61 D(8,10,14,13)   =    179.775587    -0.000029    -0.508533   179.267054
	   62 D(9,10,14,11)   =    -59.743826     0.000032     0.471075   -59.272751
	   63 D(9,10,14,12)   =   -179.790988     0.000029     0.446485  -179.344503
	   64 D(9,10,14,13)   =     60.315208     0.000034     0.508408    60.823616
	 ---------------------------------------------------------------------------
	 Forces used to impose fixed constraints are not included.
	  Forces zeroed: 49 

  ==> Convergence Check <==

  Measures of convergence in internal coordinates in au.
  Criteria marked as inactive (o), active & met (*), and active & unmet ( ).
  ---------------------------------------------------------------------------------------------
   Step     Total Energy     Delta E     MAX Force     RMS Force      MAX Disp      RMS Disp   
  ---------------------------------------------------------------------------------------------
    Convergence Criteria    1.00e-06 *    3.00e-04 *             o    1.20e-03 *             o
  ---------------------------------------------------------------------------------------------
      2    -158.45082170   -5.86e-03      1.20e-02      5.20e-03 o    2.38e-02      1.25e-02 o  ~
  ---------------------------------------------------------------------------------------------

	Writing optimization data to binary file.
	Structure for next step:
	Cartesian Geometry (in Angstrom)
	    H    -2.0090352134   0.2231080256   0.0189141438
	    H    -1.8541553803   1.8575275143  -0.6654535959
	    H    -1.5348777871   0.4341388824  -1.6843312077
	    C    -1.4292747144   0.8461896044  -0.6735952692
	    H     0.6052835338   1.5095757774  -0.9632670409
	    H     0.1396672411   1.2990917395   0.7458043439
	    C     0.0547849640   0.8712515704  -0.2610780531
	    H     0.0684482270  -1.2076273232  -0.8939722006
	    H     1.6924613334  -0.5036656790  -0.6747006077
	    C     0.6776878000  -0.5504111569  -0.2606425143
	    H     1.1871168028  -2.1494811553   1.1406481193
	    H    -0.2558885564  -1.2146203369   1.5954291779
	    H     1.3645992702  -0.5085551047   1.8057981294
	    C     0.7483608614  -1.1444084208   1.1586394570
			--------------------------
			 OPTKING Finished Execution 
			--------------------------

    Structure for next step:
    Molecular point group: c1
    Full point group: C1

    Geometry (in Angstrom), charge = 0, multiplicity = 1:

    H           -2.009339280901     0.222954559780     0.019119430310
    H           -1.854459447776     1.857374048445    -0.665248309415
    H           -1.535181854570     0.433985416574    -1.684125921197
    C           -1.429578781850     0.846036138609    -0.673389982781
    H            0.604979466273     1.509422311540    -0.963061754410
    H            0.139363173636     1.298938273639     0.746009630357
    C            0.054480896531     0.871098104628    -0.260872766674
    H            0.068144159460    -1.207780788997    -0.893766914139
    H            1.692157265895    -0.503819144815    -0.674495321276
    C            0.677383732531    -0.550564622691    -0.260437227807
    H            1.186812735300    -2.149634621117     1.140853405715
    H           -0.256192623896    -1.214773802738     1.595634464362
    H            1.364295202738    -0.508708570514     1.806003415824
    C            0.748056793953    -1.144561886568     1.158844743473

gradient() will perform analytic gradient computation.

*** tstart() called on lski1497
*** at Tue Feb 21 18:26:16 2017


         ---------------------------------------------------------
                                   SCF
            by Justin Turney, Rob Parrish, and Andy Simmonett
                              RKS Reference
                        1 Threads,   1000 MiB Core
         ---------------------------------------------------------

  ==> Geometry <==

    Molecular point group: c1
    Full point group: C1

    Geometry (in Angstrom), charge = 0, multiplicity = 1:

       Center              X                  Y                   Z               Mass       
    ------------   -----------------  -----------------  -----------------  -----------------
           H         -2.009339280901     0.222954559780     0.019119430310     1.007825032070
           H         -1.854459447776     1.857374048445    -0.665248309415     1.007825032070
           H         -1.535181854570     0.433985416574    -1.684125921197     1.007825032070
           C         -1.429578781850     0.846036138609    -0.673389982781    12.000000000000
           H          0.604979466273     1.509422311540    -0.963061754410     1.007825032070
           H          0.139363173636     1.298938273639     0.746009630357     1.007825032070
           C          0.054480896531     0.871098104628    -0.260872766674    12.000000000000
           H          0.068144159460    -1.207780788997    -0.893766914139     1.007825032070
           H          1.692157265895    -0.503819144815    -0.674495321276     1.007825032070
           C          0.677383732531    -0.550564622691    -0.260437227807    12.000000000000
           H          1.186812735300    -2.149634621117     1.140853405715     1.007825032070
           H         -0.256192623896    -1.214773802738     1.595634464362     1.007825032070
           H          1.364295202738    -0.508708570514     1.806003415824     1.007825032070
           C          0.748056793953    -1.144561886568     1.158844743473    12.000000000000

  Running in c1 symmetry.

  Rotational constants: A =      0.51709  B =      0.13695  C =      0.13007 [cm^-1]
  Rotational constants: A =  15501.85189  B =   4105.78982  C =   3899.53568 [MHz]
  Nuclear repulsion =  131.074447200306224

  Charge       = 0
  Multiplicity = 1
  Electrons    = 34
  Nalpha       = 17
  Nbeta        = 17

  ==> Algorithm <==

  SCF Algorithm Type is DF.
  DIIS enabled.
  MOM disabled.
  Fractional occupation disabled.
  Guess Type is READ.
  Energy threshold   = 1.00e-08
  Density threshold  = 1.00e-08
  Integral threshold = 0.00e+00

  ==> Primary Basis <==

  Basis Set: CC-PVDZ
    Number of shells: 54
    Number of basis function: 106
    Number of Cartesian functions: 110
    Spherical Harmonics?: true
    Max angular momentum: 2

  ==> DFT Potential <==

   => B3LYP Composite Functional <= 

    B3LYP Hybrid-GGA Exchange-Correlation Functional (VWN1-RPA)

    P.J. Stephens et. al., J. Phys. Chem., 98, 11623-11627, 1994

    Points   =           5000
    Deriv    =              1
    GGA      =           TRUE
    Meta     =          FALSE

    X_LRC        =          FALSE
    X_Hybrid     =           TRUE
    X_Alpha      =   2.000000E-01
    X_Omega      =   0.000000E+00
    C_LRC        =          FALSE
    C_Hybrid     =          FALSE
    C_Alpha      =   0.000000E+00
    C_Omega      =   0.000000E+00

   => Exchange Functionals <=

    0.8000    B3_X
    0.2000      HF 

   => Correlation Functionals <=

    0.1900 VWN3RPA_C
    0.8100   LYP_C

   => Molecular Quadrature <=

    Radial Scheme    =       TREUTLER
    Pruning Scheme   =           FLAT
    Nuclear Scheme   =       TREUTLER

    BS radius alpha  =              1
    Pruning alpha    =              1
    Radial Points    =             75
    Spherical Points =            302
    Total Points     =         312774
    Total Blocks     =            277
    Max Points       =           4846
    Max Functions    =            106

  ==> Pre-Iterations <==

   -------------------------------------------------------
    Irrep   Nso     Nmo     Nalpha   Nbeta   Ndocc  Nsocc
   -------------------------------------------------------
     A        106     106       0       0       0       0
   -------------------------------------------------------
    Total     106     106      17      17      17       0
   -------------------------------------------------------

  ==> Integral Setup <==

  ==> DFJK: Density-Fitted J/K Matrices <==

    J tasked:                  Yes
    K tasked:                  Yes
    wK tasked:                  No
    OpenMP threads:              1
    Integrals threads:           1
    Memory (MB):               715
    Algorithm:                Core
    Integral Cache:           NONE
    Schwarz Cutoff:          1E-12
    Fitting Condition:       1E-12

   => Auxiliary Basis Set <=

  Basis Set: 
    Number of shells: 186
    Number of basis function: 510
    Number of Cartesian functions: 574
    Spherical Harmonics?: true
    Max angular momentum: 3

  Minimum eigenvalue in the overlap matrix is 5.1127371474E-03.
  Using Symmetric Orthogonalization.
  SCF Guess was Projection but file not found.
  Switching over to SAD guess.

  SCF Guess: Superposition of Atomic Densities via on-the-fly atomic UHF.

  ==> Iterations <==

                           Total Energy        Delta E     RMS |[F,P]|

   @DF-RKS iter   0:  -158.92278233102351   -1.58923e+02   3.24773e-02 
   @DF-RKS iter   1:  -158.31429184278142    6.08490e-01   4.60226e-03 
   @DF-RKS iter   2:  -158.25996819544793    5.43236e-02   5.55199e-03 DIIS
   @DF-RKS iter   3:  -158.45277844877234   -1.92810e-01   3.52589e-04 DIIS
   @DF-RKS iter   4:  -158.45348330249669   -7.04854e-04   1.11569e-04 DIIS
   @DF-RKS iter   5:  -158.45354391451258   -6.06120e-05   4.71625e-05 DIIS
   @DF-RKS iter   6:  -158.45355613560889   -1.22211e-05   6.22610e-06 DIIS
   @DF-RKS iter   7:  -158.45355637340307   -2.37794e-07   9.97205e-07 DIIS
   @DF-RKS iter   8:  -158.45355638014826   -6.74518e-09   1.39191e-07 DIIS
   @DF-RKS iter   9:  -158.45355638026399   -1.15733e-10   5.23496e-08 DIIS
   @DF-RKS iter  10:  -158.45355638027837   -1.43814e-11   2.00757e-08 DIIS
   @DF-RKS iter  11:  -158.45355638028053   -2.16005e-12   2.24642e-09 DIIS

  ==> Post-Iterations <==

    Orbital Energies (a.u.)
    -----------------------

    Doubly Occupied:                                                      

       1A    -10.178088     2A    -10.177931     3A    -10.174172  
       4A    -10.174160     5A     -0.789117     6A     -0.717901  
       7A     -0.630132     8A     -0.569381     9A     -0.456507  
      10A     -0.443353    11A     -0.417017    12A     -0.388364  
      13A     -0.368024    14A     -0.358928    15A     -0.328083  
      16A     -0.317642    17A     -0.316453  

    Virtual:                                                              

      18A      0.059891    19A      0.091123    20A      0.094552  
      21A      0.102426    22A      0.131982    23A      0.142541  
      24A      0.144536    25A      0.151348    26A      0.153769  
      27A      0.183406    28A      0.210741    29A      0.255516  
      30A      0.257063    31A      0.398221    32A      0.424148  
      33A      0.427117    34A      0.435385    35A      0.457573  
      36A      0.476503    37A      0.527514    38A      0.585083  
      39A      0.599255    40A      0.623893    41A      0.633755  
      42A      0.643973    43A      0.653735    44A      0.654549  
      45A      0.663372    46A      0.677486    47A      0.685787  
      48A      0.691224    49A      0.702131    50A      0.722493  
      51A      0.733067    52A      0.770755    53A      0.872855  
      54A      0.885590    55A      0.964864    56A      1.121192  
      57A      1.124531    58A      1.161643    59A      1.214100  
      60A      1.224089    61A      1.372760    62A      1.397807  
      63A      1.420421    64A      1.428528    65A      1.439503  
      66A      1.468226    67A      1.570499    68A      1.578344  
      69A      1.622562    70A      1.627614    71A      1.632868  
      72A      1.640057    73A      1.651319    74A      1.673680  
      75A      1.680891    76A      1.690659    77A      1.715820  
      78A      1.716536    79A      1.730512    80A      1.734121  
      81A      1.749494    82A      1.817200    83A      1.852015  
      84A      1.890707    85A      1.956395    86A      2.000774  
      87A      2.035572    88A      2.035734    89A      2.068689  
      90A      2.148608    91A      2.196932    92A      2.216753  
      93A      2.233222    94A      2.264062    95A      2.288171  
      96A      2.313514    97A      2.423412    98A      2.436216  
      99A      2.454865   100A      2.487079   101A      2.497553  
     102A      2.563926   103A      2.573522   104A      2.598648  
     105A      2.647956   106A      2.706798  

    Final Occupation by Irrep:
              A 
    DOCC [    17 ]

  Energy converged.

  @DF-RKS Final Energy:  -158.45355638028053

   => Energetics <=

    Nuclear Repulsion Energy =            131.0744472003062242
    One-Electron Energy =                -470.6383971641111543
    Two-Electron Energy =                 201.7066804501328647
    DFT Exchange-Correlation Energy =     -20.5962868666084766
    Empirical Dispersion Energy =           0.0000000000000000
    PCM Polarization Energy =               0.0000000000000000
    EFP Energy =                            0.0000000000000000
    Total Energy =                       -158.4535563802805314


  Saving occupied orbitals to File 180.

*** tstop() called on lski1497 at Tue Feb 21 18:28:29 2017
Module time:
	user time   =     118.28 seconds =       1.97 minutes
	system time =       1.54 seconds =       0.03 minutes
	total time  =        133 seconds =       2.22 minutes
Total time:
	user time   =     430.80 seconds =       7.18 minutes
	system time =       6.06 seconds =       0.10 minutes
	total time  =        485 seconds =       8.08 minutes


Properties will be evaluated at   0.000000,   0.000000,   0.000000 Bohr

Properties computed using the SCF density matrix

  Nuclear Dipole Moment: (a.u.)
     X:    -0.5619      Y:    -0.2457      Z:     0.4002

  Electronic Dipole Moment: (a.u.)
     X:     0.5836      Y:     0.2551      Z:    -0.4158

  Dipole Moment: (a.u.)
     X:     0.0217      Y:     0.0095      Z:    -0.0155     Total:     0.0283

  Dipole Moment: (Debye)
     X:     0.0551      Y:     0.0241      Z:    -0.0395     Total:     0.0720


*** tstart() called on lski1497
*** at Tue Feb 21 18:28:29 2017


         ------------------------------------------------------------
                                   SCF GRAD                          
                          Rob Parrish, Justin Turney,                
                       Andy Simmonett, and Alex Sokolov              
         ------------------------------------------------------------

  ==> Geometry <==

    Molecular point group: c1
    Full point group: C1

    Geometry (in Angstrom), charge = 0, multiplicity = 1:

       Center              X                  Y                   Z               Mass       
    ------------   -----------------  -----------------  -----------------  -----------------
           H         -2.009339280901     0.222954559780     0.019119430310     1.007825032070
           H         -1.854459447776     1.857374048445    -0.665248309415     1.007825032070
           H         -1.535181854570     0.433985416574    -1.684125921197     1.007825032070
           C         -1.429578781850     0.846036138609    -0.673389982781    12.000000000000
           H          0.604979466273     1.509422311540    -0.963061754410     1.007825032070
           H          0.139363173636     1.298938273639     0.746009630357     1.007825032070
           C          0.054480896531     0.871098104628    -0.260872766674    12.000000000000
           H          0.068144159460    -1.207780788997    -0.893766914139     1.007825032070
           H          1.692157265895    -0.503819144815    -0.674495321276     1.007825032070
           C          0.677383732531    -0.550564622691    -0.260437227807    12.000000000000
           H          1.186812735300    -2.149634621117     1.140853405715     1.007825032070
           H         -0.256192623896    -1.214773802738     1.595634464362     1.007825032070
           H          1.364295202738    -0.508708570514     1.806003415824     1.007825032070
           C          0.748056793953    -1.144561886568     1.158844743473    12.000000000000

  Nuclear repulsion =  131.074447200306224

  ==> Basis Set <==

  Basis Set: CC-PVDZ
    Number of shells: 54
    Number of basis function: 106
    Number of Cartesian functions: 110
    Spherical Harmonics?: true
    Max angular momentum: 2

  ==> DFJKGrad: Density-Fitted SCF Gradients <==

    Gradient:                    1
    J tasked:                  Yes
    K tasked:                  Yes
    wK tasked:                  No
    OpenMP threads:              1
    Integrals threads:           1
    Memory (MB):               715
    Schwarz Cutoff:          0E+00
    Fitting Condition:       1E-12

   => Auxiliary Basis Set <=

  Basis Set: 
    Number of shells: 186
    Number of basis function: 510
    Number of Cartesian functions: 574
    Spherical Harmonics?: true
    Max angular momentum: 3

  ==> DFT Potential <==

   => B3LYP Composite Functional <= 

    B3LYP Hybrid-GGA Exchange-Correlation Functional (VWN1-RPA)

    P.J. Stephens et. al., J. Phys. Chem., 98, 11623-11627, 1994

    Points   =           5000
    Deriv    =              1
    GGA      =           TRUE
    Meta     =          FALSE

    X_LRC        =          FALSE
    X_Hybrid     =           TRUE
    X_Alpha      =   2.000000E-01
    X_Omega      =   0.000000E+00
    C_LRC        =          FALSE
    C_Hybrid     =          FALSE
    C_Alpha      =   0.000000E+00
    C_Omega      =   0.000000E+00

   => Exchange Functionals <=

    0.8000    B3_X
    0.2000      HF 

   => Correlation Functionals <=

    0.1900 VWN3RPA_C
    0.8100   LYP_C

   => Molecular Quadrature <=

    Radial Scheme    =       TREUTLER
    Pruning Scheme   =           FLAT
    Nuclear Scheme   =       TREUTLER

    BS radius alpha  =              1
    Pruning alpha    =              1
[...]
    Spherical Harmonics?: true
    Max angular momentum: 2

  ==> DFJKGrad: Density-Fitted SCF Gradients <==

    Gradient:                    1
    J tasked:                  Yes
    K tasked:                  Yes
    wK tasked:                  No
    OpenMP threads:              1
    Integrals threads:           1
    Memory (MB):               715
    Schwarz Cutoff:          0E+00
    Fitting Condition:       1E-12

   => Auxiliary Basis Set <=

  Basis Set: 
    Number of shells: 186
    Number of basis function: 510
    Number of Cartesian functions: 574
    Spherical Harmonics?: true
    Max angular momentum: 3

  ==> DFT Potential <==

   => B3LYP Composite Functional <= 

    B3LYP Hybrid-GGA Exchange-Correlation Functional (VWN1-RPA)

    P.J. Stephens et. al., J. Phys. Chem., 98, 11623-11627, 1994

    Points   =           5000
    Deriv    =              1
    GGA      =           TRUE
    Meta     =          FALSE

    X_LRC        =          FALSE
    X_Hybrid     =           TRUE
    X_Alpha      =   2.000000E-01
    X_Omega      =   0.000000E+00
    C_LRC        =          FALSE
    C_Hybrid     =          FALSE
    C_Alpha      =   0.000000E+00
    C_Omega      =   0.000000E+00

   => Exchange Functionals <=

    0.8000    B3_X
    0.2000      HF 

   => Correlation Functionals <=

    0.1900 VWN3RPA_C
    0.8100   LYP_C

   => Molecular Quadrature <=

    Radial Scheme    =       TREUTLER
    Pruning Scheme   =           FLAT
    Nuclear Scheme   =       TREUTLER

    BS radius alpha  =              1
    Pruning alpha    =              1
    Radial Points    =             75
    Spherical Points =            302
    Total Points     =         312794
    Total Blocks     =            279
    Max Points       =           4977
    Max Functions    =            106


  -Total Gradient:
     Atom            X                  Y                   Z
    ------   -----------------  -----------------  -----------------
       1       -0.000003206175     0.000000186766    -0.000002446720
       2       -0.000002198858     0.000004866114     0.000000576687
       3        0.000000827939     0.000005086729    -0.000005008611
       4        0.000676468381     0.000242666020    -0.002356630587
       5        0.000000589257    -0.000014453947     0.000010591574
       6       -0.000018193430    -0.000015025168     0.000002627560
       7       -0.000059821940     0.000113884231     0.003377021289
       8       -0.000013167578     0.000001241466     0.000019865142
       9       -0.000016153047     0.000007567839     0.000000475644
      10       -0.002783728888    -0.001358671766    -0.001350121347
      11        0.000001710176    -0.000005256137    -0.000000343127
      12        0.000001705104    -0.000000801167     0.000003440805
      13        0.000006826907    -0.000001762527    -0.000000998290
      14        0.002220716423     0.001025887770     0.000292130749


*** tstop() called on lski1497 at Tue Feb 21 18:44:52 2017
Module time:
	user time   =      40.86 seconds =       0.68 minutes
	system time =       0.70 seconds =       0.01 minutes
	total time  =         48 seconds =       0.80 minutes
Total time:
	user time   =    1277.38 seconds =      21.29 minutes
	system time =      17.97 seconds =       0.30 minutes
	total time  =       1468 seconds =      24.47 minutes

			-----------------------------------------
			 OPTKING 2.0: for geometry optimizations 
			  - R.A. King,  Bethel University        
			-----------------------------------------

	Previous internal coordinate definitions found.
	---Fragment 1 Geometry and Gradient---
	 H          -3.8600336211        0.4152023295       -0.0344258830
	 H          -3.5325962653        3.5256596083       -1.2658890971
	 H          -2.9376754439        0.8630025463       -3.2352624416
	 C          -2.7126430009        1.6106548720       -1.3021847685
	 H           1.1253252024        2.8396934259       -1.8489560723
	 H           0.2799863081        2.5309913518        1.3542719849
	 C           0.0739057782        1.6263383938       -0.5162326117
	 H           0.2174974721       -2.3132051266       -1.7088399243
	 H           3.2124217521       -0.9407308026       -1.2426740596
	 C           1.2838180735       -1.0319590910       -0.4514528709
	 H           2.2535837485       -4.0855813147        2.1774633411
	 H          -0.4394142459       -2.2973851888        3.0987613677
	 H           2.6387807518       -0.9938626447        3.4482932953
	 C           1.4424423990       -2.1667186983        2.2074907098
	            -0.0000032062        0.0000001868       -0.0000024467
	            -0.0000021989        0.0000048661        0.0000005767
	             0.0000008279        0.0000050867       -0.0000050086
	             0.0006764684        0.0002426660       -0.0023566306
	             0.0000005893       -0.0000144539        0.0000105916
	            -0.0000181934       -0.0000150252        0.0000026276
	            -0.0000598219        0.0001138842        0.0033770213
	            -0.0000131676        0.0000012415        0.0000198651
	            -0.0000161530        0.0000075678        0.0000004756
	            -0.0027837289       -0.0013586718       -0.0013501213
	             0.0000017102       -0.0000052561       -0.0000003431
	             0.0000017051       -0.0000008012        0.0000034408
	             0.0000068269       -0.0000017625       -0.0000009983
	             0.0022207164        0.0010258878        0.0002921307

	---Fragment 1 Intrafragment Coordinates---
	 - Coordinate -           - BOHR/RAD -       - ANG/DEG -
	 R(1,4)           =         2.086342	       1.104045
	 R(2,4)           =         2.083479	       1.102529
	 R(3,4)           =         2.084805	       1.103231
	 R(4,7)           =         2.895310	       1.532132
	 R(5,7)           =         2.086592	       1.104177
	 R(6,7)           =         2.087978	       1.104911
	 R(7,10)          =         2.921409	       1.545943
	 R(8,10)          =         2.087978	       1.104911
	 R(9,10)          =         2.086592	       1.104177
	 R(10,14)         =         2.895310	       1.532132
	 R(11,14)         =         2.083479	       1.102530
	 R(12,14)         =         2.086342	       1.104044
	 R(13,14)         =         2.084804	       1.103231
	 B(1,4,2)         =         1.875108	     107.435792
	 B(1,4,3)         =         1.873997	     107.372122
	 B(1,4,7)         =         1.947060	     111.558331
	 B(2,4,3)         =         1.878944	     107.655581
	 B(2,4,7)         =         1.948792	     111.657576
	 B(3,4,7)         =         1.936416	     110.948468
	 B(4,7,5)         =         1.890971	     108.344679
	 B(4,7,6)         =         1.918268	     109.908638
	 B(4,7,10)        =         1.981971	     113.558580
	 B(5,7,6)         =         1.844713	     105.694294
	 B(5,7,10)        =         1.911980	     109.548379
	 B(6,7,10)        =         1.910815	     109.481652
	 B(7,10,8)        =         1.910815	     109.481643
	 B(7,10,9)        =         1.911981	     109.548451
	 B(7,10,14)       =         1.981970	     113.558533
	 B(8,10,9)        =         1.844714	     105.694312
	 B(8,10,14)       =         1.918266	     109.908543
	 B(9,10,14)       =         1.890973	     108.344746
	 B(10,14,11)      =         1.948791	     111.657512
	 B(10,14,12)      =         1.947059	     111.558278
	 B(10,14,13)      =         1.936414	     110.948342
	 B(11,14,12)      =         1.875110	     107.435888
	 B(11,14,13)      =         1.878945	     107.655645
	 B(12,14,13)      =         1.873999	     107.372220
	 D(1,4,7,5)       =         3.137659	     179.774600
	 D(1,4,7,6)       =        -1.137767	     -65.189247
	 D(1,4,7,10)      =         1.009263	      57.826510
	 D(2,4,7,5)       =        -1.047049	     -59.991485
	 D(2,4,7,6)       =         0.960711	      55.044668
	 D(2,4,7,10)      =         3.107741	     178.060425
	 D(3,4,7,5)       =         1.049018	      60.104298
	 D(3,4,7,6)       =         3.056778	     175.140451
	 D(3,4,7,10)      =        -1.079378	     -61.843792
	 D(4,7,10,8)      =         0.412736	      23.648045
	 D(4,7,10,9)      =         2.428127	     139.121444
	 D(4,7,10,14)     =        -1.738378	     -99.601716
	 D(5,7,10,8)      =        -1.703942	     -97.628690
	 D(5,7,10,9)      =         0.311449	      17.844710
	 D(5,7,10,14)     =         2.428129	     139.121550
	 D(6,7,10,8)      =         2.563853	     146.897968
	 D(6,7,10,9)      =        -1.703941	     -97.628632
	 D(6,7,10,14)     =         0.412739	      23.648208
	 D(7,10,14,11)    =         3.107733	     178.059971
	 D(7,10,14,12)    =         1.009254	      57.826013
	 D(7,10,14,13)    =        -1.079387	     -61.844294
	 D(8,10,14,11)    =         0.960705	      55.044331
	 D(8,10,14,12)    =        -1.137774	     -65.189627
	 D(8,10,14,13)    =         3.056771	     175.140066
	 D(9,10,14,11)    =        -1.047055	     -59.991830
	 D(9,10,14,12)    =         3.137652	     179.774213
	 D(9,10,14,13)    =         1.049011	      60.103906

	Current energy   :      -158.4546637030

	Energy change for the previous step:
		Projected    :        -0.0000004155
		Actual       :         0.0000004391

	Performing BFGS update.
	Previous computed or guess Hessian on step 1.
	Steps to be used in Hessian update: 7 6
	Adding user-defined constraint: Fragment 1; Coordinate 49:
		Value =    -1.738378; Fixed value    =    -1.745330
		Force =    -0.004693; Force constant =     0.675000
	Removing off-diagonal coupling between coordinate 49 and others.
	Taking RFO optimization step.
	Going to follow RFO solution 1.
	Rejecting RFO root 1 because normalization gives large value.
	Using RFO vector 2.
	Norm of target step-size    0.00209
	Projected energy change by RFO approximation:         0.0000001809

	Back-transformation to cartesian coordinates...
	Successfully converged to displaced geometry.

	--- Internal Coordinate Step in ANG or DEG, aJ/ANG or AJ/DEG ---
	 ---------------------------------------------------------------------------
	   Coordinate                Previous        Force       Change         New 
	   ----------                --------       ------       ------       ------
	    1 R(1,4)          =      1.104045    -0.000010    -0.000001     1.104044
	    2 R(2,4)          =      1.102529    -0.000047    -0.000012     1.102517
	    3 R(3,4)          =      1.103231    -0.000016    -0.000008     1.103223
	    4 R(4,7)          =      1.532132     0.000035     0.000019     1.532152
	    5 R(5,7)          =      1.104177     0.000132     0.000036     1.104213
	    6 R(6,7)          =      1.104911     0.000045     0.000004     1.104914
	    7 R(7,10)         =      1.545943    -0.000322    -0.000096     1.545847
	    8 R(8,10)         =      1.104911     0.000045     0.000004     1.104914
	    9 R(9,10)         =      1.104177     0.000131     0.000036     1.104213
	   10 R(10,14)        =      1.532132     0.000036     0.000019     1.532152
	   11 R(11,14)        =      1.102530    -0.000048    -0.000013     1.102517
	   12 R(12,14)        =      1.104044    -0.000008    -0.000001     1.104044
	   13 R(13,14)        =      1.103231    -0.000013    -0.000007     1.103223
	   14 B(1,4,2)        =    107.435792     0.000000     0.001322   107.437114
	   15 B(1,4,3)        =    107.372122     0.000000    -0.001099   107.371023
	   16 B(1,4,7)        =    111.558331    -0.000001    -0.002224   111.556107
	   17 B(2,4,3)        =    107.655581     0.000000     0.002824   107.658405
	   18 B(2,4,7)        =    111.657576     0.000000     0.002426   111.660002
	   19 B(3,4,7)        =    110.948468     0.000000    -0.003081   110.945387
	   20 B(4,7,5)        =    108.344679    -0.000004    -0.014363   108.330316
	   21 B(4,7,6)        =    109.908638     0.000005     0.020774   109.929412
	   22 B(4,7,10)       =    113.558580    -0.000002    -0.006924   113.551656
	   23 B(5,7,6)        =    105.694294    -0.000001    -0.007490   105.686804
	   24 B(5,7,10)       =    109.548379     0.000001     0.005493   109.553871
	   25 B(6,7,10)       =    109.481652     0.000001     0.002265   109.483918
	   26 B(7,10,8)       =    109.481643     0.000001     0.002282   109.483925
	   27 B(7,10,9)       =    109.548451     0.000001     0.005389   109.553840
	   28 B(7,10,14)      =    113.558533    -0.000002    -0.006876   113.551657
	   29 B(8,10,9)       =    105.694312    -0.000001    -0.007510   105.686803
	   30 B(8,10,14)      =    109.908543     0.000005     0.020930   109.929473
	   31 B(9,10,14)      =    108.344746    -0.000004    -0.014468   108.330277
	   32 B(10,14,11)     =    111.657512     0.000000     0.002511   111.660023
	   33 B(10,14,12)     =    111.558278    -0.000001    -0.002185   111.556093
	   34 B(10,14,13)     =    110.948342     0.000000    -0.002928   110.945414
	   35 B(11,14,12)     =    107.435888     0.000000     0.001217   107.437106
	   36 B(11,14,13)     =    107.655645     0.000000     0.002758   107.658404
	   37 B(12,14,13)     =    107.372220     0.000000    -0.001225   107.370995
	   38 D(1,4,7,5)      =    179.774600    -0.000000     0.010338   179.784939
	   39 D(1,4,7,6)      =    -65.189247    -0.000000     0.004567   -65.184680
	   40 D(1,4,7,10)     =     57.826510     0.000000     0.018263    57.844773
	   41 D(2,4,7,5)      =    -59.991485    -0.000000     0.012164   -59.979321
	   42 D(2,4,7,6)      =     55.044668    -0.000000     0.006393    55.051061
	   43 D(2,4,7,10)     =    178.060425     0.000000     0.020088   178.080514
	   44 D(3,4,7,5)      =     60.104298    -0.000000     0.015282    60.119579
	   45 D(3,4,7,6)      =    175.140451    -0.000000     0.009510   175.149961
	   46 D(3,4,7,10)     =    -61.843792     0.000001     0.023206   -61.820586
	   47 D(4,7,10,8)     =     23.648045    -0.000001     0.022382    23.670426
	   48 D(4,7,10,9)     =    139.121444    -0.000001     0.017673   139.139117
	   49 D(4,7,10,14)    =    -99.601716    -0.000002    -0.001694   -99.603410
	   50 D(5,7,10,8)     =    -97.628690     0.000000     0.041571   -97.587119
	   51 D(5,7,10,9)     =     17.844710     0.000000     0.036862    17.881572
	   52 D(5,7,10,14)    =    139.121550    -0.000001     0.017495   139.139045
	   53 D(6,7,10,8)     =    146.897968     0.000000     0.046208   146.944176
	   54 D(6,7,10,9)     =    -97.628632     0.000000     0.041499   -97.587133
	   55 D(6,7,10,14)    =     23.648208    -0.000001     0.022132    23.670340
	   56 D(7,10,14,11)   =    178.059971     0.000000     0.020852   178.080823
	   57 D(7,10,14,12)   =     57.826013     0.000000     0.019075    57.845088
	   58 D(7,10,14,13)   =    -61.844294     0.000001     0.024048   -61.820246
	   59 D(8,10,14,11)   =     55.044331    -0.000000     0.006983    55.051314
	   60 D(8,10,14,12)   =    -65.189627    -0.000000     0.005205   -65.184422
	   61 D(8,10,14,13)   =    175.140066    -0.000000     0.010178   175.150244
	   62 D(9,10,14,11)   =    -59.991830    -0.000000     0.012751   -59.979078
	   63 D(9,10,14,12)   =    179.774213    -0.000000     0.010974   179.785186
	   64 D(9,10,14,13)   =     60.103906    -0.000000     0.015947    60.119852
	 ---------------------------------------------------------------------------
	 Forces used to impose fixed constraints are not included.
	  Forces zeroed: 49 

  ==> Convergence Check <==

  Measures of convergence in internal coordinates in au.
  Criteria marked as inactive (o), active & met (*), and active & unmet ( ).
  ---------------------------------------------------------------------------------------------
   Step     Total Energy     Delta E     MAX Force     RMS Force      MAX Disp      RMS Disp   
  ---------------------------------------------------------------------------------------------
    Convergence Criteria    1.00e-06 *    3.00e-04 *             o    1.20e-03 *             o
  ---------------------------------------------------------------------------------------------
      8    -158.45466370    4.39e-07 *    6.49e-05 *    2.46e-05 o    8.06e-04 *    2.61e-04 o  ~
  ---------------------------------------------------------------------------------------------


  **** Optimization is complete! (in 8 steps) ****

  ==> Optimization Summary <==

  Measures of convergence in internal coordinates in au.
  --------------------------------------------------------------------------------------------------------------- ~
   Step         Total Energy             Delta E       MAX Force       RMS Force        MAX Disp        RMS Disp  ~
  --------------------------------------------------------------------------------------------------------------- ~
      1    -158.444961021939   -158.444961021939      0.02300288      0.00958533      0.02868363      0.01250232  ~
      2    -158.450821699538     -0.005860677600      0.01200060      0.00519742      0.02377159      0.01251219  ~
      3    -158.453556380281     -0.002734680742      0.00394224      0.00196472      0.03616885      0.01250994  ~
      4    -158.454412381141     -0.000856000860      0.00146815      0.00061106      0.03978203      0.01251934  ~
      5    -158.454635660812     -0.000223279672      0.00075820      0.00017620      0.02739183      0.01249949  ~
      6    -158.454666141879     -0.000030481066      0.00015595      0.00004660      0.00313767      0.00144627  ~
      7    -158.454664142088      0.000001999791      0.00007502      0.00002047      0.00156302      0.00075509  ~
      8    -158.454663702992      0.000000439096      0.00013190      0.00002961      0.00080648      0.00026127  ~
  --------------------------------------------------------------------------------------------------------------- ~

	Writing optimization data to binary file.
	Final energy is   -158.4546637029918
	Final (previous) structure:
	Cartesian Geometry (in Angstrom)
	    H    -2.0426418167   0.2197156097  -0.0182173926
	    H    -1.8693694307   1.8656987099  -0.6698796588
	    H    -1.5545508912   0.4566812785  -1.7120271479
	    C    -1.4354688511   0.8523218492  -0.6890865009
	    H     0.5954964493   1.5027010404  -0.9784254131
	    H     0.1481623730   1.3393429385   0.7166498686
	    C     0.0391092534   0.8606212115  -0.2731785324
	    H     0.1150947051  -1.2240954318  -0.9042791411
	    H     1.6999403756  -0.4978133002  -0.6575947901
	    C     0.6793672645  -0.5460892311  -0.2388985700
	    H     1.1925451573  -2.1619965156   1.1522639727
	    H    -0.2325280040  -1.2157238813   1.6397938906
	    H     1.3963826323  -0.5259294601   1.8247582204
	    C     0.7633076423  -1.1465781526   1.1681537718
	Saving final (previous) structure.
			--------------------------
			 OPTKING Finished Execution 
			--------------------------

    Final optimized geometry and variables:
    Molecular point group: c1
    Full point group: C1

    Geometry (in Angstrom), charge = 0, multiplicity = 1:

    H           -2.042641816672     0.219715609701    -0.018217392649
    H           -1.869369430730     1.865698709948    -0.669879658811
    H           -1.554550891158     0.456681278478    -1.712027147925
    C           -1.435468851120     0.852321849182    -0.689086500873
    H            0.595496449343     1.502701040367    -0.978425413139
    H            0.148162372952     1.339342938490     0.716649868627
    C            0.039109253396     0.860621211476    -0.273178532435
    H            0.115094705149    -1.224095431778    -0.904279141091
    H            1.699940375582    -0.497813300170    -0.657594790068
    C            0.679367264488    -0.546089231142    -0.238898570013
    H            1.192545157335    -2.161996515569     1.152263972656
    H           -0.232528004049    -1.215723881262     1.639793890631
    H            1.396382632323    -0.525929460070     1.824758220426
    C            0.763307642255    -1.146578152568     1.168153771812

	Cleaning optimization helper files.

*** Psi4 exiting successfully. Buy a developer a beer!
