    -----------------------------------------------------------------------
          Psi4: An Open-Source Ab Initio Electronic Structure Package
                              Psi4 1.0.0 Driver

                          Git: Rev {master} 6a9a71b 

    J. M. Turney, A. C. Simmonett, R. M. Parrish, E. G. Hohenstein,
    F. A. Evangelista, J. T. Fermann, B. J. Mintz, L. A. Burns, J. J. Wilke,
    M. L. Abrams, N. J. Russ, M. L. Leininger, C. L. Janssen, E. T. Seidl,
    W. D. Allen, H. F. Schaefer, R. A. King, E. F. Valeev, C. D. Sherrill,
    and T. D. Crawford, WIREs Comput. Mol. Sci. 2, 556-565 (2012)
    (doi: 10.1002/wcms.93)

                         Additional Contributions by
    A. E. DePrince, U. Bozkaya, A. Yu. Sokolov, D. G. A. Smith, R. Di Remigio,
    R. M. Richard, J. F. Gonthier, H. R. McAlexander, M. Saitow, and
    B. P. Pritchard
    -----------------------------------------------------------------------


    Psi4 started on: Thu Feb 16 16:22:31 2017

    Process ID:   1314
    PSI4DATADIR: /Users/sternc1/anaconda/share/psi4
    Memory level set to 256.000 MB

  ==> Input File <==

--------------------------------------------------------------------------

memory 1000 mb

molecule butane {
  symmetry C1
  0 1 
  H      1.604   0.760   -8.260
  H      1.745   2.388   -8.880
  H      2.043   1.024   -9.930
  C      2.142   1.395   -8.932
  H      4.169   2.051   -9.210
  H      3.731   1.788   -7.539
  C      3.631   1.416   -8.537
  H      4.242   -0.432   -7.629
  H      3.575   -0.616   -9.233
  C      4.203   -0.012   -8.612
  H      6.019   -0.959   -9.259
  H      6.250   0.637   -8.587
  H      5.584   0.454   -10.191
  C      5.622   0.033   -9.207
  units Angstrom
}

dih_string = "4 7 10 14 140"
set optking fixed_dihedral = $dih_string

optimize('MP2/6-31G(d)')
--------------------------------------------------------------------------

  Memory set to 1000.000 MiB by Python script.
gradient() will perform analytic gradient computation.
    SCF Algorithm Type (re)set to DF.

*** tstart() called on lski1497
*** at Thu Feb 16 16:22:33 2017


         ---------------------------------------------------------
                                   SCF
            by Justin Turney, Rob Parrish, and Andy Simmonett
                              RHF Reference
                        1 Threads,   1000 MiB Core
         ---------------------------------------------------------

  ==> Geometry <==

    Molecular point group: c1
    Full point group: C1

    Geometry (in Angstrom), charge = 0, multiplicity = 1:

       Center              X                  Y                   Z               Mass       
    ------------   -----------------  -----------------  -----------------  -----------------
           H         -2.294927354890     0.051739706768     0.570641735300     1.007825032070
           H         -2.153927354890     1.679739706768    -0.049358264700     1.007825032070
           H         -1.855927354890     0.315739706768    -1.099358264700     1.007825032070
           C         -1.756927354890     0.686739706768    -0.101358264700    12.000000000000
           H          0.270072645110     1.342739706768    -0.379358264700     1.007825032070
           H         -0.167927354890     1.079739706768     1.291641735300     1.007825032070
           C         -0.267927354890     0.707739706768     0.293641735300    12.000000000000
           H          0.343072645110    -1.140260293232     1.201641735300     1.007825032070
           H         -0.323927354890    -1.324260293232    -0.402358264700     1.007825032070
           C          0.304072645110    -0.720260293232     0.218641735300    12.000000000000
           H          2.120072645110    -1.667260293232    -0.428358264700     1.007825032070
           H          2.351072645110    -0.071260293232     0.243641735300     1.007825032070
           H          1.685072645110    -0.254260293232    -1.360358264700     1.007825032070
           C          1.723072645110    -0.675260293232    -0.376358264700    12.000000000000

  Running in c1 symmetry.

  Rotational constants: A =      0.67207  B =      0.12768  C =      0.12284 [cm^-1]
  Rotational constants: A =  20148.03356  B =   3827.83283  C =   3682.51788 [MHz]
  Nuclear repulsion =  132.163072371452358

  Charge       = 0
  Multiplicity = 1
  Electrons    = 34
  Nalpha       = 17
  Nbeta        = 17

  ==> Algorithm <==

  SCF Algorithm Type is DF.
  DIIS enabled.
  MOM disabled.
  Fractional occupation disabled.
  Guess Type is SAD.
  Energy threshold   = 1.00e-10
  Density threshold  = 1.00e-10
  Integral threshold = 0.00e+00

  ==> Primary Basis <==

  Basis Set: 6-31G(D)
    Number of shells: 44
    Number of basis function: 80
    Number of Cartesian functions: 80
    Spherical Harmonics?: false
    Max angular momentum: 2

  ==> Pre-Iterations <==

   -------------------------------------------------------
    Irrep   Nso     Nmo     Nalpha   Nbeta   Ndocc  Nsocc
   -------------------------------------------------------
     A         80      80       0       0       0       0
   -------------------------------------------------------
    Total      80      80      17      17      17       0
   -------------------------------------------------------

  ==> Integral Setup <==

  ==> DFJK: Density-Fitted J/K Matrices <==

    J tasked:                  Yes
    K tasked:                  Yes
    wK tasked:                  No
    OpenMP threads:              1
    Integrals threads:           1
    Memory (MB):               715
    Algorithm:                Core
    Integral Cache:           NONE
    Schwarz Cutoff:          1E-12
    Fitting Condition:       1E-12

   => Auxiliary Basis Set <=

  Basis Set: 
    Number of shells: 186
    Number of basis function: 574
    Number of Cartesian functions: 574
    Spherical Harmonics?: false
    Max angular momentum: 3

  Minimum eigenvalue in the overlap matrix is 4.6090036161E-03.
  Using Symmetric Orthogonalization.
  SCF Guess: Superposition of Atomic Densities via on-the-fly atomic UHF.

  ==> Iterations <==

                           Total Energy        Delta E     RMS |[F,P]|

   @DF-RHF iter   0:  -158.97073588929084   -1.58971e+02   4.74421e-02 
   @DF-RHF iter   1:  -157.20335200647895    1.76738e+00   3.89202e-03 
   @DF-RHF iter   2:  -157.28109516983733   -7.77432e-02   1.09527e-03 DIIS
   @DF-RHF iter   3:  -157.28908752767893   -7.99236e-03   2.48356e-04 DIIS
   @DF-RHF iter   4:  -157.28941915151620   -3.31624e-04   7.63051e-05 DIIS
   @DF-RHF iter   5:  -157.28945370577435   -3.45543e-05   1.23707e-05 DIIS
   @DF-RHF iter   6:  -157.28945480630546   -1.10053e-06   2.54211e-06 DIIS
   @DF-RHF iter   7:  -157.28945483681048   -3.05050e-08   6.83483e-07 DIIS
   @DF-RHF iter   8:  -157.28945483928788   -2.47741e-09   1.04202e-07 DIIS
   @DF-RHF iter   9:  -157.28945483938384   -9.59517e-11   2.38890e-08 DIIS
   @DF-RHF iter  10:  -157.28945483938850   -4.66116e-12   5.21768e-09 DIIS
   @DF-RHF iter  11:  -157.28945483938878   -2.84217e-13   1.44281e-09 DIIS
   @DF-RHF iter  12:  -157.28945483938895   -1.70530e-13   4.00685e-10 DIIS
   @DF-RHF iter  13:  -157.28945483938890    5.68434e-14   8.03805e-11 DIIS

  ==> Post-Iterations <==

    Orbital Energies (a.u.)
    -----------------------

    Doubly Occupied:                                                      

       1A    -11.206695     2A    -11.206111     3A    -11.200615  
       4A    -11.200554     5A     -1.071170     6A     -0.980672  
       7A     -0.862967     8A     -0.794247     9A     -0.643348  
      10A     -0.593237    11A     -0.585854    12A     -0.559595  
      13A     -0.512633    14A     -0.509151    15A     -0.469429  
      16A     -0.468497    17A     -0.441040  

    Virtual:                                                              

      18A      0.235026    19A      0.268689    20A      0.291994  
      21A      0.300044    22A      0.326112    23A      0.334579  
      24A      0.334704    25A      0.345928    26A      0.350100  
      27A      0.356623    28A      0.418323    29A      0.440779  
      30A      0.448012    31A      0.705764    32A      0.722396  
      33A      0.741283    34A      0.767973    35A      0.788612  
      36A      0.837654    37A      0.839650    38A      0.933766  
      39A      0.944001    40A      1.007739    41A      1.063812  
      42A      1.082941    43A      1.168376    44A      1.191046  
      45A      1.193698    46A      1.208760    47A      1.214393  
      48A      1.220885    49A      1.246438    50A      1.256967  
      51A      1.265463    52A      1.280610    53A      1.290964  
      54A      1.499188    55A      1.649810    56A      1.729244  
      57A      1.762923    58A      1.925840    59A      1.967746  
      60A      2.117135    61A      2.194431    62A      2.231852  
      63A      2.296597    64A      2.302048    65A      2.347685  
      66A      2.441869    67A      2.531818    68A      2.634135  
      69A      2.657978    70A      2.699065    71A      2.712899  
      72A      2.752062    73A      2.776728    74A      2.889780  
      75A      3.013819    76A      3.098688    77A      4.577395  
      78A      4.669723    79A      4.804510    80A      4.967550  

    Final Occupation by Irrep:
              A 
    DOCC [    17 ]

  Energy converged.

  @DF-RHF Final Energy:  -157.28945483938890

   => Energetics <=

    Nuclear Repulsion Energy =            132.1630723714523583
    One-Electron Energy =                -472.2934234522058432
    Two-Electron Energy =                 182.8408962413645611
    DFT Exchange-Correlation Energy =       0.0000000000000000
    Empirical Dispersion Energy =           0.0000000000000000
    PCM Polarization Energy =               0.0000000000000000
    EFP Energy =                            0.0000000000000000
    Total Energy =                       -157.2894548393889238


  Saving occupied orbitals to File 180.

*** tstop() called on lski1497 at Thu Feb 16 16:22:40 2017
Module time:
	user time   =       5.52 seconds =       0.09 minutes
	system time =       0.18 seconds =       0.00 minutes
	total time  =          7 seconds =       0.12 minutes
Total time:
	user time   =       5.52 seconds =       0.09 minutes
	system time =       0.18 seconds =       0.00 minutes
	total time  =          7 seconds =       0.12 minutes


Properties will be evaluated at   0.000000,   0.000000,   0.000000 Bohr

Properties computed using the SCF density matrix

  Nuclear Dipole Moment: (a.u.)
     X:    -0.0256      Y:     0.0116      Z:    -0.3858

  Electronic Dipole Moment: (a.u.)
     X:     0.0276      Y:    -0.0128      Z:     0.4128

  Dipole Moment: (a.u.)
     X:     0.0020      Y:    -0.0011      Z:     0.0270     Total:     0.0271

  Dipole Moment: (Debye)
     X:     0.0052      Y:    -0.0029      Z:     0.0686     Total:     0.0688


  //>>>>>>>>>>>>>>>>>>>>>>>>>>>>>>>>>>>//
  //               DFMP2               //
  //<<<<<<<<<<<<<<<<<<<<<<<<<<<<<<<<<<<//


*** tstart() called on lski1497
*** at Thu Feb 16 16:22:40 2017


*** tstop() called on lski1497 at Thu Feb 16 16:22:40 2017
Module time:
	user time   =       0.49 seconds =       0.01 minutes
	system time =       0.01 seconds =       0.00 minutes
	total time  =          0 seconds =       0.00 minutes
Total time:
	user time   =       6.03 seconds =       0.10 minutes
	system time =       0.19 seconds =       0.00 minutes
	total time  =          7 seconds =       0.12 minutes
	 --------------------------------------------------------
	                          DF-MP2                         
	      2nd-Order Density-Fitted Moller-Plesset Theory     
	              RMP2 Wavefunction,   1 Threads             
	                                                         
	        Rob Parrish, Justin Turney, Andy Simmonett,      
	           Ed Hohenstein, and C. David Sherrill          
	 --------------------------------------------------------

   => Auxiliary Basis Set <=

  Basis Set: 
    Number of shells: 132
    Number of basis function: 364
    Number of Cartesian functions: 414
    Spherical Harmonics?: true
    Max angular momentum: 3

	 --------------------------------------------------------
	                 NBF =    80, NAUX =   364
	 --------------------------------------------------------
	   CLASS    FOCC     OCC    AOCC    AVIR     VIR    FVIR
	   PAIRS       0      17      17      63      63       0
	 --------------------------------------------------------

DGAS Warning! /src/lib/libfock/apps.cc:80 is not currently checking restricted

         ------------------------------------------------------------
                                     CPHF                           
                                  Rob Parrish                       
         ------------------------------------------------------------

  ==> Geometry <==

    Molecular point group: c1
    Full point group: C1

    Geometry (in Angstrom), charge = 0, multiplicity = 1:

       Center              X                  Y                   Z               Mass       
    ------------   -----------------  -----------------  -----------------  -----------------
           H         -2.294927354890     0.051739706768     0.570641735300     1.007825032070
           H         -2.153927354890     1.679739706768    -0.049358264700     1.007825032070
           H         -1.855927354890     0.315739706768    -1.099358264700     1.007825032070
           C         -1.756927354890     0.686739706768    -0.101358264700    12.000000000000
           H          0.270072645110     1.342739706768    -0.379358264700     1.007825032070
           H         -0.167927354890     1.079739706768     1.291641735300     1.007825032070
           C         -0.267927354890     0.707739706768     0.293641735300    12.000000000000
           H          0.343072645110    -1.140260293232     1.201641735300     1.007825032070
           H         -0.323927354890    -1.324260293232    -0.402358264700     1.007825032070
           C          0.304072645110    -0.720260293232     0.218641735300    12.000000000000
           H          2.120072645110    -1.667260293232    -0.428358264700     1.007825032070
           H          2.351072645110    -0.071260293232     0.243641735300     1.007825032070
           H          1.685072645110    -0.254260293232    -1.360358264700     1.007825032070
           C          1.723072645110    -0.675260293232    -0.376358264700    12.000000000000

  Nuclear repulsion =  132.163072371452358
  Reference energy  = -157.289454839388895

  ==> Basis Set <==

  Basis Set: 6-31G(D)
    Number of shells: 44
    Number of basis function: 80
    Number of Cartesian functions: 80
    Spherical Harmonics?: false
    Max angular momentum: 2

  ==> CGRSolver (by Rob Parrish) <==

   Number of roots    =         1
   Preconditioning    =    JACOBI
   Convergence cutoff =     1E-06
   Maximum iterations =       100

  ==> CPHFRHamiltonian (by Rob Parrish) <== 

  ==> DFJK: Density-Fitted J/K Matrices <==

    J tasked:                  Yes
    K tasked:                  Yes
    wK tasked:                  No
    OpenMP threads:              1
    Integrals threads:           1
    Memory (MB):               715
    Algorithm:                Core
    Integral Cache:           NONE
    Schwarz Cutoff:          1E-12
    Fitting Condition:       1E-12

   => Auxiliary Basis Set <=

  Basis Set: 
    Number of shells: 186
    Number of basis function: 574
    Number of Cartesian functions: 574
    Spherical Harmonics?: false
    Max angular momentum: 3

  ==> CPHF Iterations <==

  => Iterations <=

             Iter  Converged  Remaining    Residual
  CGR           1          0          1   7.300E-02
  CGR           2          0          1   8.829E-03
  CGR           3          0          1   2.746E-03
  CGR           4          0          1   3.927E-04
  CGR           5          0          1   7.306E-05
  CGR           6          0          1   1.813E-05
  CGR           7          0          1   3.386E-06
  CGR           8          1          0   6.239E-07

    CGRSolver converged.

  ==> DFCorrGrad: Density-Fitted Correlated Gradients <==

    OpenMP threads:              1
    Integrals threads:           1
    Memory (MB):               715
    Schwarz Cutoff:          0E+00
    Fitting Condition:       1E-12

   => Auxiliary Basis Set <=

  Basis Set: 
    Number of shells: 186
    Number of basis function: 510
    Number of Cartesian functions: 574
    Spherical Harmonics?: true
    Max angular momentum: 3

	-----------------------------------------------------------
	 ==================> DF-MP2 Energies <==================== 
	-----------------------------------------------------------
	 Reference Energy          =    -157.2894548393888954 [Eh]
	 Singles Energy            =      -0.0000000000000000 [Eh]
	 Same-Spin Energy          =      -0.1244065889850068 [Eh]
	 Opposite-Spin Energy      =      -0.4203584571104063 [Eh]
	 Correlation Energy        =      -0.5447650460954131 [Eh]
	 Total Energy              =    -157.8342198854843161 [Eh]
	-----------------------------------------------------------
	 ================> DF-SCS-MP2 Energies <================== 
	-----------------------------------------------------------
	 SCS Same-Spin Scale       =       0.3333333333333333 [-]
	 SCS Opposite-Spin Scale   =       1.2000000000000000 [-]
	 SCS Same-Spin Energy      =      -0.0414688629950023 [Eh]
	 SCS Opposite-Spin Energy  =      -0.5044301485324875 [Eh]
	 SCS Correlation Energy    =      -0.5458990115274898 [Eh]
	 SCS Total Energy          =    -157.8353538509163911 [Eh]
	-----------------------------------------------------------


  -Total Gradient:
     Atom            X                  Y                   Z
    ------   -----------------  -----------------  -----------------
       1        0.010714074992     0.009527732322    -0.008921376004
       2        0.010729941270    -0.013690097736     0.000366124983
       3        0.003839777778     0.005537425517     0.015448288521
       4       -0.026709471158    -0.008605656226    -0.010236923903
       5       -0.008245115460    -0.012359556441     0.008625818549
       6       -0.003840550868    -0.009991980008    -0.014447831427
       7        0.023959841405     0.028504147566     0.008467162571
       8        0.001927238713     0.010738309796    -0.014439853163
       9        0.009593808685     0.012041302734     0.008157871873
      10       -0.022373761745    -0.029057985207     0.009777780294
      11       -0.010811121752     0.014253269180     0.002574274358
      12       -0.012008002636    -0.009183067217    -0.008068404667
      13       -0.001673112183    -0.005698664663     0.014495819063
      14        0.024896452959     0.007984820382    -0.011798751048


			-----------------------------------------
			 OPTKING 2.0: for geometry optimizations 
			  - R.A. King,  Bethel University        
			-----------------------------------------

	Previous internal coordinate definitions found.
	---Fragment 1 Geometry and Gradient---
	 H          -4.3367841956        0.0977738760        1.0783565997
	 H          -4.0703328109        3.1742480203       -0.0932736027
	 H          -3.5071944233        0.5966615751       -2.0774860422
	 C          -3.3201115361        1.2977499704       -0.1915393616
	 H           0.5103633352        2.5374103135       -0.7168832265
	 H          -0.3173367110        2.0404123406        2.4408491415
	 C          -0.5063093243        1.3374342192        0.5549024609
	 H           0.6483133429       -2.1547796744        2.2707737896
	 H          -0.6121339877       -2.5024892829       -0.7603469276
	 C           0.5746140238       -1.3610946986        0.4131730009
	 H           4.0063566811       -3.1506653464       -0.8094798070
	 H           4.4428834178       -0.1346624384        0.4604161543
	 H           3.1843258133       -0.4804823207       -2.5707045629
	 C           3.2561354063       -1.2760570226       -0.7112140481
	             0.0107140750        0.0095277323       -0.0089213760
	             0.0107299413       -0.0136900977        0.0003661250
	             0.0038397778        0.0055374255        0.0154482885
	            -0.0267094712       -0.0086056562       -0.0102369239
	            -0.0082451155       -0.0123595564        0.0086258185
	            -0.0038405509       -0.0099919800       -0.0144478314
	             0.0239598414        0.0285041476        0.0084671626
	             0.0019272387        0.0107383098       -0.0144398532
	             0.0095938087        0.0120413027        0.0081578719
	            -0.0223737617       -0.0290579852        0.0097777803
	            -0.0108111218        0.0142532692        0.0025742744
	            -0.0120080026       -0.0091830672       -0.0080684047
	            -0.0016731122       -0.0056986647        0.0144958191
	             0.0248964530        0.0079848204       -0.0117987510

	Previous optimization step data not found.  Starting new optimization.

	---Fragment 1 Intrafragment Coordinates---
	 - Coordinate -           - BOHR/RAD -       - ANG/DEG -
	 R(1,4)           =         2.021436	       1.069698
	 R(2,4)           =         2.023298	       1.070683
	 R(3,4)           =         2.020723	       1.069320
	 R(4,7)           =         2.911397	       1.540645
	 R(5,7)           =         2.022623	       1.070326
	 R(6,7)           =         2.021555	       1.069761
	 R(7,10)          =         2.910419	       1.540128
	 R(8,10)          =         2.021398	       1.069678
	 R(9,10)          =         2.021955	       1.069972
	 R(10,14)         =         2.908958	       1.539354
	 R(11,14)         =         2.021545	       1.069756
	 R(12,14)         =         2.020859	       1.069392
	 R(13,14)         =         2.023808	       1.070953
	 B(1,4,2)         =         1.910870	     109.484805
	 B(1,4,3)         =         1.911121	     109.499161
	 B(1,4,7)         =         1.910399	     109.457783
	 B(2,4,3)         =         1.910042	     109.437340
	 B(2,4,7)         =         1.910564	     109.467262
	 B(3,4,7)         =         1.910803	     109.480971
	 B(4,7,5)         =         1.909937	     109.431343
	 B(4,7,6)         =         1.911630	     109.528316
	 B(4,7,10)        =         1.911154	     109.501062
	 B(5,7,6)         =         1.910605	     109.469614
	 B(5,7,10)        =         1.910047	     109.437654
	 B(6,7,10)        =         1.910425	     109.459295
	 B(7,10,8)        =         1.910116	     109.441579
	 B(7,10,9)        =         1.911002	     109.492352
	 B(7,10,14)       =         1.911423	     109.516489
	 B(8,10,9)        =         1.910398	     109.457762
	 B(8,10,14)       =         1.910358	     109.455469
	 B(9,10,14)       =         1.910501	     109.463652
	 B(10,14,11)      =         1.911105	     109.498241
	 B(10,14,12)      =         1.911076	     109.496603
	 B(10,14,13)      =         1.911262	     109.507260
	 B(11,14,12)      =         1.911340	     109.511733
	 B(11,14,13)      =         1.910322	     109.453394
	 B(12,14,13)      =         1.908692	     109.360016
	 D(1,4,7,5)       =         3.140997	     179.965873
	 D(1,4,7,6)       =        -1.047644	     -60.025575
	 D(1,4,7,10)      =         1.047427	      60.013132
	 D(2,4,7,5)       =        -1.047689	     -60.028143
	 D(2,4,7,6)       =         1.046856	      59.980409
	 D(2,4,7,10)      =        -3.141259	    -179.980883
	 D(3,4,7,5)       =         1.046044	      59.933911
	 D(3,4,7,6)       =         3.140588	     179.942463
	 D(3,4,7,10)      =        -1.047526	     -60.018830
	 D(4,7,10,8)      =        -1.745364	    -100.002002
	 D(4,7,10,9)      =         0.348652	      19.976299
	 D(4,7,10,14)     =         2.443596	     140.007736
	 D(5,7,10,8)      =         2.444318	     140.049122
	 D(5,7,10,9)      =        -1.744851	     -99.972576
	 D(5,7,10,14)     =         0.350093	      20.058860
	 D(6,7,10,8)      =         0.350443	      20.078924
	 D(6,7,10,9)      =         2.444460	     140.057225
	 D(6,7,10,14)     =        -1.743782	     -99.911338
	 D(7,10,14,11)    =        -3.141550	    -179.997546
	 D(7,10,14,12)    =         1.045813	      59.920675
	 D(7,10,14,13)    =        -1.046861	     -59.980730
	 D(8,10,14,11)    =         1.047559	      60.020692
	 D(8,10,14,12)    =        -1.048264	     -60.061087
	 D(8,10,14,13)    =        -3.140938	    -179.962492
	 D(9,10,14,11)    =        -1.046300	     -59.948555
	 D(9,10,14,12)    =         3.141063	     179.969666
	 D(9,10,14,13)    =         1.048389	      60.068260

	Current energy   :      -157.8342198855

	Generating empirical Hessian (Schlegel '84) for each fragment.
	Adding user-defined constraint: Fragment 1; Coordinate 49:
		Value =     2.443596; Fixed value    =     2.443460
		Force =    -0.000068; Force constant =     0.500000
	Removing off-diagonal coupling between coordinate 49 and others.
	Taking RFO optimization step.
	Going to follow RFO solution 1.
	Using RFO vector 1.

	Determining step-restricting scale parameter for RS-RFO.
	Maximum step size allowed    0.10000

	 Iter      |step|        alpha        rfo_root  
	------------------------------------------------
	    0     0.24038       1.00000           1
	    1     0.17969       5.33361           1
	    2     0.13692      16.33071           1
	    3     0.11200      32.51212           1
	    4     0.10188      43.68085           1
	    5     0.10006      46.13368           1
	    6     0.10000      46.21506           1
	------------------------------------------------
	Norm of target step-size    0.10000
	Projected energy change by RFO approximation:        -0.0061126256

	Back-transformation to cartesian coordinates...
	Successfully converged to displaced geometry.

	--- Internal Coordinate Step in ANG or DEG, aJ/ANG or AJ/DEG ---
	 ---------------------------------------------------------------------------
	   Coordinate                Previous        Force       Change         New 
	   ----------                --------       ------       ------       ------
	    1 R(1,4)          =      1.069698     0.137168     0.013836     1.083534
	    2 R(2,4)          =      1.070683     0.137236     0.013870     1.084553
	    3 R(3,4)          =      1.069320     0.137543     0.013863     1.083184
	    4 R(4,7)          =      1.540645    -0.019225    -0.002250     1.538395
	    5 R(5,7)          =      1.070326     0.139241     0.014063     1.084389
	    6 R(6,7)          =      1.069761     0.142631     0.014389     1.084150
	    7 R(7,10)         =      1.540128     0.040481     0.004735     1.544862
	    8 R(8,10)         =      1.069678     0.143484     0.014472     1.084150
	    9 R(9,10)         =      1.069972     0.141400     0.014271     1.084243
	   10 R(10,14)        =      1.539354    -0.013747    -0.001606     1.537748
	   11 R(11,14)        =      1.069756     0.142978     0.014424     1.084179
	   12 R(12,14)        =      1.069392     0.139369     0.014049     1.083442
	   13 R(13,14)        =      1.070953     0.127698     0.012913     1.083866
	   14 B(1,4,2)        =    109.484805    -0.000304    -0.531644   108.953161
	   15 B(1,4,3)        =    109.499161    -0.000199    -0.377619   109.121542
	   16 B(1,4,7)        =    109.457783     0.000181     0.314347   109.772130
	   17 B(2,4,3)        =    109.437340    -0.000277    -0.488633   108.948708
	   18 B(2,4,7)        =    109.467262     0.000482     0.867682   110.334944
	   19 B(3,4,7)        =    109.480971     0.000117     0.204228   109.685199
	   20 B(4,7,5)        =    109.431343    -0.000211    -0.342431   109.088912
	   21 B(4,7,6)        =    109.528316    -0.000236    -0.343175   109.185141
	   22 B(4,7,10)       =    109.501062     0.000771     1.261589   110.762651
	   23 B(5,7,6)        =    109.469614    -0.000034    -0.245373   109.224240
	   24 B(5,7,10)       =    109.437654    -0.000150    -0.177175   109.260479
	   25 B(6,7,10)       =    109.459295    -0.000140    -0.162017   109.297277
	   26 B(7,10,8)       =    109.441579    -0.000141    -0.163820   109.277759
	   27 B(7,10,9)       =    109.492352    -0.000155    -0.189004   109.303348
	   28 B(7,10,14)      =    109.516489     0.000771     1.261853   110.778342
	   29 B(8,10,9)       =    109.457762    -0.000035    -0.245954   109.211808
	   30 B(8,10,14)      =    109.455469    -0.000229    -0.328441   109.127027
	   31 B(9,10,14)      =    109.463652    -0.000211    -0.343652   109.119999
	   32 B(10,14,11)     =    109.498241     0.000483     0.868574   110.366815
	   33 B(10,14,12)     =    109.496603     0.000173     0.301688   109.798291
	   34 B(10,14,13)     =    109.507260     0.000115     0.200158   109.707418
	   35 B(11,14,12)     =    109.511733    -0.000304    -0.533732   108.978000
	   36 B(11,14,13)     =    109.453394    -0.000280    -0.495337   108.958056
	   37 B(12,14,13)     =    109.360016    -0.000188    -0.354956   109.005060
	   38 D(1,4,7,5)      =    179.965873     0.000027     0.253199   180.219072
	   39 D(1,4,7,6)      =    -60.025575    -0.000045    -0.459067   -60.484642
	   40 D(1,4,7,10)     =     60.013132    -0.000009    -0.092220    59.920913
	   41 D(2,4,7,5)      =    -60.028143     0.000035     0.333597   -59.694546
	   42 D(2,4,7,6)      =     59.980409    -0.000038    -0.378669    59.601740
	   43 D(2,4,7,10)     =   -179.980883    -0.000002    -0.011822  -179.992705
	   44 D(3,4,7,5)      =     59.933911     0.000041     0.397152    60.331062
	   45 D(3,4,7,6)      =    179.942463    -0.000031    -0.315114   179.627348
	   46 D(3,4,7,10)     =    -60.018830     0.000005     0.051733   -59.967097
	   47 D(4,7,10,8)     =   -100.002002     0.000039     0.384539   -99.617463
	   48 D(4,7,10,9)     =     19.976299    -0.000012    -0.129506    19.846793
	   49 D(4,7,10,14)    =    140.007736     0.000015     0.110807   140.118543
	   50 D(5,7,10,8)     =    140.049122     0.000011     0.137571   140.186693
	   51 D(5,7,10,9)     =    -99.972576    -0.000040    -0.376475  -100.349051
	   52 D(5,7,10,14)    =     20.058860    -0.000013    -0.136161    19.922699
	   53 D(6,7,10,8)     =     20.078924     0.000061     0.642381    20.721305
	   54 D(6,7,10,9)     =    140.057225     0.000010     0.128336   140.185561
	   55 D(6,7,10,14)    =    -99.911338     0.000037     0.368649   -99.542689
	   56 D(7,10,14,11)   =   -179.997546    -0.000001    -0.005643  -180.003189
	   57 D(7,10,14,12)   =     59.920675    -0.000008    -0.077821    59.842854
	   58 D(7,10,14,13)   =    -59.980730     0.000004     0.048863   -59.931868
	   59 D(8,10,14,11)   =     60.020692    -0.000037    -0.377681    59.643011
	   60 D(8,10,14,12)   =    -60.061087    -0.000044    -0.449860   -60.510947
	   61 D(8,10,14,13)   =   -179.962492    -0.000032    -0.323176  -180.285668
	   62 D(9,10,14,11)   =    -59.948555     0.000034     0.326337   -59.622218
	   63 D(9,10,14,12)   =    179.969666     0.000027     0.254159   180.223825
	   64 D(9,10,14,13)   =     60.068260     0.000039     0.380843    60.449103
	 ---------------------------------------------------------------------------
	 Forces used to impose fixed constraints are not included.
	  Forces zeroed: 49 

  ==> Convergence Check <==

  Measures of convergence in internal coordinates in au.
  Criteria marked as inactive (o), active & met (*), and active & unmet ( ).
  --------------------------------------------------------------------------------------------- ~
   Step     Total Energy     Delta E     MAX Force     RMS Force      MAX Disp      RMS Disp    ~
  --------------------------------------------------------------------------------------------- ~
    Convergence Criteria    1.00e-06 *    3.00e-04 *             o    1.20e-03 *             o  ~
  --------------------------------------------------------------------------------------------- ~
      1    -157.83421989   -1.58e+02      1.74e-02      7.27e-03 o    2.73e-02      1.25e-02 o  ~
  ---------------------------------------------------------------------------------------------

	Writing optimization data to binary file.
	Structure for next step:
	Cartesian Geometry (in Angstrom)
	    H    -2.3195403456   0.0394101709   0.5775112618
	    H    -2.1878026296   1.6868755194  -0.0406868185
	    H    -1.8803051744   0.3173733730  -1.1095169005
	    C    -1.7719379992   0.6868088623  -0.0970639263
	    H     0.2528006935   1.3575533468  -0.3872757428
	    H    -0.1839744101   1.0810337962   1.3033573451
	    C    -0.2835913070   0.7040314877   0.2917615677
	    H     0.3601590594  -1.1423089883   1.2107273983
	    H    -0.3085046818  -1.3383141453  -0.4137868443
	    C     0.3190647045  -0.7163394236   0.2146137285
	    H     2.1551921270  -1.6750028644  -0.4258390496
	    H     2.3767869207  -0.0591960221   0.2474781163
	    H     1.7078936249  -0.2552849429  -1.3735007049
	    C     1.7387764491  -0.6752842750  -0.3747951366
			--------------------------
			 OPTKING Finished Execution 
			--------------------------

    Structure for next step:
    Molecular point group: c1
    Full point group: C1

    Geometry (in Angstrom), charge = 0, multiplicity = 1:

    H           -2.319544370685     0.039361373833     0.577520859027
    H           -2.187806654741     1.686826722267    -0.040677221314
    H           -1.880309199448     0.317324575913    -1.109507303276
    C           -1.771942024326     0.686760065244    -0.097054329036
    H            0.252796668438     1.357504549659    -0.387266145537
    H           -0.183978435145     1.080984999114     1.303366942366
    C           -0.283595332096     0.703982690616     0.291771164882
    H            0.360155034342    -1.142357785413     1.210736995549
    H           -0.308508706872    -1.338362942386    -0.413777247050
    C            0.319060679443    -0.716388220724     0.214623325748
    H            2.155188101905    -1.675051661461    -0.425829452402
    H            2.376782895591    -0.059244819157     0.247487713486
    H            1.707889599792    -0.255333740000    -1.373491107720
    C            1.738772424029    -0.675333072132    -0.374785539386

gradient() will perform analytic gradient computation.
    SCF Algorithm Type (re)set to DF.

*** tstart() called on lski1497
*** at Thu Feb 16 16:23:01 2017


         ---------------------------------------------------------
                                   SCF
            by Justin Turney, Rob Parrish, and Andy Simmonett
                              RHF Reference
                        1 Threads,   1000 MiB Core
         ---------------------------------------------------------

  ==> Geometry <==

    Molecular point group: c1
    Full point group: C1

    Geometry (in Angstrom), charge = 0, multiplicity = 1:

       Center              X                  Y                   Z               Mass       
    ------------   -----------------  -----------------  -----------------  -----------------
           H         -2.319544370685     0.039361373833     0.577520859027     1.007825032070
           H         -2.187806654741     1.686826722267    -0.040677221314     1.007825032070
           H         -1.880309199448     0.317324575913    -1.109507303276     1.007825032070
           C         -1.771942024326     0.686760065244    -0.097054329036    12.000000000000
           H          0.252796668438     1.357504549659    -0.387266145537     1.007825032070
           H         -0.183978435145     1.080984999114     1.303366942366     1.007825032070
           C         -0.283595332096     0.703982690616     0.291771164882    12.000000000000
           H          0.360155034342    -1.142357785413     1.210736995549     1.007825032070
           H         -0.308508706872    -1.338362942386    -0.413777247050     1.007825032070
           C          0.319060679443    -0.716388220724     0.214623325748    12.000000000000
           H          2.155188101905    -1.675051661461    -0.425829452402     1.007825032070
           H          2.376782895591    -0.059244819157     0.247487713486     1.007825032070
           H          1.707889599792    -0.255333740000    -1.373491107720     1.007825032070
           C          1.738772424029    -0.675333072132    -0.374785539386    12.000000000000

  Running in c1 symmetry.

  Rotational constants: A =      0.67335  B =      0.12540  C =      0.12087 [cm^-1]
  Rotational constants: A =  20186.38356  B =   3759.54669  C =   3623.62970 [MHz]
  Nuclear repulsion =  131.241643840121952

  Charge       = 0
  Multiplicity = 1
  Electrons    = 34
  Nalpha       = 17
  Nbeta        = 17

  ==> Algorithm <==

  SCF Algorithm Type is DF.
  DIIS enabled.
  MOM disabled.
  Fractional occupation disabled.
  Guess Type is READ.
  Energy threshold   = 1.00e-10
  Density threshold  = 1.00e-10
  Integral threshold = 0.00e+00

  ==> Primary Basis <==

  Basis Set: 6-31G(D)
    Number of shells: 44
    Number of basis function: 80
    Number of Cartesian functions: 80
    Spherical Harmonics?: false
    Max angular momentum: 2

  ==> Pre-Iterations <==

   -------------------------------------------------------
    Irrep   Nso     Nmo     Nalpha   Nbeta   Ndocc  Nsocc
   -------------------------------------------------------
     A         80      80       0       0       0       0
   -------------------------------------------------------
    Total      80      80      17      17      17       0
   -------------------------------------------------------

  ==> Integral Setup <==

  ==> DFJK: Density-Fitted J/K Matrices <==

    J tasked:                  Yes
    K tasked:                  Yes
    wK tasked:                  No
    OpenMP threads:              1
    Integrals threads:           1
    Memory (MB):               715
    Algorithm:                Core
    Integral Cache:           NONE
    Schwarz Cutoff:          1E-12
    Fitting Condition:       1E-12

   => Auxiliary Basis Set <=

  Basis Set: 
    Number of shells: 186
    Number of basis function: 574
    Number of Cartesian functions: 574
    Spherical Harmonics?: false
    Max angular momentum: 3

  Minimum eigenvalue in the overlap matrix is 4.7110694191E-03.
  Using Symmetric Orthogonalization.
  SCF Guess was Projection but file not found.
  Switching over to SAD guess.

  SCF Guess: Superposition of Atomic Densities via on-the-fly atomic UHF.

  ==> Iterations <==

                           Total Energy        Delta E     RMS |[F,P]|

   @DF-RHF iter   0:  -158.86690055506338   -1.58867e+02   4.64878e-02 
   @DF-RHF iter   1:  -157.20542527953725    1.66148e+00   3.86735e-03 
   @DF-RHF iter   2:  -157.28380451533891   -7.83792e-02   1.10650e-03 DIIS
   @DF-RHF iter   3:  -157.29203508397561   -8.23057e-03   2.53109e-04 DIIS
   @DF-RHF iter   4:  -157.29238495949485   -3.49876e-04   7.50466e-05 DIIS
   @DF-RHF iter   5:  -157.29242034266028   -3.53832e-05   1.21510e-05 DIIS
   @DF-RHF iter   6:  -157.29242142379277   -1.08113e-06   2.47600e-06 DIIS
   @DF-RHF iter   7:  -157.29242145292298   -2.91302e-08   7.20682e-07 DIIS
   @DF-RHF iter   8:  -157.29242145556665   -2.64367e-09   1.08920e-07 DIIS
   @DF-RHF iter   9:  -157.29242145566920   -1.02546e-10   2.62358e-08 DIIS
   @DF-RHF iter  10:  -157.29242145567534   -6.13909e-12   5.45444e-09 DIIS
   @DF-RHF iter  11:  -157.29242145567500    3.41061e-13   1.13397e-09 DIIS
   @DF-RHF iter  12:  -157.29242145567534   -3.41061e-13   3.68926e-10 DIIS
   @DF-RHF iter  13:  -157.29242145567534    0.00000e+00   9.23564e-11 DIIS

  ==> Post-Iterations <==

    Orbital Energies (a.u.)
    -----------------------

    Doubly Occupied:                                                      

       1A    -11.212068     2A    -11.211509     3A    -11.206453  
       4A    -11.206419     5A     -1.067795     6A     -0.978466  
       7A     -0.859504     8A     -0.788694     9A     -0.638957  
      10A     -0.590458    11A     -0.582240    12A     -0.557679  
      13A     -0.509985    14A     -0.505601    15A     -0.465751  
      16A     -0.464513    17A     -0.446063  

    Virtual:                                                              

      18A      0.233131    19A      0.265984    20A      0.288154  
      21A      0.296820    22A      0.323503    23A      0.330333  
      24A      0.330454    25A      0.340947    26A      0.346792  
      27A      0.353585    28A      0.416415    29A      0.441362  
      30A      0.447676    31A      0.707465    32A      0.719069  
      33A      0.742919    34A      0.769848    35A      0.793453  
      36A      0.839096    37A      0.842250    38A      0.932983  
      39A      0.941136    40A      1.003954    41A      1.070974  
      42A      1.081764    43A      1.156643    44A      1.177629  
      45A      1.178061    46A      1.195001    47A      1.199829  
      48A      1.208749    49A      1.239517    50A      1.241368  
      51A      1.249874    52A      1.272028    53A      1.275050  
      54A      1.496928    55A      1.651289    56A      1.732334  
      57A      1.754064    58A      1.921561    59A      1.955620  
      60A      2.111504    61A      2.196444    62A      2.220408  
      63A      2.293507    64A      2.300898    65A      2.333920  
      66A      2.432611    67A      2.507112    68A      2.614444  
      69A      2.640053    70A      2.685592    71A      2.694273  
      72A      2.733917    73A      2.767583    74A      2.883939  
      75A      3.013847    76A      3.089199    77A      4.564268  
      78A      4.661134    79A      4.798347    80A      4.960650  

    Final Occupation by Irrep:
              A 
    DOCC [    17 ]

  Energy converged.

  @DF-RHF Final Energy:  -157.29242145567534

   => Energetics <=

    Nuclear Repulsion Energy =            131.2416438401219523
    One-Electron Energy =                -470.4838186072306598
    Two-Electron Energy =                 181.9497533114333692
    DFT Exchange-Correlation Energy =       0.0000000000000000
    Empirical Dispersion Energy =           0.0000000000000000
    PCM Polarization Energy =               0.0000000000000000
    EFP Energy =                            0.0000000000000000
    Total Energy =                       -157.2924214556753668


  Saving occupied orbitals to File 180.

*** tstop() called on lski1497 at Thu Feb 16 16:23:08 2017
Module time:
	user time   =       5.52 seconds =       0.09 minutes
	system time =       0.17 seconds =       0.00 minutes
	total time  =          7 seconds =       0.12 minutes
Total time:
	user time   =      29.78 seconds =       0.50 minutes
	system time =       0.90 seconds =       0.02 minutes
	total time  =         35 seconds =       0.58 minutes


Properties will be evaluated at   0.000000,   0.000000,   0.000000 Bohr

Properties computed using the SCF density matrix

  Nuclear Dipole Moment: (a.u.)
     X:    -0.0256      Y:     0.0109      Z:    -0.3857

  Electronic Dipole Moment: (a.u.)
     X:     0.0273      Y:    -0.0116      Z:     0.4096

  Dipole Moment: (a.u.)
     X:     0.0017      Y:    -0.0007      Z:     0.0239     Total:     0.0240

  Dipole Moment: (Debye)
     X:     0.0043      Y:    -0.0018      Z:     0.0609     Total:     0.0610


  //>>>>>>>>>>>>>>>>>>>>>>>>>>>>>>>>>>>//
  //               DFMP2               //
  //<<<<<<<<<<<<<<<<<<<<<<<<<<<<<<<<<<<//


*** tstart() called on lski1497
*** at Thu Feb 16 16:23:08 2017


*** tstop() called on lski1497 at Thu Feb 16 16:23:09 2017
Module time:
	user time   =       0.57 seconds =       0.01 minutes
	system time =       0.00 seconds =       0.00 minutes
	total time  =          1 seconds =       0.02 minutes
Total time:
	user time   =      30.37 seconds =       0.51 minutes
	system time =       0.90 seconds =       0.02 minutes
	total time  =         36 seconds =       0.60 minutes
	 --------------------------------------------------------
	                          DF-MP2                         
	      2nd-Order Density-Fitted Moller-Plesset Theory     
	              RMP2 Wavefunction,   1 Threads             
	                                                         
	        Rob Parrish, Justin Turney, Andy Simmonett,      
	           Ed Hohenstein, and C. David Sherrill          
	 --------------------------------------------------------

   => Auxiliary Basis Set <=

  Basis Set: 
    Number of shells: 132
    Number of basis function: 364
    Number of Cartesian functions: 414
    Spherical Harmonics?: true
    Max angular momentum: 3

	 --------------------------------------------------------
	                 NBF =    80, NAUX =   364
	 --------------------------------------------------------
	   CLASS    FOCC     OCC    AOCC    AVIR     VIR    FVIR
	   PAIRS       0      17      17      63      63       0
	 --------------------------------------------------------

DGAS Warning! /src/lib/libfock/apps.cc:80 is not currently checking restricted

         ------------------------------------------------------------
                                     CPHF                           
                                  Rob Parrish                       
         ------------------------------------------------------------

  ==> Geometry <==

    Molecular point group: c1
    Full point group: C1

    Geometry (in Angstrom), charge = 0, multiplicity = 1:

       Center              X                  Y                   Z               Mass       
    ------------   -----------------  -----------------  -----------------  -----------------
           H         -2.319544370685     0.039361373833     0.577520859027     1.007825032070
           H         -2.187806654741     1.686826722267    -0.040677221314     1.007825032070
           H         -1.880309199448     0.317324575913    -1.109507303276     1.007825032070
           C         -1.771942024326     0.686760065244    -0.097054329036    12.000000000000
           H          0.252796668438     1.357504549659    -0.387266145537     1.007825032070
           H         -0.183978435145     1.080984999114     1.303366942366     1.007825032070
           C         -0.283595332096     0.703982690616     0.291771164882    12.000000000000
           H          0.360155034342    -1.142357785413     1.210736995549     1.007825032070
           H         -0.308508706872    -1.338362942386    -0.413777247050     1.007825032070
           C          0.319060679443    -0.716388220724     0.214623325748    12.000000000000
           H          2.155188101905    -1.675051661461    -0.425829452402     1.007825032070
           H          2.376782895591    -0.059244819157     0.247487713486     1.007825032070
           H          1.707889599792    -0.255333740000    -1.373491107720     1.007825032070
           C          1.738772424029    -0.675333072132    -0.374785539386    12.000000000000

  Nuclear repulsion =  131.241643840121952
  Reference energy  = -157.292421455675338

  ==> Basis Set <==

  Basis Set: 6-31G(D)
    Number of shells: 44
    Number of basis function: 80
    Number of Cartesian functions: 80
    Spherical Harmonics?: false
    Max angular momentum: 2

  ==> CGRSolver (by Rob Parrish) <==

   Number of roots    =         1
   Preconditioning    =    JACOBI
   Convergence cutoff =     1E-06
   Maximum iterations =       100

  ==> CPHFRHamiltonian (by Rob Parrish) <== 

  ==> DFJK: Density-Fitted J/K Matrices <==

    J tasked:                  Yes
    K tasked:                  Yes
    wK tasked:                  No
    OpenMP threads:              1
    Integrals threads:           1
    Memory (MB):               715
    Algorithm:                Core
    Integral Cache:           NONE
    Schwarz Cutoff:          1E-12
    Fitting Condition:       1E-12

   => Auxiliary Basis Set <=

  Basis Set: 
    Number of shells: 186
    Number of basis function: 574
    Number of Cartesian functions: 574
    Spherical Harmonics?: false
    Max angular momentum: 3

  ==> CPHF Iterations <==

  => Iterations <=

             Iter  Converged  Remaining    Residual
  CGR           1          0          1   7.345E-02
  CGR           2          0          1   8.955E-03
  CGR           3          0          1   2.778E-03
  CGR           4          0          1   3.931E-04
  CGR           5          0          1   7.391E-05
  CGR           6          0          1   1.814E-05
  CGR           7          0          1   3.276E-06
  CGR           8          1          0   6.168E-07

    CGRSolver converged.

  ==> DFCorrGrad: Density-Fitted Correlated Gradients <==

    OpenMP threads:              1
    Integrals threads:           1
    Memory (MB):               715
    Schwarz Cutoff:          0E+00
    Fitting Condition:       1E-12

   => Auxiliary Basis Set <=

  Basis Set: 
    Number of shells: 186
    Number of basis function: 510
    Number of Cartesian functions: 574
    Spherical Harmonics?: true
    Max angular momentum: 3

	-----------------------------------------------------------
	 ==================> DF-MP2 Energies <==================== 
	-----------------------------------------------------------
	 Reference Energy          =    -157.2924214556753384 [Eh]
	 Singles Energy            =      -0.0000000000000000 [Eh]
	 Same-Spin Energy          =      -0.1242822770616262 [Eh]
	 Opposite-Spin Energy      =      -0.4216253412543698 [Eh]
	 Correlation Energy        =      -0.5459076183159960 [Eh]
	 Total Energy              =    -157.8383290739913321 [Eh]
	-----------------------------------------------------------
	 ================> DF-SCS-MP2 Energies <================== 
	-----------------------------------------------------------
	 SCS Same-Spin Scale       =       0.3333333333333333 [-]
	 SCS Opposite-Spin Scale   =       1.2000000000000000 [-]
	 SCS Same-Spin Energy      =      -0.0414274256872087 [Eh]
	 SCS Opposite-Spin Energy  =      -0.5059504095052438 [Eh]
	 SCS Correlation Energy    =      -0.5473778351924525 [Eh]
	 SCS Total Energy          =    -157.8397992908678020 [Eh]
	-----------------------------------------------------------


  -Total Gradient:
     Atom            X                  Y                   Z
    ------   -----------------  -----------------  -----------------
       1        0.005262722070     0.003852211604    -0.002756053098
       2        0.005135672503    -0.004727610711     0.000312102746
       3        0.002661996931     0.002259474346     0.006084467932
       4       -0.015644138502    -0.004956308113    -0.006537300877
       5       -0.003614149179    -0.006395756699     0.002164267519
       6       -0.003323092241    -0.006292979729    -0.004688019802
       7        0.014098225492     0.018131196616     0.005208076882
       8        0.002731396432     0.006551751603    -0.004820382969
       9        0.003969536112     0.006294218585     0.002037432820
      10       -0.013199060876    -0.018392247553     0.005833772003
      11       -0.005123395681     0.004915857623     0.001257493042
      12       -0.005634299549    -0.003691540717    -0.002349323963
      13       -0.001746971509    -0.002284399313     0.005914180186
      14        0.014425557996     0.004736132457    -0.007660712420


			-----------------------------------------
			 OPTKING 2.0: for geometry optimizations 
			  - R.A. King,  Bethel University        
			-----------------------------------------

	Previous internal coordinate definitions found.
	---Fragment 1 Geometry and Gradient---
	 H          -4.3833036137        0.0743822168        1.0913562596
	 H          -4.1343554092        3.1876405387       -0.0768688081
	 H          -3.5532694321        0.5996565437       -2.0966649456
	 C          -3.3484851493        1.2977884423       -0.1834061019
	 H           0.4777164707        2.5653118230       -0.7318269556
	 H          -0.3476688568        2.0427656021        2.4630065717
	 C          -0.5359175102        1.3303344876        0.5513675951
	 H           0.6805943803       -2.1587433602        2.2879613405
	 H          -0.5829969656       -2.5291394275       -0.7819256769
	 C           0.6029373039       -1.3537775420        0.4055793074
	 H           4.0727152775       -3.1653888986       -0.8047010444
	 H           4.4914687500       -0.1119564830        0.4676839997
	 H           3.2274436088       -0.4825108411       -2.5955220395
	 C           3.2858036888       -1.2761945548       -0.7082420280
	             0.0052627221        0.0038522116       -0.0027560531
	             0.0051356725       -0.0047276107        0.0003121027
	             0.0026619969        0.0022594743        0.0060844679
	            -0.0156441385       -0.0049563081       -0.0065373009
	            -0.0036141492       -0.0063957567        0.0021642675
	            -0.0033230922       -0.0062929797       -0.0046880198
	             0.0140982255        0.0181311966        0.0052080769
	             0.0027313964        0.0065517516       -0.0048203830
	             0.0039695361        0.0062942186        0.0020374328
	            -0.0131990609       -0.0183922476        0.0058337720
	            -0.0051233957        0.0049158576        0.0012574930
	            -0.0056342995       -0.0036915407       -0.0023493240
	            -0.0017469715       -0.0022843993        0.0059141802
	             0.0144255580        0.0047361325       -0.0076607124

	---Fragment 1 Intrafragment Coordinates---
	 - Coordinate -           - BOHR/RAD -       - ANG/DEG -
	 R(1,4)           =         2.047582	       1.083534
	 R(2,4)           =         2.049508	       1.084553
	 R(3,4)           =         2.046921	       1.083184
	 R(4,7)           =         2.907144	       1.538395
	 R(5,7)           =         2.049198	       1.084389
	 R(6,7)           =         2.048746	       1.084150
	 R(7,10)          =         2.919367	       1.544862
	 R(8,10)          =         2.048747	       1.084150
	 R(9,10)          =         2.048923	       1.084243
	 R(10,14)         =         2.905923	       1.537748
	 R(11,14)         =         2.048802	       1.084179
	 R(12,14)         =         2.047408	       1.083442
	 R(13,14)         =         2.048210	       1.083866
	 B(1,4,2)         =         1.901591	     108.953161
	 B(1,4,3)         =         1.904530	     109.121542
	 B(1,4,7)         =         1.915885	     109.772130
	 B(2,4,3)         =         1.901514	     108.948708
	 B(2,4,7)         =         1.925708	     110.334944
	 B(3,4,7)         =         1.914368	     109.685199
	 B(4,7,5)         =         1.903961	     109.088912
	 B(4,7,6)         =         1.905640	     109.185141
	 B(4,7,10)        =         1.933173	     110.762651
	 B(5,7,6)         =         1.906323	     109.224240
	 B(5,7,10)        =         1.906955	     109.260479
	 B(6,7,10)        =         1.907597	     109.297277
	 B(7,10,8)        =         1.907257	     109.277759
	 B(7,10,9)        =         1.907703	     109.303348
	 B(7,10,14)       =         1.933447	     110.778342
	 B(8,10,9)        =         1.906106	     109.211808
	 B(8,10,14)       =         1.904626	     109.127027
	 B(9,10,14)       =         1.904503	     109.119999
	 B(10,14,11)      =         1.926264	     110.366815
	 B(10,14,12)      =         1.916342	     109.798291
	 B(10,14,13)      =         1.914756	     109.707418
	 B(11,14,12)      =         1.902025	     108.978000
	 B(11,14,13)      =         1.901677	     108.958056
	 B(12,14,13)      =         1.902497	     109.005060
	 D(1,4,7,5)       =        -3.137769	    -179.780928
	 D(1,4,7,6)       =        -1.055656	     -60.484642
	 D(1,4,7,10)      =         1.045817	      59.920913
	 D(2,4,7,5)       =        -1.041866	     -59.694546
	 D(2,4,7,6)       =         1.040247	      59.601740
	 D(2,4,7,10)      =        -3.141465	    -179.992705
	 D(3,4,7,5)       =         1.052976	      60.331062
	 D(3,4,7,6)       =         3.135089	     179.627348
	 D(3,4,7,10)      =        -1.046623	     -59.967097
	 D(4,7,10,8)      =        -1.738653	     -99.617463
	 D(4,7,10,9)      =         0.346392	      19.846793
	 D(4,7,10,14)     =         2.445530	     140.118543
	 D(5,7,10,8)      =         2.446719	     140.186693
	 D(5,7,10,9)      =        -1.751421	    -100.349051
	 D(5,7,10,14)     =         0.347717	      19.922699
	 D(6,7,10,8)      =         0.361655	      20.721305
	 D(6,7,10,9)      =         2.446700	     140.185561
	 D(6,7,10,14)     =        -1.737348	     -99.542689
	 D(7,10,14,11)    =         3.141537	     179.996811
	 D(7,10,14,12)    =         1.044455	      59.842854
	 D(7,10,14,13)    =        -1.046008	     -59.931868
	 D(8,10,14,11)    =         1.040967	      59.643011
	 D(8,10,14,12)    =        -1.056115	     -60.510947
	 D(8,10,14,13)    =         3.136607	     179.714332
	 D(9,10,14,11)    =        -1.040604	     -59.622218
	 D(9,10,14,12)    =        -3.137686	    -179.776175
	 D(9,10,14,13)    =         1.055036	      60.449103

	Current energy   :      -157.8383290740

	Energy change for the previous step:
		Projected    :        -0.0061126256
		Actual       :        -0.0041091885

	Performing BFGS update.
	Previous computed or guess Hessian on step 1.
	Steps to be used in Hessian update: 1
	Adding user-defined constraint: Fragment 1; Coordinate 49:
		Value =     2.445530; Fixed value    =     2.443460
		Force =    -0.001087; Force constant =     0.525000
	Removing off-diagonal coupling between coordinate 49 and others.
	Taking RFO optimization step.
	Going to follow RFO solution 1.
	Using RFO vector 1.

	Determining step-restricting scale parameter for RS-RFO.
	Maximum step size allowed    0.10000

	 Iter      |step|        alpha        rfo_root  
	------------------------------------------------
	    0     0.20706       1.00000           1
	    1     0.15957       5.04958           1
	    2     0.12435      14.20497           1
	    3     0.10638      24.31501           1
	    4     0.10064      29.09850           1
	    5     0.10001      29.68520           1
	------------------------------------------------
	Norm of target step-size    0.10001
	Projected energy change by RFO approximation:        -0.0019100129

	Back-transformation to cartesian coordinates...
	Could not converge backtransformation.
	Using first guess instead.

	--- Internal Coordinate Step in ANG or DEG, aJ/ANG or AJ/DEG ---
	 ---------------------------------------------------------------------------
	   Coordinate                Previous        Force       Change         New 
	   ----------                --------       ------       ------       ------
	    1 R(1,4)          =      1.083534     0.055013     0.008389     1.091922
	    2 R(2,4)          =      1.084553     0.052005     0.007624     1.092177
	    3 R(3,4)          =      1.083184     0.055399     0.008508     1.091692
	    4 R(4,7)          =      1.538395    -0.026954    -0.006981     1.531414
	    5 R(5,7)          =      1.084389     0.057650     0.008918     1.093307
	    6 R(6,7)          =      1.084150     0.056583     0.008542     1.092691
	    7 R(7,10)         =      1.544862     0.000628    -0.001773     1.543089
	    8 R(8,10)         =      1.084150     0.056844     0.008575     1.092725
	    9 R(9,10)         =      1.084243     0.058405     0.009015     1.093258
	   10 R(10,14)        =      1.537748    -0.024381    -0.006481     1.531268
	   11 R(11,14)        =      1.084179     0.054044     0.007897     1.092077
	   12 R(12,14)        =      1.083442     0.055747     0.008478     1.091920
	   13 R(13,14)        =      1.083866     0.051780     0.008007     1.091873
	   14 B(1,4,2)        =    108.953161    -0.000204    -0.703317   108.249844
	   15 B(1,4,3)        =    109.121542    -0.000178    -0.762112   108.359430
	   16 B(1,4,7)        =    109.772130     0.000166     0.658645   110.430775
	   17 B(2,4,3)        =    108.948708    -0.000186    -0.642003   108.306705
	   18 B(2,4,7)        =    110.334944     0.000268     0.872836   111.207781
	   19 B(3,4,7)        =    109.685199     0.000125     0.515183   110.200382
	   20 B(4,7,5)        =    109.088912    -0.000092    -0.204969   108.883943
	   21 B(4,7,6)        =    109.185141    -0.000090    -0.033680   109.151461
	   22 B(4,7,10)       =    110.762651     0.000383     1.185490   111.948141
	   23 B(5,7,6)        =    109.224240    -0.000106    -1.068868   108.155372
	   24 B(5,7,10)       =    109.260479    -0.000055    -0.029366   109.231113
	   25 B(6,7,10)       =    109.297277    -0.000044     0.095511   109.392788
	   26 B(7,10,8)       =    109.277759    -0.000043     0.102744   109.380503
	   27 B(7,10,9)       =    109.303348    -0.000058    -0.047928   109.255420
	   28 B(7,10,14)      =    110.778342     0.000381     1.174225   111.952567
	   29 B(8,10,9)       =    109.211808    -0.000107    -1.067051   108.144756
	   30 B(8,10,14)      =    109.127027    -0.000085    -0.004808   109.122220
	   31 B(9,10,14)      =    109.119999    -0.000093    -0.213083   108.906916
	   32 B(10,14,11)     =    110.366815     0.000267     0.859115   111.225930
	   33 B(10,14,12)     =    109.798291     0.000160     0.635645   110.433936
	   34 B(10,14,13)     =    109.707418     0.000122     0.505062   110.212480
	   35 B(11,14,12)     =    108.978000    -0.000204    -0.709332   108.268669
	   36 B(11,14,13)     =    108.958056    -0.000186    -0.644404   108.313652
	   37 B(12,14,13)     =    109.005060    -0.000168    -0.706812   108.298248
	   38 D(1,4,7,5)      =   -179.780928     0.000020     0.486006  -179.294923
	   39 D(1,4,7,6)      =    -60.484642    -0.000034    -0.944063   -61.428705
	   40 D(1,4,7,10)     =     59.920913    -0.000005    -0.090457    59.830456
	   41 D(2,4,7,5)      =    -59.694546     0.000025     0.598603   -59.095943
	   42 D(2,4,7,6)      =     59.601740    -0.000029    -0.831466    58.770274
	   43 D(2,4,7,10)     =   -179.992705    -0.000000     0.022140  -179.970565
	   44 D(3,4,7,5)      =     60.331062     0.000029     0.690442    61.021504
	   45 D(3,4,7,6)      =    179.627348    -0.000025    -0.739627   178.887722
	   46 D(3,4,7,10)     =    -59.967097     0.000004     0.113979   -59.853117
	   47 D(4,7,10,8)     =    -99.617463     0.000032     0.965103   -98.652359
	   48 D(4,7,10,9)     =     19.846793    -0.000012    -0.297938    19.548855
	   49 D(4,7,10,14)    =    140.118543     0.000008     0.151691   140.270234
	   50 D(5,7,10,8)     =    140.186693     0.000011     0.487720   140.674413
	   51 D(5,7,10,9)     =   -100.349051    -0.000032    -0.775321  -101.124372
	   52 D(5,7,10,14)    =     19.922699    -0.000013    -0.325693    19.597007
	   53 D(6,7,10,8)     =     20.721305     0.000055     1.746111    22.467416
	   54 D(6,7,10,9)     =    140.185561     0.000011     0.483071   140.668631
	   55 D(6,7,10,14)    =    -99.542689     0.000031     0.932699   -98.609990
	   56 D(7,10,14,11)   =    179.996811     0.000000     0.035151   180.031963
	   57 D(7,10,14,12)   =     59.842854    -0.000004    -0.047587    59.795267
	   58 D(7,10,14,13)   =    -59.931868     0.000004     0.109824   -59.822044
	   59 D(8,10,14,11)   =     59.643011    -0.000029    -0.837680    58.805331
	   60 D(8,10,14,12)   =    -60.510947    -0.000033    -0.920419   -61.431365
	   61 D(8,10,14,13)   =    179.714332    -0.000026    -0.763008   178.951324
	   62 D(9,10,14,11)   =    -59.622218     0.000024     0.577608   -59.044610
	   63 D(9,10,14,12)   =   -179.776175     0.000021     0.494869  -179.281306
	   64 D(9,10,14,13)   =     60.449103     0.000028     0.652280    61.101383
	 ---------------------------------------------------------------------------
	 Forces used to impose fixed constraints are not included.
	  Forces zeroed: 49 

  ==> Convergence Check <==

  Measures of convergence in internal coordinates in au.
  Criteria marked as inactive (o), active & met (*), and active & unmet ( ).
  ---------------------------------------------------------------------------------------------
   Step     Total Energy     Delta E     MAX Force     RMS Force      MAX Disp      RMS Disp   
  ---------------------------------------------------------------------------------------------
    Convergence Criteria    1.00e-06 *    3.00e-04 *             o    1.20e-03 *             o
  ---------------------------------------------------------------------------------------------
      2    -157.83832907   -4.11e-03      7.09e-03      3.21e-03 o    3.05e-02      1.25e-02 o  ~
  ---------------------------------------------------------------------------------------------

	Writing optimization data to binary file.
	Structure for next step:
	Cartesian Geometry (in Angstrom)
	    H    -2.3397210830   0.0424002891   0.5794440792
	    H    -2.2031172586   1.6970867910  -0.0332803953
	    H    -1.9020834555   0.3265790469  -1.1125174197
	    C    -1.7762813815   0.6934899635  -0.0920560709
	    H     0.2440742099   1.3670572047  -0.3900588759
	    H    -0.1851269173   1.0873848607   1.3044488623
	    C    -0.2929829083   0.6991558479   0.2887620936
	    H     0.3610535285  -1.1488004123   1.2115555730
	    H    -0.3004335083  -1.3475730792  -0.4182443413
	    C     0.3278964720  -0.7113580492   0.2107590767
	    H     2.1716192934  -1.6857084031  -0.4213900421
	    H     2.3972018366  -0.0623171832   0.2466229586
	    H     1.7288398819  -0.2646384772  -1.3798675859
	    C     1.7440219705  -0.6820856642  -0.3710592570
			--------------------------
			 OPTKING Finished Execution 
			--------------------------

    Structure for next step:
    Molecular point group: c1
    Full point group: C1

    Geometry (in Angstrom), charge = 0, multiplicity = 1:

    H           -2.339788916584     0.042366101234     0.579093708126
    H           -2.203185092223     1.697052603133    -0.033630766343
    H           -1.902151289140     0.326544859046    -1.112867790750
    C           -1.776349215120     0.693455775660    -0.092406441942
    H            0.244006376233     1.367023016778    -0.390409246940
    H           -0.185194750969     1.087350672802     1.304098491277
    C           -0.293050741872     0.699121660027     0.288411722532
    H            0.360985694840    -1.148834600176     1.211205202000
    H           -0.300501341945    -1.347607267104    -0.418594712289
    C            0.327828638415    -0.711392237053     0.210408705682
    H            2.171551459798    -1.685742591001    -0.421740413116
    H            2.397134002972    -0.062351371112     0.246272587551
    H            1.728772048299    -0.264672665043    -1.380217956886
    C            1.743954136829    -0.682119852087    -0.371409627980

gradient() will perform analytic gradient computation.
    SCF Algorithm Type (re)set to DF.

*** tstart() called on lski1497
*** at Thu Feb 16 16:23:31 2017


         ---------------------------------------------------------
                                   SCF
            by Justin Turney, Rob Parrish, and Andy Simmonett
                              RHF Reference
                        1 Threads,   1000 MiB Core
         ---------------------------------------------------------

  ==> Geometry <==

    Molecular point group: c1
    Full point group: C1

    Geometry (in Angstrom), charge = 0, multiplicity = 1:

       Center              X                  Y                   Z               Mass       
    ------------   -----------------  -----------------  -----------------  -----------------
           H         -2.339788916584     0.042366101234     0.579093708126     1.007825032070
           H         -2.203185092223     1.697052603133    -0.033630766343     1.007825032070
           H         -1.902151289140     0.326544859046    -1.112867790750     1.007825032070
           C         -1.776349215120     0.693455775660    -0.092406441942    12.000000000000
           H          0.244006376233     1.367023016778    -0.390409246940     1.007825032070
           H         -0.185194750969     1.087350672802     1.304098491277     1.007825032070
           C         -0.293050741872     0.699121660027     0.288411722532    12.000000000000
           H          0.360985694840    -1.148834600176     1.211205202000     1.007825032070
           H         -0.300501341945    -1.347607267104    -0.418594712289     1.007825032070
           C          0.327828638415    -0.711392237053     0.210408705682    12.000000000000
           H          2.171551459798    -1.685742591001    -0.421740413116     1.007825032070
           H          2.397134002972    -0.062351371112     0.246272587551     1.007825032070
           H          1.728772048299    -0.264672665043    -1.380217956886     1.007825032070
           C          1.743954136829    -0.682119852087    -0.371409627980    12.000000000000

  Running in c1 symmetry.

  Rotational constants: A =      0.67919  B =      0.12417  C =      0.11980 [cm^-1]
  Rotational constants: A =  20361.68293  B =   3722.56171  C =   3591.62830 [MHz]
  Nuclear repulsion =  130.847387484406880

  Charge       = 0
  Multiplicity = 1
  Electrons    = 34
  Nalpha       = 17
  Nbeta        = 17

  ==> Algorithm <==

  SCF Algorithm Type is DF.
  DIIS enabled.
  MOM disabled.
  Fractional occupation disabled.
  Guess Type is READ.
  Energy threshold   = 1.00e-10
  Density threshold  = 1.00e-10
  Integral threshold = 0.00e+00

  ==> Primary Basis <==

  Basis Set: 6-31G(D)
    Number of shells: 44
    Number of basis function: 80
    Number of Cartesian functions: 80
    Spherical Harmonics?: false
    Max angular momentum: 2

  ==> Pre-Iterations <==

   -------------------------------------------------------
    Irrep   Nso     Nmo     Nalpha   Nbeta   Ndocc  Nsocc
   -------------------------------------------------------
     A         80      80       0       0       0       0
   -------------------------------------------------------
    Total      80      80      17      17      17       0
   -------------------------------------------------------

  ==> Integral Setup <==

  ==> DFJK: Density-Fitted J/K Matrices <==

    J tasked:                  Yes
    K tasked:                  Yes
    wK tasked:                  No
    OpenMP threads:              1
    Integrals threads:           1
    Memory (MB):               715
    Algorithm:                Core
    Integral Cache:           NONE
    Schwarz Cutoff:          1E-12
    Fitting Condition:       1E-12

   => Auxiliary Basis Set <=

  Basis Set: 
    Number of shells: 186
    Number of basis function: 574
    Number of Cartesian functions: 574
    Spherical Harmonics?: false
    Max angular momentum: 3

  Minimum eigenvalue in the overlap matrix is 4.7432603983E-03.
  Using Symmetric Orthogonalization.
  SCF Guess was Projection but file not found.
  Switching over to SAD guess.

  SCF Guess: Superposition of Atomic Densities via on-the-fly atomic UHF.

  ==> Iterations <==

                           Total Energy        Delta E     RMS |[F,P]|

   @DF-RHF iter   0:  -158.83172747614603   -1.58832e+02   4.61696e-02 
   @DF-RHF iter   1:  -157.20604028013921    1.62569e+00   3.85351e-03 
   @DF-RHF iter   2:  -157.28455583760851   -7.85156e-02   1.11351e-03 DIIS
   @DF-RHF iter   3:  -157.29287158774392   -8.31575e-03   2.63541e-04 DIIS
   @DF-RHF iter   4:  -157.29324715060321   -3.75563e-04   7.48790e-05 DIIS
   @DF-RHF iter   5:  -157.29328402006368   -3.68695e-05   1.17891e-05 DIIS
   @DF-RHF iter   6:  -157.29328507872819   -1.05866e-06   2.05688e-06 DIIS
   @DF-RHF iter   7:  -157.29328510122295   -2.24948e-08   6.93103e-07 DIIS
   @DF-RHF iter   8:  -157.29328510341716   -2.19421e-09   1.10619e-07 DIIS
   @DF-RHF iter   9:  -157.29328510351721   -1.00044e-10   2.71332e-08 DIIS
   @DF-RHF iter  10:  -157.29328510352335   -6.13909e-12   5.56570e-09 DIIS
   @DF-RHF iter  11:  -157.29328510352357   -2.27374e-13   9.77721e-10 DIIS
   @DF-RHF iter  12:  -157.29328510352346    1.13687e-13   2.16018e-10 DIIS
   @DF-RHF iter  13:  -157.29328510352346    0.00000e+00   4.84258e-11 DIIS

  ==> Post-Iterations <==

    Orbital Energies (a.u.)
    -----------------------

    Doubly Occupied:                                                      

       1A    -11.214939     2A    -11.214382     3A    -11.209609  
       4A    -11.209600     5A     -1.067321     6A     -0.978452  
       7A     -0.858376     8A     -0.786118     9A     -0.635784  
      10A     -0.588882    11A     -0.580860    12A     -0.556969  
      13A     -0.509415    14A     -0.502900    15A     -0.464827  
      16A     -0.460493    17A     -0.450782  

    Virtual:                                                              

      18A      0.232442    19A      0.264540    20A      0.285598  
      21A      0.294440    22A      0.321708    23A      0.327501  
      24A      0.328200    25A      0.337284    26A      0.344823  
      27A      0.352320    28A      0.417337    29A      0.444556  
      30A      0.449751    31A      0.707745    32A      0.715450  
      33A      0.743103    34A      0.771216    35A      0.796860  
      36A      0.840802    37A      0.844858    38A      0.935661  
      39A      0.943476    40A      1.003431    41A      1.077101  
      42A      1.080967    43A      1.148120    44A      1.168162  
      45A      1.168784    46A      1.186602    47A      1.192674  
      48A      1.201519    49A      1.232767    50A      1.234490  
      51A      1.241662    52A      1.266454    53A      1.266577  
      54A      1.497656    55A      1.652463    56A      1.736674  
      57A      1.750686    58A      1.919091    59A      1.946947  
      60A      2.104799    61A      2.204741    62A      2.211660  
      63A      2.289360    64A      2.301535    65A      2.324967  
      66A      2.425162    67A      2.490487    68A      2.603758  
      69A      2.632395    70A      2.681409    71A      2.688544  
      72A      2.728505    73A      2.767879    74A      2.886725  
      75A      3.021442    76A      3.085000    77A      4.559071  
      78A      4.657146    79A      4.795226    80A      4.957469  

    Final Occupation by Irrep:
              A 
    DOCC [    17 ]

  Energy converged.

  @DF-RHF Final Energy:  -157.29328510352346

   => Energetics <=

    Nuclear Repulsion Energy =            130.8473874844068803
    One-Electron Energy =                -469.7019297274296719
    Two-Electron Energy =                 181.5612571394993608
    DFT Exchange-Correlation Energy =       0.0000000000000000
    Empirical Dispersion Energy =           0.0000000000000000
    PCM Polarization Energy =               0.0000000000000000
    EFP Energy =                            0.0000000000000000
    Total Energy =                       -157.2932851035234592


  Saving occupied orbitals to File 180.

*** tstop() called on lski1497 at Thu Feb 16 16:23:38 2017
Module time:
	user time   =       5.76 seconds =       0.10 minutes
	system time =       0.16 seconds =       0.00 minutes
	total time  =          7 seconds =       0.12 minutes
Total time:
	user time   =      55.62 seconds =       0.93 minutes
	system time =       1.62 seconds =       0.03 minutes
	total time  =         65 seconds =       1.08 minutes


Properties will be evaluated at   0.000000,   0.000000,   0.000000 Bohr

Properties computed using the SCF density matrix

  Nuclear Dipole Moment: (a.u.)
     X:    -0.0266      Y:     0.0104      Z:    -0.3907

  Electronic Dipole Moment: (a.u.)
     X:     0.0281      Y:    -0.0109      Z:     0.4118

  Dipole Moment: (a.u.)
     X:     0.0015      Y:    -0.0005      Z:     0.0210     Total:     0.0211

  Dipole Moment: (Debye)
     X:     0.0037      Y:    -0.0013      Z:     0.0535     Total:     0.0536


  //>>>>>>>>>>>>>>>>>>>>>>>>>>>>>>>>>>>//
  //               DFMP2               //
  //<<<<<<<<<<<<<<<<<<<<<<<<<<<<<<<<<<<//


*** tstart() called on lski1497
*** at Thu Feb 16 16:23:38 2017


*** tstop() called on lski1497 at Thu Feb 16 16:23:39 2017
Module time:
	user time   =       0.62 seconds =       0.01 minutes
	system time =       0.01 seconds =       0.00 minutes
	total time  =          1 seconds =       0.02 minutes
Total time:
	user time   =      56.26 seconds =       0.94 minutes
	system time =       1.63 seconds =       0.03 minutes
	total time  =         66 seconds =       1.10 minutes
	 --------------------------------------------------------
	                          DF-MP2                         
	      2nd-Order Density-Fitted Moller-Plesset Theory     
	              RMP2 Wavefunction,   1 Threads             
	                                                         
	        Rob Parrish, Justin Turney, Andy Simmonett,      
	           Ed Hohenstein, and C. David Sherrill          
	 --------------------------------------------------------

   => Auxiliary Basis Set <=

  Basis Set: 
    Number of shells: 132
    Number of basis function: 364
    Number of Cartesian functions: 414
    Spherical Harmonics?: true
    Max angular momentum: 3

	 --------------------------------------------------------
	                 NBF =    80, NAUX =   364
	 --------------------------------------------------------
	   CLASS    FOCC     OCC    AOCC    AVIR     VIR    FVIR
	   PAIRS       0      17      17      63      63       0
	 --------------------------------------------------------

DGAS Warning! /src/lib/libfock/apps.cc:80 is not currently checking restricted

         ------------------------------------------------------------
                                     CPHF                           
                                  Rob Parrish                       
         ------------------------------------------------------------

  ==> Geometry <==

    Molecular point group: c1
    Full point group: C1

    Geometry (in Angstrom), charge = 0, multiplicity = 1:

       Center              X                  Y                   Z               Mass       
    ------------   -----------------  -----------------  -----------------  -----------------
           H         -2.339788916584     0.042366101234     0.579093708126     1.007825032070
           H         -2.203185092223     1.697052603133    -0.033630766343     1.007825032070
           H         -1.902151289140     0.326544859046    -1.112867790750     1.007825032070
           C         -1.776349215120     0.693455775660    -0.092406441942    12.000000000000
           H          0.244006376233     1.367023016778    -0.390409246940     1.007825032070
           H         -0.185194750969     1.087350672802     1.304098491277     1.007825032070
           C         -0.293050741872     0.699121660027     0.288411722532    12.000000000000
           H          0.360985694840    -1.148834600176     1.211205202000     1.007825032070
           H         -0.300501341945    -1.347607267104    -0.418594712289     1.007825032070
           C          0.327828638415    -0.711392237053     0.210408705682    12.000000000000
           H          2.171551459798    -1.685742591001    -0.421740413116     1.007825032070
           H          2.397134002972    -0.062351371112     0.246272587551     1.007825032070
           H          1.728772048299    -0.264672665043    -1.380217956886     1.007825032070
           C          1.743954136829    -0.682119852087    -0.371409627980    12.000000000000

  Nuclear repulsion =  130.847387484406880
  Reference energy  = -157.293285103523459

  ==> Basis Set <==

  Basis Set: 6-31G(D)
    Number of shells: 44
    Number of basis function: 80
    Number of Cartesian functions: 80
    Spherical Harmonics?: false
    Max angular momentum: 2

  ==> CGRSolver (by Rob Parrish) <==

   Number of roots    =         1
   Preconditioning    =    JACOBI
   Convergence cutoff =     1E-06
   Maximum iterations =       100

  ==> CPHFRHamiltonian (by Rob Parrish) <== 

  ==> DFJK: Density-Fitted J/K Matrices <==

    J tasked:                  Yes
    K tasked:                  Yes
[...]

    OpenMP threads:              1
    Integrals threads:           1
    Memory (MB):               715
    Schwarz Cutoff:          0E+00
    Fitting Condition:       1E-12

   => Auxiliary Basis Set <=

  Basis Set: 
    Number of shells: 186
    Number of basis function: 510
    Number of Cartesian functions: 574
    Spherical Harmonics?: true
    Max angular momentum: 3

	-----------------------------------------------------------
	 ==================> DF-MP2 Energies <==================== 
	-----------------------------------------------------------
	 Reference Energy          =    -157.2936889381759045 [Eh]
	 Singles Energy            =      -0.0000000000000000 [Eh]
	 Same-Spin Energy          =      -0.1243292214837411 [Eh]
	 Opposite-Spin Energy      =      -0.4223553193496355 [Eh]
	 Correlation Energy        =      -0.5466845408333766 [Eh]
	 Total Energy              =    -157.8403734790092869 [Eh]
	-----------------------------------------------------------
	 ================> DF-SCS-MP2 Energies <================== 
	-----------------------------------------------------------
	 SCS Same-Spin Scale       =       0.3333333333333333 [-]
	 SCS Opposite-Spin Scale   =       1.2000000000000000 [-]
	 SCS Same-Spin Energy      =      -0.0414430738279137 [Eh]
	 SCS Opposite-Spin Energy  =      -0.5068263832195625 [Eh]
	 SCS Correlation Energy    =      -0.5482694570474762 [Eh]
	 SCS Total Energy          =    -157.8419583952233722 [Eh]
	-----------------------------------------------------------


  -Total Gradient:
     Atom            X                  Y                   Z
    ------   -----------------  -----------------  -----------------
       1        0.000002185572    -0.000002417375     0.000009937449
       2       -0.000003422658     0.000005538228    -0.000005299867
       3       -0.000018794452    -0.000008415069    -0.000008648753
       4        0.000752115462     0.000483160097    -0.002850940771
       5        0.000005897341    -0.000002504416     0.000007314394
       6        0.000009141648    -0.000002092434     0.000012663500
       7       -0.001439022386    -0.000812213872     0.002873297708
       8       -0.000007206313     0.000001589609     0.000013778371
       9       -0.000004614484     0.000002254568     0.000007951768
      10        0.001821940745     0.000662135124     0.002689156704
      11        0.000002889190    -0.000005666043    -0.000006041679
      12       -0.000000599974     0.000001798816     0.000010473796
      13        0.000017328988     0.000008724752    -0.000010485701
      14       -0.001137838680    -0.000331891986    -0.002743156920


			-----------------------------------------
			 OPTKING 2.0: for geometry optimizations 
			  - R.A. King,  Bethel University        
			-----------------------------------------

	Previous internal coordinate definitions found.
	---Fragment 1 Geometry and Gradient---
	 H          -4.4454813242        0.0693619910        1.0703874893
	 H          -4.1724966422        3.2164783186       -0.0186472815
	 H          -3.6154773480        0.6658003442       -2.1081527715
	 C          -3.3588298032        1.3221317097       -0.1651297095
	 H           0.4415379483        2.5807602528       -0.7489532992
	 H          -0.3026911489        2.0990853547        2.4371780523
	 C          -0.5647004309        1.3085487933        0.5419040305
	 H           0.6253874412       -2.2253969851        2.2570154581
	 H          -0.5492921527       -2.5385789429       -0.8185955241
	 C           0.6286798747       -1.3335921837        0.3887727297
	 H           4.1188858392       -3.1954968134       -0.7611707308
	 H           4.5498091786       -0.1102066639        0.4471939591
	 H           3.2907655852       -0.5386926804       -2.6153192066
	 C           3.2998099187       -1.2990295730       -0.6933982126
	             0.0000021856       -0.0000024174        0.0000099374
	            -0.0000034227        0.0000055382       -0.0000052999
	            -0.0000187945       -0.0000084151       -0.0000086488
	             0.0007521155        0.0004831601       -0.0028509408
	             0.0000058973       -0.0000025044        0.0000073144
	             0.0000091416       -0.0000020924        0.0000126635
	            -0.0014390224       -0.0008122139        0.0028732977
	            -0.0000072063        0.0000015896        0.0000137784
	            -0.0000046145        0.0000022546        0.0000079518
	             0.0018219407        0.0006621351        0.0026891567
	             0.0000028892       -0.0000056660       -0.0000060417
	            -0.0000006000        0.0000017988        0.0000104738
	             0.0000173290        0.0000087248       -0.0000104857
	            -0.0011378387       -0.0003318920       -0.0027431569

	---Fragment 1 Intrafragment Coordinates---
	 - Coordinate -           - BOHR/RAD -       - ANG/DEG -
	 R(1,4)           =         2.068030	       1.094354
	 R(2,4)           =         2.066896	       1.093754
	 R(3,4)           =         2.066876	       1.093744
	 R(4,7)           =         2.882228	       1.525210
	 R(5,7)           =         2.073005	       1.096987
	 R(6,7)           =         2.070184	       1.095494
	 R(7,10)          =         2.903190	       1.536302
	 R(8,10)          =         2.070183	       1.095494
	 R(9,10)          =         2.073005	       1.096987
	 R(10,14)         =         2.882226	       1.525208
	 R(11,14)         =         2.066898	       1.093755
	 R(12,14)         =         2.068030	       1.094354
	 R(13,14)         =         2.066875	       1.093743
	 B(1,4,2)         =         1.881799	     107.819168
	 B(1,4,3)         =         1.879713	     107.699617
	 B(1,4,7)         =         1.939043	     111.099004
	 B(2,4,3)         =         1.884706	     107.985699
	 B(2,4,7)         =         1.948264	     111.627280
	 B(3,4,7)         =         1.927821	     110.456015
	 B(4,7,5)         =         1.891167	     108.355912
	 B(4,7,6)         =         1.923543	     110.210922
	 B(4,7,10)        =         1.971258	     112.944769
	 B(5,7,6)         =         1.848657	     105.920248
	 B(5,7,10)        =         1.903022	     109.035145
	 B(6,7,10)        =         1.921752	     110.108285
	 B(7,10,8)        =         1.921752	     110.108295
	 B(7,10,9)        =         1.903022	     109.035106
	 B(7,10,14)       =         1.971257	     112.944725
	 B(8,10,9)        =         1.848660	     105.920404
	 B(8,10,14)       =         1.923544	     110.210979
	 B(9,10,14)       =         1.891165	     108.355780
	 B(10,14,11)      =         1.948264	     111.627282
	 B(10,14,12)      =         1.939045	     111.099095
	 B(10,14,13)      =         1.927820	     110.455974
	 B(11,14,12)      =         1.881798	     107.819064
	 B(11,14,13)      =         1.884705	     107.985640
	 B(12,14,13)      =         1.879715	     107.699726
	 D(1,4,7,5)       =         3.137699	     179.776922
	 D(1,4,7,6)       =        -1.130067	     -64.748074
	 D(1,4,7,10)      =         1.027504	      58.871645
	 D(2,4,7,5)       =        -1.044353	     -59.837043
	 D(2,4,7,6)       =         0.971066	      55.637961
	 D(2,4,7,10)      =         3.128637	     179.257680
	 D(3,4,7,5)       =         1.052827	      60.322518
	 D(3,4,7,6)       =         3.068246	     175.797522
	 D(3,4,7,10)      =        -1.057369	     -60.582759
	 D(4,7,10,8)      =        -1.672551	     -95.830136
	 D(4,7,10,9)      =         0.348636	      19.975358
	 D(4,7,10,14)     =         2.452074	     140.493482
	 D(5,7,10,8)      =         2.507192	     143.651518
	 D(5,7,10,9)      =        -1.754806	    -100.542988
	 D(5,7,10,14)     =         0.348632	      19.975136
	 D(6,7,10,8)      =         0.486008	      27.846195
	 D(6,7,10,9)      =         2.507195	     143.651689
	 D(6,7,10,14)     =        -1.672552	     -95.830187
	 D(7,10,14,11)    =         3.128643	     179.258047
	 D(7,10,14,12)    =         1.027512	      58.872080
	 D(7,10,14,13)    =        -1.057364	     -60.582493
	 D(8,10,14,11)    =         0.971072	      55.638302
	 D(8,10,14,12)    =        -1.130060	     -64.747665
	 D(8,10,14,13)    =         3.068250	     175.797762
	 D(9,10,14,11)    =        -1.044350	     -59.836845
	 D(9,10,14,12)    =         3.137704	     179.777188
	 D(9,10,14,13)    =         1.052828	      60.322615

	Current energy   :      -157.8403734790

	Energy change for the previous step:
		Projected    :        -0.0000033246
		Actual       :         0.0000005789

	Performing BFGS update.
	Previous computed or guess Hessian on step 1.
	Steps to be used in Hessian update: 6 5
	Adding user-defined constraint: Fragment 1; Coordinate 49:
		Value =     2.452074; Fixed value    =     2.443460
		Force =    -0.005599; Force constant =     0.650000
	Removing off-diagonal coupling between coordinate 49 and others.
	Taking RFO optimization step.
	Going to follow RFO solution 1.
	Using RFO vector 1.

	Determining step-restricting scale parameter for RS-RFO.
	Maximum step size allowed    0.10000

	 Iter      |step|        alpha        rfo_root  
	------------------------------------------------
	    0    28.26282       1.00000           1
	    1    14.16457       1.99761           1
	    2     7.11542       3.98569           1
	    3     3.59082       7.93335           1
	    4     1.82845      15.71531           1
	    5     0.94717      30.83157           1
	    6     0.50645      59.32394           1
	    7     0.28624     109.79525           1
	    8     0.17709     188.43856           1
	    9     0.12531     282.93105           1
	   10     0.10480     351.49098           1
	   11     0.10025     371.24819           1
	   12     0.10000     372.37257           1
	------------------------------------------------
	Norm of target step-size    0.10000
	Projected energy change by RFO approximation:        -0.0000583759

	Back-transformation to cartesian coordinates...
	Could not converge backtransformation.
	Using first guess instead.

	--- Internal Coordinate Step in ANG or DEG, aJ/ANG or AJ/DEG ---
	 ---------------------------------------------------------------------------
	   Coordinate                Previous        Force       Change         New 
	   ----------                --------       ------       ------       ------
	    1 R(1,4)          =      1.094354    -0.000051     0.000560     1.094914
	    2 R(2,4)          =      1.093754    -0.000051     0.000771     1.094525
	    3 R(3,4)          =      1.093744    -0.000108     0.001070     1.094813
	    4 R(4,7)          =      1.525210     0.000060    -0.002541     1.522669
	    5 R(5,7)          =      1.096987     0.000026    -0.000752     1.096235
	    6 R(6,7)          =      1.095494    -0.000099     0.000886     1.096380
	    7 R(7,10)         =      1.536302     0.000178     0.001482     1.537784
	    8 R(8,10)         =      1.095494    -0.000097     0.000878     1.096371
	    9 R(9,10)         =      1.096987     0.000027    -0.000737     1.096250
	   10 R(10,14)        =      1.525208     0.000068    -0.002483     1.522725
	   11 R(11,14)        =      1.093755    -0.000055     0.000805     1.094560
	   12 R(12,14)        =      1.094354    -0.000052     0.000550     1.094904
	   13 R(13,14)        =      1.093743    -0.000106     0.000962     1.094706
	   14 B(1,4,2)        =    107.819168    -0.000000    -0.079194   107.739974
	   15 B(1,4,3)        =    107.699617     0.000000    -0.170041   107.529576
	   16 B(1,4,7)        =    111.099004     0.000001    -0.176605   110.922399
	   17 B(2,4,3)        =    107.985699     0.000001    -0.175861   107.809838
	   18 B(2,4,7)        =    111.627280    -0.000000     0.082379   111.709659
	   19 B(3,4,7)        =    110.456015    -0.000002     0.495690   110.951705
	   20 B(4,7,5)        =    108.355912    -0.000005     0.803726   109.159638
	   21 B(4,7,6)        =    110.210922     0.000003    -0.679404   109.531518
	   22 B(4,7,10)       =    112.944769     0.000001     0.061002   113.005771
	   23 B(5,7,6)        =    105.920248     0.000000    -0.244821   105.675427
	   24 B(5,7,10)       =    109.035145     0.000000     0.045334   109.080479
	   25 B(6,7,10)       =    110.108285    -0.000000     0.012030   110.120315
	   26 B(7,10,8)       =    110.108295    -0.000000     0.009009   110.117304
	   27 B(7,10,9)       =    109.035106     0.000000     0.042734   109.077839
	   28 B(7,10,14)      =    112.944725     0.000001     0.058917   113.003642
	   29 B(8,10,9)       =    105.920404     0.000000    -0.236110   105.684295
	   30 B(8,10,14)      =    110.210979     0.000003    -0.677914   109.533065
	   31 B(9,10,14)      =    108.355780    -0.000005     0.801946   109.157726
	   32 B(10,14,11)     =    111.627282    -0.000000     0.082191   111.709473
	   33 B(10,14,12)     =    111.099095     0.000001    -0.178147   110.920949
	   34 B(10,14,13)     =    110.455974    -0.000002     0.489975   110.945950
	   35 B(11,14,12)     =    107.819064    -0.000000    -0.085979   107.733085
	   36 B(11,14,13)     =    107.985640     0.000001    -0.176669   107.808971
	   37 B(12,14,13)     =    107.699726     0.000000    -0.154410   107.545317
	   38 D(1,4,7,5)      =    179.776922    -0.000000    -0.008666   179.768257
	   39 D(1,4,7,6)      =    -64.748074    -0.000000    -0.222320   -64.970394
	   40 D(1,4,7,10)     =     58.871645     0.000000    -0.670137    58.201508
	   41 D(2,4,7,5)      =    -59.837043    -0.000000    -0.174484   -60.011527
	   42 D(2,4,7,6)      =     55.637961    -0.000000    -0.388139    55.249822
	   43 D(2,4,7,10)     =    179.257680     0.000000    -0.835956   178.421724
	   44 D(3,4,7,5)      =     60.322518    -0.000000    -0.004996    60.317523
	   45 D(3,4,7,6)      =    175.797522    -0.000000    -0.218650   175.578872
	   46 D(3,4,7,10)     =    -60.582759     0.000000    -0.666467   -61.249226
	   47 D(4,7,10,8)     =    -95.830136    -0.000001    -1.112519   -96.942655
	   48 D(4,7,10,9)     =     19.975358    -0.000001    -1.367036    18.608322
	   49 D(4,7,10,14)    =    140.493482    -0.000002    -0.279521   140.213961
	   50 D(5,7,10,8)     =    143.651518     0.000000    -2.205547   141.445971
	   51 D(5,7,10,9)     =   -100.542988     0.000000    -2.460064  -103.003052
	   52 D(5,7,10,14)    =     19.975136    -0.000001    -1.372550    18.602586
	   53 D(6,7,10,8)     =     27.846195    -0.000000    -1.943727    25.902468
	   54 D(6,7,10,9)     =    143.651689     0.000000    -2.198244   141.453445
	   55 D(6,7,10,14)    =    -95.830187    -0.000001    -1.110730   -96.940917
	   56 D(7,10,14,11)   =    179.258047     0.000000    -0.837174   178.420873
	   57 D(7,10,14,12)   =     58.872080     0.000000    -0.661557    58.210523
	   58 D(7,10,14,13)   =    -60.582493     0.000000    -0.672757   -61.255249
	   59 D(8,10,14,11)   =     55.638302    -0.000000    -0.385088    55.253214
	   60 D(8,10,14,12)   =    -64.747665    -0.000000    -0.209471   -64.957136
	   61 D(8,10,14,13)   =    175.797762    -0.000000    -0.220670   175.577092
	   62 D(9,10,14,11)   =    -59.836845    -0.000000    -0.181685   -60.018530
	   63 D(9,10,14,12)   =    179.777188    -0.000000    -0.006068   179.771120
	   64 D(9,10,14,13)   =     60.322615    -0.000000    -0.017267    60.305348
	 ---------------------------------------------------------------------------
	 Forces used to impose fixed constraints are not included.
	  Forces zeroed: 49 

  ==> Convergence Check <==

  Measures of convergence in internal coordinates in au.
  Criteria marked as inactive (o), active & met (*), and active & unmet ( ).
  ---------------------------------------------------------------------------------------------
   Step     Total Energy     Delta E     MAX Force     RMS Force      MAX Disp      RMS Disp   
  ---------------------------------------------------------------------------------------------
    Convergence Criteria    1.00e-06 *    3.00e-04 *             o    1.20e-03 *             o
  ---------------------------------------------------------------------------------------------
      7    -157.84037348    5.79e-07 *    7.21e-05 *    2.62e-05 o    4.29e-02      1.25e-02 o  ~
  ---------------------------------------------------------------------------------------------


  **** Optimization is complete! (in 7 steps) ****

  ==> Optimization Summary <==

  Measures of convergence in internal coordinates in au.
  --------------------------------------------------------------------------------------------------------------- ~
   Step         Total Energy             Delta E       MAX Force       RMS Force        MAX Disp        RMS Disp  ~
  --------------------------------------------------------------------------------------------------------------- ~
      1    -157.834219885484   -157.834219885484      0.01741580      0.00726852      0.02734905      0.01250969  ~
      2    -157.838329073991     -0.004109188507      0.00708907      0.00321213      0.03047539      0.01250179  ~
      3    -157.839833147034     -0.001504073043      0.00225628      0.00099623      0.04714304      0.01249355  ~
      4    -157.840264014726     -0.000430867691      0.00120150      0.00031937      0.03579374      0.01249477  ~
      5    -157.840362396533     -0.000098381808      0.00015923      0.00006961      0.01059937      0.00518680  ~
      6    -157.840374057882     -0.000011661348      0.00012389      0.00003248      0.00278323      0.00133200  ~
      7    -157.840373479009      0.000000578873      0.00014169      0.00003164      0.04293622      0.01250300  ~
  --------------------------------------------------------------------------------------------------------------- ~

	Writing optimization data to binary file.
	Final energy is   -157.8403734790093
	Final (previous) structure:
	Cartesian Geometry (in Angstrom)
	    H    -2.3524473980   0.0367047848   0.5664246637
	    H    -2.2079901260   1.7020870181  -0.0098677164
	    H    -1.9132282107   0.3523263676  -1.1155863989
	    C    -1.7774161794   0.6996419675  -0.0873828787
	    H     0.2336518190   1.3656795066  -0.3963290162
	    H    -0.1601772573   1.1107881286   1.2896990786
	    C    -0.2988265977   0.6924541977   0.2867632622
	    H     0.3309407804  -1.1776293646   1.1943611399
	    H    -0.2906728881  -1.3433581188  -0.4331820944
	    C     0.3326830612  -0.7057065892   0.2057296679
	    H     2.1796205109  -1.6909840838  -0.4027942026
	    H     2.4076553207  -0.0583188548   0.2366448510
	    H     1.7413981465  -0.2850638889  -1.3839673173
	    C     1.7461842017  -0.6874168433  -0.3669305306
	Saving final (previous) structure.
			--------------------------
			 OPTKING Finished Execution 
			--------------------------

    Final optimized geometry and variables:
    Molecular point group: c1
    Full point group: C1

    Geometry (in Angstrom), charge = 0, multiplicity = 1:

    H           -2.352447397959     0.036704784792     0.566424663716
    H           -2.207990125962     1.702087018108    -0.009867716372
    H           -1.913228210717     0.352326367599    -1.115586398891
    C           -1.777416179395     0.699641967518    -0.087382878726
    H            0.233651818973     1.365679506603    -0.396329016238
    H           -0.160177257266     1.110788128592     1.289699078563
    C           -0.298826597707     0.692454197721     0.286763262169
    H            0.330940780435    -1.177629364598     1.194361139887
    H           -0.290672888091    -1.343358118790    -0.433182094394
    C            0.332683061213    -0.705706589151     0.205729667870
    H            2.179620510900    -1.690984083764    -0.402794202583
    H            2.407655320723    -0.058318854782     0.236644850975
    H            1.741398146515    -0.285063888927    -1.383967317339
    C            1.746184201659    -0.687416843310    -0.366930530573

	Cleaning optimization helper files.

*** Psi4 exiting successfully. Buy a developer a beer!
