    -----------------------------------------------------------------------
          Psi4: An Open-Source Ab Initio Electronic Structure Package
                              Psi4 1.0.0 Driver

                          Git: Rev {master} 6a9a71b 

    J. M. Turney, A. C. Simmonett, R. M. Parrish, E. G. Hohenstein,
    F. A. Evangelista, J. T. Fermann, B. J. Mintz, L. A. Burns, J. J. Wilke,
    M. L. Abrams, N. J. Russ, M. L. Leininger, C. L. Janssen, E. T. Seidl,
    W. D. Allen, H. F. Schaefer, R. A. King, E. F. Valeev, C. D. Sherrill,
    and T. D. Crawford, WIREs Comput. Mol. Sci. 2, 556-565 (2012)
    (doi: 10.1002/wcms.93)

                         Additional Contributions by
    A. E. DePrince, U. Bozkaya, A. Yu. Sokolov, D. G. A. Smith, R. Di Remigio,
    R. M. Richard, J. F. Gonthier, H. R. McAlexander, M. Saitow, and
    B. P. Pritchard
    -----------------------------------------------------------------------


    Psi4 started on: Mon Feb 20 17:20:30 2017

    Process ID:  27982
    PSI4DATADIR: /Users/sternc1/anaconda/share/psi4
    Memory level set to 256.000 MB

  ==> Input File <==

--------------------------------------------------------------------------

memory 1000 mb

molecule butane {
  symmetry C1
  0 1 
  H      1.604   0.760   -8.260
  H      1.745   2.388   -8.880
  H      2.043   1.024   -9.930
  C      2.142   1.395   -8.932
  H      4.169   2.051   -9.210
  H      3.731   1.788   -7.539
  C      3.631   1.416   -8.537
  H      3.665   -0.647   -7.940
  H      4.104   -0.384   -9.610
  C      4.203   -0.012   -8.612
  H      6.088   -0.983   -8.269
  H      5.790   0.381   -7.219
  H      6.230   0.644   -8.889
  C      5.691   0.009   -8.217
  units Angstrom
}

dih_string = "4 7 10 14 180.001"
set optking fixed_dihedral = $dih_string

optimize('MP2/6-31G(d)')
--------------------------------------------------------------------------

  Memory set to 1000.000 MiB by Python script.
gradient() will perform analytic gradient computation.
    SCF Algorithm Type (re)set to DF.

*** tstart() called on lski1497
*** at Mon Feb 20 17:20:31 2017


         ---------------------------------------------------------
                                   SCF
            by Justin Turney, Rob Parrish, and Andy Simmonett
                              RHF Reference
                        1 Threads,   1000 MiB Core
         ---------------------------------------------------------

  ==> Geometry <==

    Molecular point group: c1
    Full point group: C1

    Geometry (in Angstrom), charge = 0, multiplicity = 1:

       Center              X                  Y                   Z               Mass       
    ------------   -----------------  -----------------  -----------------  -----------------
           H         -2.312776029323     0.057965294236     0.314517352882     1.007825032070
           H         -2.171776029323     1.685965294236    -0.305482647118     1.007825032070
           H         -1.873776029323     0.321965294236    -1.355482647118     1.007825032070
           C         -1.774776029323     0.692965294236    -0.357482647118    12.000000000000
           H          0.252223970677     1.348965294236    -0.635482647118     1.007825032070
           H         -0.185776029323     1.085965294236     1.035517352882     1.007825032070
           C         -0.285776029323     0.713965294236     0.037517352882    12.000000000000
           H         -0.251776029323    -1.349034705764     0.634517352882     1.007825032070
           H          0.187223970677    -1.086034705764    -1.035482647118     1.007825032070
           C          0.286223970677    -0.714034705764    -0.037482647118    12.000000000000
           H          2.171223970677    -1.685034705764     0.305517352882     1.007825032070
           H          1.873223970677    -0.321034705764     1.355517352882     1.007825032070
           H          2.313223970677    -0.058034705764    -0.314482647118     1.007825032070
           C          1.774223970677    -0.693034705764     0.357517352882    12.000000000000

  Running in c1 symmetry.

  Rotational constants: A =      0.76946  B =      0.12464  C =      0.11637 [cm^-1]
  Rotational constants: A =  23067.68991  B =   3736.52948  C =   3488.75156 [MHz]
  Nuclear repulsion =  131.817319909035746

  Charge       = 0
  Multiplicity = 1
  Electrons    = 34
  Nalpha       = 17
  Nbeta        = 17

  ==> Algorithm <==

  SCF Algorithm Type is DF.
  DIIS enabled.
  MOM disabled.
  Fractional occupation disabled.
  Guess Type is SAD.
  Energy threshold   = 1.00e-10
  Density threshold  = 1.00e-10
  Integral threshold = 0.00e+00

  ==> Primary Basis <==

  Basis Set: 6-31G(D)
    Number of shells: 44
    Number of basis function: 80
    Number of Cartesian functions: 80
    Spherical Harmonics?: false
    Max angular momentum: 2

  ==> Pre-Iterations <==

   -------------------------------------------------------
    Irrep   Nso     Nmo     Nalpha   Nbeta   Ndocc  Nsocc
   -------------------------------------------------------
     A         80      80       0       0       0       0
   -------------------------------------------------------
    Total      80      80      17      17      17       0
   -------------------------------------------------------

  ==> Integral Setup <==

  ==> DFJK: Density-Fitted J/K Matrices <==

    J tasked:                  Yes
    K tasked:                  Yes
    wK tasked:                  No
    OpenMP threads:              1
    Integrals threads:           1
    Memory (MB):               715
    Algorithm:                Core
    Integral Cache:           NONE
    Schwarz Cutoff:          1E-12
    Fitting Condition:       1E-12

   => Auxiliary Basis Set <=

  Basis Set: 
    Number of shells: 186
    Number of basis function: 574
    Number of Cartesian functions: 574
    Spherical Harmonics?: false
    Max angular momentum: 3

  Minimum eigenvalue in the overlap matrix is 4.4964886318E-03.
  Using Symmetric Orthogonalization.
  SCF Guess: Superposition of Atomic Densities via on-the-fly atomic UHF.

  ==> Iterations <==

                           Total Energy        Delta E     RMS |[F,P]|

   @DF-RHF iter   0:  -158.97354931573295   -1.58974e+02   4.74682e-02 
   @DF-RHF iter   1:  -157.20624484449314    1.76730e+00   3.94269e-03 
   @DF-RHF iter   2:  -157.28587773971174   -7.96329e-02   1.09221e-03 DIIS
   @DF-RHF iter   3:  -157.29374991230384   -7.87217e-03   2.42517e-04 DIIS
   @DF-RHF iter   4:  -157.29409138124163   -3.41469e-04   7.49046e-05 DIIS
   @DF-RHF iter   5:  -157.29412460361209   -3.32224e-05   1.31062e-05 DIIS
   @DF-RHF iter   6:  -157.29412584597219   -1.24236e-06   2.57696e-06 DIIS
   @DF-RHF iter   7:  -157.29412587709999   -3.11278e-08   7.03589e-07 DIIS
   @DF-RHF iter   8:  -157.29412587961178   -2.51180e-09   9.64252e-08 DIIS
   @DF-RHF iter   9:  -157.29412587969068   -7.88987e-11   2.09292e-08 DIIS
   @DF-RHF iter  10:  -157.29412587969443   -3.75167e-12   3.64522e-09 DIIS
   @DF-RHF iter  11:  -157.29412587969466   -2.27374e-13   6.76481e-10 DIIS
   @DF-RHF iter  12:  -157.29412587969472   -5.68434e-14   1.44312e-10 DIIS
   @DF-RHF iter  13:  -157.29412587969438    3.41061e-13   2.44708e-11 DIIS

  ==> Post-Iterations <==

    Orbital Energies (a.u.)
    -----------------------

    Doubly Occupied:                                                      

       1A    -11.208144     2A    -11.207549     3A    -11.200046  
       4A    -11.199955     5A     -1.070929     6A     -0.981282  
       7A     -0.861708     8A     -0.794812     9A     -0.647839  
      10A     -0.587770    11A     -0.575460    12A     -0.570713  
      13A     -0.514847    14A     -0.503769    15A     -0.475850  
      16A     -0.468529    17A     -0.441422  

    Virtual:                                                              

      18A      0.233038    19A      0.265034    20A      0.288500  
      21A      0.299663    22A      0.324727    23A      0.340897  
      24A      0.345106    25A      0.345403    26A      0.360402  
      27A      0.366208    28A      0.418439    29A      0.418803  
      30A      0.433902    31A      0.697976    32A      0.709229  
      33A      0.747568    34A      0.751987    35A      0.758136  
      36A      0.844767    37A      0.856935    38A      0.931391  
      39A      0.954187    40A      1.030738    41A      1.067550  
      42A      1.101654    43A      1.154052    44A      1.188216  
      45A      1.206965    46A      1.214268    47A      1.219923  
      48A      1.228325    49A      1.243886    50A      1.252599  
      51A      1.261129    52A      1.296602    53A      1.303397  
      54A      1.635379    55A      1.707929    56A      1.712022  
      57A      1.715274    58A      1.926734    59A      1.934553  
      60A      2.156030    61A      2.196539    62A      2.220734  
      63A      2.294140    64A      2.304845    65A      2.344950  
      66A      2.394260    67A      2.545142    68A      2.622078  
      69A      2.635154    70A      2.662559    71A      2.750922  
      72A      2.755749    73A      2.763663    74A      2.887771  
      75A      3.004180    76A      3.117586    77A      4.580052  
      78A      4.687537    79A      4.800434    80A      4.951041  

    Final Occupation by Irrep:
              A 
    DOCC [    17 ]

  Energy converged.

  @DF-RHF Final Energy:  -157.29412587969438

   => Energetics <=

    Nuclear Repulsion Energy =            131.8173199090357457
    One-Electron Energy =                -471.6016427969228744
    Two-Electron Energy =                 182.4901970081927232
    DFT Exchange-Correlation Energy =       0.0000000000000000
    Empirical Dispersion Energy =           0.0000000000000000
    PCM Polarization Energy =               0.0000000000000000
    EFP Energy =                            0.0000000000000000
    Total Energy =                       -157.2941258796944055


  Saving occupied orbitals to File 180.

*** tstop() called on lski1497 at Mon Feb 20 17:20:38 2017
Module time:
	user time   =       4.69 seconds =       0.08 minutes
	system time =       0.15 seconds =       0.00 minutes
	total time  =          7 seconds =       0.12 minutes
Total time:
	user time   =       4.69 seconds =       0.08 minutes
	system time =       0.15 seconds =       0.00 minutes
	total time  =          7 seconds =       0.12 minutes


Properties will be evaluated at   0.000000,   0.000000,   0.000000 Bohr

Properties computed using the SCF density matrix

  Nuclear Dipole Moment: (a.u.)
     X:     0.0012      Y:     0.0015      Z:    -0.0008

  Electronic Dipole Moment: (a.u.)
     X:    -0.0011      Y:    -0.0022      Z:     0.0007

  Dipole Moment: (a.u.)
     X:     0.0000      Y:    -0.0006      Z:    -0.0001     Total:     0.0006

  Dipole Moment: (Debye)
     X:     0.0001      Y:    -0.0016      Z:    -0.0002     Total:     0.0016


  //>>>>>>>>>>>>>>>>>>>>>>>>>>>>>>>>>>>//
  //               DFMP2               //
  //<<<<<<<<<<<<<<<<<<<<<<<<<<<<<<<<<<<//


*** tstart() called on lski1497
*** at Mon Feb 20 17:20:38 2017


*** tstop() called on lski1497 at Mon Feb 20 17:20:39 2017
Module time:
	user time   =       0.52 seconds =       0.01 minutes
	system time =       0.01 seconds =       0.00 minutes
	total time  =          1 seconds =       0.02 minutes
Total time:
	user time   =       5.23 seconds =       0.09 minutes
	system time =       0.16 seconds =       0.00 minutes
	total time  =          8 seconds =       0.13 minutes
	 --------------------------------------------------------
	                          DF-MP2                         
	      2nd-Order Density-Fitted Moller-Plesset Theory     
	              RMP2 Wavefunction,   1 Threads             
	                                                         
	        Rob Parrish, Justin Turney, Andy Simmonett,      
	           Ed Hohenstein, and C. David Sherrill          
	 --------------------------------------------------------

   => Auxiliary Basis Set <=

  Basis Set: 
    Number of shells: 132
    Number of basis function: 364
    Number of Cartesian functions: 414
    Spherical Harmonics?: true
    Max angular momentum: 3

	 --------------------------------------------------------
	                 NBF =    80, NAUX =   364
	 --------------------------------------------------------
	   CLASS    FOCC     OCC    AOCC    AVIR     VIR    FVIR
	   PAIRS       0      17      17      63      63       0
	 --------------------------------------------------------

DGAS Warning! /src/lib/libfock/apps.cc:80 is not currently checking restricted

         ------------------------------------------------------------
                                     CPHF                           
                                  Rob Parrish                       
         ------------------------------------------------------------

  ==> Geometry <==

    Molecular point group: c1
    Full point group: C1

    Geometry (in Angstrom), charge = 0, multiplicity = 1:

       Center              X                  Y                   Z               Mass       
    ------------   -----------------  -----------------  -----------------  -----------------
           H         -2.312776029323     0.057965294236     0.314517352882     1.007825032070
           H         -2.171776029323     1.685965294236    -0.305482647118     1.007825032070
           H         -1.873776029323     0.321965294236    -1.355482647118     1.007825032070
           C         -1.774776029323     0.692965294236    -0.357482647118    12.000000000000
           H          0.252223970677     1.348965294236    -0.635482647118     1.007825032070
           H         -0.185776029323     1.085965294236     1.035517352882     1.007825032070
           C         -0.285776029323     0.713965294236     0.037517352882    12.000000000000
           H         -0.251776029323    -1.349034705764     0.634517352882     1.007825032070
           H          0.187223970677    -1.086034705764    -1.035482647118     1.007825032070
           C          0.286223970677    -0.714034705764    -0.037482647118    12.000000000000
           H          2.171223970677    -1.685034705764     0.305517352882     1.007825032070
           H          1.873223970677    -0.321034705764     1.355517352882     1.007825032070
           H          2.313223970677    -0.058034705764    -0.314482647118     1.007825032070
           C          1.774223970677    -0.693034705764     0.357517352882    12.000000000000

  Nuclear repulsion =  131.817319909035746
  Reference energy  = -157.294125879694377

  ==> Basis Set <==

  Basis Set: 6-31G(D)
    Number of shells: 44
    Number of basis function: 80
    Number of Cartesian functions: 80
    Spherical Harmonics?: false
    Max angular momentum: 2

  ==> CGRSolver (by Rob Parrish) <==

   Number of roots    =         1
   Preconditioning    =    JACOBI
   Convergence cutoff =     1E-06
   Maximum iterations =       100

  ==> CPHFRHamiltonian (by Rob Parrish) <== 

  ==> DFJK: Density-Fitted J/K Matrices <==

    J tasked:                  Yes
    K tasked:                  Yes
    wK tasked:                  No
    OpenMP threads:              1
    Integrals threads:           1
    Memory (MB):               715
    Algorithm:                Core
    Integral Cache:           NONE
    Schwarz Cutoff:          1E-12
    Fitting Condition:       1E-12

   => Auxiliary Basis Set <=

  Basis Set: 
    Number of shells: 186
    Number of basis function: 574
    Number of Cartesian functions: 574
    Spherical Harmonics?: false
    Max angular momentum: 3

  ==> CPHF Iterations <==

  => Iterations <=

             Iter  Converged  Remaining    Residual
  CGR           1          0          1   7.250E-02
  CGR           2          0          1   8.680E-03
  CGR           3          0          1   2.774E-03
  CGR           4          0          1   3.510E-04
  CGR           5          0          1   5.260E-05
  CGR           6          0          1   8.758E-06
  CGR           7          0          1   1.759E-06
  CGR           8          1          0   2.893E-07

    CGRSolver converged.

  ==> DFCorrGrad: Density-Fitted Correlated Gradients <==

    OpenMP threads:              1
    Integrals threads:           1
    Memory (MB):               715
    Schwarz Cutoff:          0E+00
    Fitting Condition:       1E-12

   => Auxiliary Basis Set <=

  Basis Set: 
    Number of shells: 186
    Number of basis function: 510
    Number of Cartesian functions: 574
    Spherical Harmonics?: true
    Max angular momentum: 3

	-----------------------------------------------------------
	 ==================> DF-MP2 Energies <==================== 
	-----------------------------------------------------------
	 Reference Energy          =    -157.2941258796943771 [Eh]
	 Singles Energy            =      -0.0000000000000000 [Eh]
	 Same-Spin Energy          =      -0.1243448366672573 [Eh]
	 Opposite-Spin Energy      =      -0.4201068722497081 [Eh]
	 Correlation Energy        =      -0.5444517089169654 [Eh]
	 Total Energy              =    -157.8385775886113436 [Eh]
	-----------------------------------------------------------
	 ================> DF-SCS-MP2 Energies <================== 
	-----------------------------------------------------------
	 SCS Same-Spin Scale       =       0.3333333333333333 [-]
	 SCS Opposite-Spin Scale   =       1.2000000000000000 [-]
	 SCS Same-Spin Energy      =      -0.0414482788890858 [Eh]
	 SCS Opposite-Spin Energy  =      -0.5041282466996497 [Eh]
	 SCS Correlation Energy    =      -0.5455765255887355 [Eh]
	 SCS Total Energy          =    -157.8397024052831057 [Eh]
	-----------------------------------------------------------


  -Total Gradient:
     Atom            X                  Y                   Z
    ------   -----------------  -----------------  -----------------
       1        0.010757358641     0.009260775215    -0.008969946518
       2        0.010414373299    -0.013619110331     0.000535489285
       3        0.004330694881     0.005594465038     0.015521551605
       4       -0.027114582738    -0.007475729873    -0.008619777718
       5       -0.010263594501    -0.011563368054     0.008543881900
       6       -0.003916940839    -0.007924670509    -0.015720238352
       7        0.024271909115     0.033269624145     0.012188235315
       8        0.010506144744     0.011830394466    -0.008863817823
       9        0.004004748637     0.007912902476     0.015813002883
      10       -0.024126480685    -0.033538294357    -0.011737269447
      11       -0.010669736184     0.014288197461    -0.000593842818
      12       -0.004334138020    -0.005434750701    -0.015312455360
      13       -0.010508249378    -0.009070826283     0.008776420124
      14        0.026648493029     0.006470391307     0.008438766924


			-----------------------------------------
			 OPTKING 2.0: for geometry optimizations 
			  - R.A. King,  Bethel University        
			-----------------------------------------

	Internal coordinates to be generated automatically.
	Detected frag 1 with atoms:  1 2 3 4 5 6 7 8 9 10 11 12 13 14
	---Fragment 1 Bond Connectivity---
	 1 : 4
	 2 : 4
	 3 : 4
	 4 : 1 2 3 7
	 5 : 7
	 6 : 7
	 7 : 4 5 6 10
	 8 : 10
	 9 : 10
	 10 : 7 8 9 14
	 11 : 14
	 12 : 14
	 13 : 14
	 14 : 10 11 12 13

	Assuming in current code that numbering for constraints corresponds to unified fragment.
	Fixed dihedral atom list: 
	     4     7    10    14
	---Fragment 1 Geometry and Gradient---
	 H          -4.3705133021        0.1095385313        0.5943516610
	 H          -4.1040619174        3.1860126757       -0.5772785414
	 H          -3.5409235298        0.6084262304       -2.5614909809
	 C          -3.3538406426        1.3095146257       -0.6755443003
	 H           0.4766342287        2.5491749689       -1.2008881653
	 H          -0.3510658175        2.0521769959        1.9568442028
	 C          -0.5400384308        1.3491988745        0.0708975222
	 H          -0.4757877422       -2.5493061377        1.1990640235
	 H           0.3538020301       -2.0523081647       -1.9567786184
	 C           0.5408849172       -1.3493300433       -0.0708319378
	 H           4.1030186777       -3.1842541183        0.5773441258
	 H           3.5398802901       -0.6066676730        2.5615565653
	 H           4.3713597886       -0.1096697001       -0.5942860766
	 C           3.3527974030       -1.3096457945        0.6756098847
	             0.0107573586        0.0092607752       -0.0089699465
	             0.0104143733       -0.0136191103        0.0005354893
	             0.0043306949        0.0055944650        0.0155215516
	            -0.0271145827       -0.0074757299       -0.0086197777
	            -0.0102635945       -0.0115633681        0.0085438819
	            -0.0039169408       -0.0079246705       -0.0157202384
	             0.0242719091        0.0332696241        0.0121882353
	             0.0105061447        0.0118303945       -0.0088638178
	             0.0040047486        0.0079129025        0.0158130029
	            -0.0241264807       -0.0335382944       -0.0117372694
	            -0.0106697362        0.0142881975       -0.0005938428
	            -0.0043341380       -0.0054347507       -0.0153124554
	            -0.0105082494       -0.0090708263        0.0087764201
	             0.0266484930        0.0064703913        0.0084387669

	Previous optimization step data not found.  Starting new optimization.

	---Fragment 1 Intrafragment Coordinates---
	 - Coordinate -           - BOHR/RAD -       - ANG/DEG -
	 R(1,4)           =         2.021436	       1.069698
	 R(2,4)           =         2.023298	       1.070683
	 R(3,4)           =         2.020723	       1.069320
	 R(4,7)           =         2.911397	       1.540645
	 R(5,7)           =         2.022623	       1.070326
	 R(6,7)           =         2.021555	       1.069761
	 R(7,10)          =         2.910419	       1.540128
	 R(8,10)          =         2.021436	       1.069698
	 R(9,10)          =         2.021379	       1.069668
	 R(10,14)         =         2.909571	       1.539679
	 R(11,14)         =         2.021545	       1.069756
	 R(12,14)         =         2.021379	       1.069668
	 R(13,14)         =         2.022387	       1.070201
	 B(1,4,2)         =         1.910870	     109.484805
	 B(1,4,3)         =         1.911121	     109.499161
	 B(1,4,7)         =         1.910399	     109.457783
	 B(2,4,3)         =         1.910042	     109.437340
	 B(2,4,7)         =         1.910564	     109.467262
	 B(3,4,7)         =         1.910803	     109.480971
	 B(4,7,5)         =         1.909937	     109.431343
	 B(4,7,6)         =         1.911630	     109.528316
	 B(4,7,10)        =         1.911154	     109.501062
	 B(5,7,6)         =         1.910605	     109.469614
	 B(5,7,10)        =         1.910047	     109.437654
	 B(6,7,10)        =         1.910425	     109.459295
	 B(7,10,8)        =         1.910303	     109.452301
	 B(7,10,9)        =         1.910824	     109.482155
	 B(7,10,14)       =         1.911120	     109.499137
	 B(8,10,9)        =         1.910417	     109.458846
	 B(8,10,14)       =         1.910274	     109.450639
	 B(9,10,14)       =         1.910860	     109.484229
	 B(10,14,11)      =         1.910851	     109.483671
	 B(10,14,12)      =         1.910860	     109.484229
	 B(10,14,13)      =         1.911066	     109.496002
	 B(11,14,12)      =         1.910809	     109.481276
	 B(11,14,13)      =         1.910054	     109.438058
	 B(12,14,13)      =         1.910159	     109.444072
	 D(1,4,7,5)       =         3.140997	     179.965873
	 D(1,4,7,6)       =        -1.047644	     -60.025575
	 D(1,4,7,10)      =         1.047427	      60.013132
	 D(2,4,7,5)       =        -1.047689	     -60.028143
	 D(2,4,7,6)       =         1.046856	      59.980409
	 D(2,4,7,10)      =        -3.141259	    -179.980883
	 D(3,4,7,5)       =         1.046044	      59.933911
	 D(3,4,7,6)       =         3.140588	     179.942463
	 D(3,4,7,10)      =        -1.047526	     -60.018830
	 D(4,7,10,8)      =        -1.047368	     -60.009777
	 D(4,7,10,9)      =         1.046677	      59.970178
	 D(4,7,10,14)     =        -3.141419	    -179.990072
	 D(5,7,10,8)      =        -3.140871	    -179.958653
	 D(5,7,10,9)      =        -1.046826	     -59.978698
	 D(5,7,10,14)     =         1.048263	      60.061052
	 D(6,7,10,8)      =         1.048439	      60.071149
	 D(6,7,10,9)      =        -3.140701	    -179.948896
	 D(6,7,10,14)     =        -1.045612	     -59.909147
	 D(7,10,14,11)    =         3.141408	     179.989437
	 D(7,10,14,12)    =         1.046526	      59.961519
	 D(7,10,14,13)    =        -1.047693	     -60.028376
	 D(8,10,14,11)    =         1.047339	      60.008125
	 D(8,10,14,12)    =        -1.047543	     -60.019793
	 D(8,10,14,13)    =         3.141424	     179.990311
	 D(9,10,14,11)    =        -1.046710	     -59.972082
	 D(9,10,14,12)    =         3.141593	     180.000000
	 D(9,10,14,13)    =         1.047374	      60.010105

	Current energy   :      -157.8385775886

	Generating empirical Hessian (Schlegel '84) for each fragment.
	Adding user-defined constraint: Fragment 1; Coordinate 49:
		Value =    -3.141419; Fixed value    =    -3.141575
		Force =    -0.000078; Force constant =     0.500000
	Removing off-diagonal coupling between coordinate 49 and others.
	Taking RFO optimization step.
	Going to follow RFO solution 1.
	Using RFO vector 1.

	Determining step-restricting scale parameter for RS-RFO.
	Maximum step size allowed    0.10000

	 Iter      |step|        alpha        rfo_root  
	------------------------------------------------
	    0     0.21512       1.00000           1
	    1     0.16066       7.59519           1
	    2     0.12517      21.38674           1
	    3     0.10655      37.01333           1
	    4     0.10063      44.31560           1
	    5     0.10001      45.17471           1
	------------------------------------------------
	Norm of target step-size    0.10001
	Projected energy change by RFO approximation:        -0.0055411547

	Back-transformation to cartesian coordinates...
	Could not converge backtransformation.
	Using first guess instead.

	--- Internal Coordinate Step in ANG or DEG, aJ/ANG or AJ/DEG ---
	 ---------------------------------------------------------------------------
	   Coordinate                Previous        Force       Change         New 
	   ----------                --------       ------       ------       ------
	    1 R(1,4)          =      1.069698     0.136292     0.013881     1.083579
	    2 R(2,4)          =      1.070683     0.135663     0.013815     1.084498
	    3 R(3,4)          =      1.069320     0.138644     0.014107     1.083427
	    4 R(4,7)          =      1.540645    -0.016774    -0.001929     1.538716
	    5 R(5,7)          =      1.070326     0.143284     0.014560     1.084887
	    6 R(6,7)          =      1.069761     0.146547     0.014875     1.084636
	    7 R(7,10)         =      1.540128    -0.033065    -0.003748     1.536379
	    8 R(8,10)         =      1.069698     0.147269     0.014947     1.084644
	    9 R(9,10)         =      1.069668     0.147276     0.014946     1.084614
	   10 R(10,14)        =      1.539679    -0.012516    -0.001424     1.538254
	   11 R(11,14)        =      1.069756     0.141545     0.014386     1.084142
	   12 R(12,14)        =      1.069668     0.136579     0.013909     1.083577
	   13 R(13,14)        =      1.070201     0.133348     0.013594     1.083795
	   14 B(1,4,2)        =    109.484805    -0.000298    -0.521950   108.962855
	   15 B(1,4,3)        =    109.499161    -0.000217    -0.407031   109.092131
	   16 B(1,4,7)        =    109.457783     0.000185     0.319846   109.777629
	   17 B(2,4,3)        =    109.437340    -0.000291    -0.508333   108.929008
	   18 B(2,4,7)        =    109.467262     0.000445     0.802850   110.270112
	   19 B(3,4,7)        =    109.480971     0.000175     0.302350   109.783321
	   20 B(4,7,5)        =    109.431343    -0.000152    -0.187359   109.243984
	   21 B(4,7,6)        =    109.528316    -0.000159    -0.203366   109.324951
	   22 B(4,7,10)       =    109.501062     0.000758     1.243310   110.744373
	   23 B(5,7,6)        =    109.469614    -0.000000    -0.161518   109.308095
	   24 B(5,7,10)       =    109.437654    -0.000224    -0.350177   109.087477
	   25 B(6,7,10)       =    109.459295    -0.000223    -0.347850   109.111444
	   26 B(7,10,8)       =    109.452301    -0.000225    -0.352537   109.099764
	   27 B(7,10,9)       =    109.482155    -0.000228    -0.358319   109.123837
	   28 B(7,10,14)      =    109.499137     0.000761     1.247528   110.746665
	   29 B(8,10,9)       =    109.458846     0.000001    -0.160027   109.298820
	   30 B(8,10,14)      =    109.450639    -0.000152    -0.187454   109.263185
	   31 B(9,10,14)      =    109.484229    -0.000156    -0.196281   109.287948
	   32 B(10,14,11)     =    109.483671     0.000446     0.803402   110.287073
	   33 B(10,14,12)     =    109.484229     0.000179     0.309799   109.794029
	   34 B(10,14,13)     =    109.496002     0.000176     0.304271   109.800273
	   35 B(11,14,12)     =    109.481276    -0.000296    -0.519385   108.961891
	   36 B(11,14,13)     =    109.438058    -0.000292    -0.511555   108.926504
	   37 B(12,14,13)     =    109.444072    -0.000213    -0.399840   109.044232
	   38 D(1,4,7,5)      =    179.965873     0.000017     0.161072   180.126945
	   39 D(1,4,7,6)      =    -60.025575    -0.000027    -0.273298   -60.298873
	   40 D(1,4,7,10)     =     60.013132    -0.000005    -0.058259    59.954873
	   41 D(2,4,7,5)      =    -60.028143     0.000022     0.216147   -59.811996
	   42 D(2,4,7,6)      =     59.980409    -0.000022    -0.218223    59.762186
	   43 D(2,4,7,10)     =   -179.980883    -0.000000    -0.003184  -179.984067
	   44 D(3,4,7,5)      =     59.933911     0.000027     0.276870    60.210780
	   45 D(3,4,7,6)      =    179.942463    -0.000017    -0.157501   179.784962
	   46 D(3,4,7,10)     =    -60.018830     0.000005     0.057538   -59.961291
	   47 D(4,7,10,8)     =    -60.009777     0.000032     0.316726   -59.693051
	   48 D(4,7,10,9)     =     59.970178    -0.000031    -0.306350    59.663828
	   49 D(4,7,10,14)    =   -179.990072    -0.000000    -0.001495  -179.991567
	   50 D(5,7,10,8)     =   -179.958653     0.000000     0.000138  -179.958514
	   51 D(5,7,10,9)     =    -59.978698    -0.000063    -0.622938   -60.601635
	   52 D(5,7,10,14)    =     60.061052    -0.000032    -0.318083    59.742969
	   53 D(6,7,10,8)     =     60.071149     0.000063     0.616825    60.687974
	   54 D(6,7,10,9)     =   -179.948896    -0.000001    -0.006251  -179.955147
	   55 D(6,7,10,14)    =    -59.909147     0.000030     0.298604   -59.610543
	   56 D(7,10,14,11)   =    179.989437     0.000000     0.002016   179.991454
	   57 D(7,10,14,12)   =     59.961519    -0.000005    -0.051028    59.910491
	   58 D(7,10,14,13)   =    -60.028376     0.000005     0.060941   -59.967436
	   59 D(8,10,14,11)   =     60.008125    -0.000022    -0.217704    59.790421
	   60 D(8,10,14,12)   =    -60.019793    -0.000027    -0.270749   -60.290542
	   61 D(8,10,14,13)   =    179.990311    -0.000017    -0.158780   179.831532
	   62 D(9,10,14,11)   =    -59.972082     0.000021     0.210291   -59.761791
	   63 D(9,10,14,12)   =    180.000000     0.000016     0.157246   180.157246
	   64 D(9,10,14,13)   =     60.010105     0.000026     0.269215    60.279320
	 ---------------------------------------------------------------------------
	 Forces used to impose fixed constraints are not included.
	  Forces zeroed: 49 

  ==> Convergence Check <==

  Measures of convergence in internal coordinates in au.
  Criteria marked as inactive (o), active & met (*), and active & unmet ( ).
  --------------------------------------------------------------------------------------------- ~
   Step     Total Energy     Delta E     MAX Force     RMS Force      MAX Disp      RMS Disp    ~
  --------------------------------------------------------------------------------------------- ~
    Convergence Criteria    1.00e-06 *    3.00e-04 *             o    1.20e-03 *             o  ~
  --------------------------------------------------------------------------------------------- ~
      1    -157.83857759   -1.58e+02      1.79e-02      7.31e-03 o    2.82e-02      1.25e-02 o  ~
  ---------------------------------------------------------------------------------------------

	Writing optimization data to binary file.
	Structure for next step:
	Cartesian Geometry (in Angstrom)
	    H    -2.3363030358   0.0596760958   0.3181436044
	    H    -2.1904033191   1.7031914382  -0.3076237796
	    H    -1.8925041949   0.3262156206  -1.3694424274
	    C    -1.7823622914   0.6996674125  -0.3583949143
	    H     0.2510587006   1.3532153597  -0.6466548689
	    H    -0.1926276257   1.0870807106   1.0456450995
	    C    -0.2946290424   0.7086273160   0.0343075852
	    H    -0.2510534505  -1.3532990764   0.6458869607
	    H     0.1936733458  -1.0868435243  -1.0457577019
	    C     0.2948527772  -0.7085044484  -0.0343183049
	    H     2.1902771780  -1.7027177525   0.3076592887
	    H     1.8924122932  -0.3253909213   1.3693535120
	    H     2.3366547905  -0.0597640965  -0.3180211032
	    C     1.7820894640  -0.6996400148   0.3584599901
			--------------------------
			 OPTKING Finished Execution 
			--------------------------

    Structure for next step:
    Molecular point group: c1
    Full point group: C1

    Geometry (in Angstrom), charge = 0, multiplicity = 1:

    H           -2.336313450015     0.059621381493     0.318146453824
    H           -2.190413733312     1.703136723868    -0.307620930084
    H           -1.892514609150     0.326160906300    -1.369439577968
    C           -1.782372705666     0.699612698250    -0.358392064823
    H            0.251048286419     1.353160645460    -0.646652019432
    H           -0.192638039903     1.087025996342     1.045647949004
    C           -0.294639456671     0.708572601724     0.034310434703
    H           -0.251063864749    -1.353353790653     0.645889810199
    H            0.193662931597    -1.086898238605    -1.045754852424
    C            0.294842362924    -0.708559162689    -0.034315455475
    H            2.190266763745    -1.702772466758     0.307662138137
    H            1.892401878963    -0.325445635550     1.369356361465
    H            2.336644376278    -0.059818810799    -0.318018253733
    C            1.782079049818    -0.699694729109     0.358462839544

gradient() will perform analytic gradient computation.
    SCF Algorithm Type (re)set to DF.

*** tstart() called on lski1497
*** at Mon Feb 20 17:21:01 2017


         ---------------------------------------------------------
                                   SCF
            by Justin Turney, Rob Parrish, and Andy Simmonett
                              RHF Reference
                        1 Threads,   1000 MiB Core
         ---------------------------------------------------------

  ==> Geometry <==

    Molecular point group: c1
    Full point group: C1

    Geometry (in Angstrom), charge = 0, multiplicity = 1:

       Center              X                  Y                   Z               Mass       
    ------------   -----------------  -----------------  -----------------  -----------------
           H         -2.336313450015     0.059621381493     0.318146453824     1.007825032070
           H         -2.190413733312     1.703136723868    -0.307620930084     1.007825032070
           H         -1.892514609150     0.326160906300    -1.369439577968     1.007825032070
           C         -1.782372705666     0.699612698250    -0.358392064823    12.000000000000
           H          0.251048286419     1.353160645460    -0.646652019432     1.007825032070
           H         -0.192638039903     1.087025996342     1.045647949004     1.007825032070
           C         -0.294639456671     0.708572601724     0.034310434703    12.000000000000
           H         -0.251063864749    -1.353353790653     0.645889810199     1.007825032070
           H          0.193662931597    -1.086898238605    -1.045754852424     1.007825032070
           C          0.294842362924    -0.708559162689    -0.034315455475    12.000000000000
           H          2.190266763745    -1.702772466758     0.307662138137     1.007825032070
           H          1.892401878963    -0.325445635550     1.369356361465     1.007825032070
           H          2.336644376278    -0.059818810799    -0.318018253733     1.007825032070
           C          1.782079049818    -0.699694729109     0.358462839544    12.000000000000

  Running in c1 symmetry.

  Rotational constants: A =      0.77075  B =      0.12295  C =      0.11516 [cm^-1]
  Rotational constants: A =  23106.40898  B =   3686.07594  C =   3452.37634 [MHz]
  Nuclear repulsion =  131.076919210584720

  Charge       = 0
  Multiplicity = 1
  Electrons    = 34
  Nalpha       = 17
  Nbeta        = 17

  ==> Algorithm <==

  SCF Algorithm Type is DF.
  DIIS enabled.
  MOM disabled.
  Fractional occupation disabled.
  Guess Type is READ.
  Energy threshold   = 1.00e-10
  Density threshold  = 1.00e-10
  Integral threshold = 0.00e+00

  ==> Primary Basis <==

  Basis Set: 6-31G(D)
    Number of shells: 44
    Number of basis function: 80
    Number of Cartesian functions: 80
    Spherical Harmonics?: false
    Max angular momentum: 2

  ==> Pre-Iterations <==

   -------------------------------------------------------
    Irrep   Nso     Nmo     Nalpha   Nbeta   Ndocc  Nsocc
   -------------------------------------------------------
     A         80      80       0       0       0       0
   -------------------------------------------------------
    Total      80      80      17      17      17       0
   -------------------------------------------------------

  ==> Integral Setup <==

  ==> DFJK: Density-Fitted J/K Matrices <==

    J tasked:                  Yes
    K tasked:                  Yes
    wK tasked:                  No
    OpenMP threads:              1
    Integrals threads:           1
    Memory (MB):               715
    Algorithm:                Core
    Integral Cache:           NONE
    Schwarz Cutoff:          1E-12
    Fitting Condition:       1E-12

   => Auxiliary Basis Set <=

  Basis Set: 
    Number of shells: 186
    Number of basis function: 574
    Number of Cartesian functions: 574
    Spherical Harmonics?: false
    Max angular momentum: 3

  Minimum eigenvalue in the overlap matrix is 4.5687038563E-03.
  Using Symmetric Orthogonalization.
  SCF Guess was Projection but file not found.
  Switching over to SAD guess.

  SCF Guess: Superposition of Atomic Densities via on-the-fly atomic UHF.

  ==> Iterations <==

                           Total Energy        Delta E     RMS |[F,P]|

   @DF-RHF iter   0:  -158.87988772454787   -1.58880e+02   4.66042e-02 
   @DF-RHF iter   1:  -157.20815767822523    1.67173e+00   3.92604e-03 
   @DF-RHF iter   2:  -157.28847549628074   -8.03178e-02   1.10687e-03 DIIS
   @DF-RHF iter   3:  -157.29655382332191   -8.07833e-03   2.61767e-04 DIIS
   @DF-RHF iter   4:  -157.29694101202767   -3.87189e-04   7.59394e-05 DIIS
   @DF-RHF iter   5:  -157.29697780653328   -3.67945e-05   1.26690e-05 DIIS
   @DF-RHF iter   6:  -157.29697903537533   -1.22884e-06   2.18829e-06 DIIS
   @DF-RHF iter   7:  -157.29697905952946   -2.41541e-08   7.15418e-07 DIIS
   @DF-RHF iter   8:  -157.29697906186220   -2.33274e-09   9.93785e-08 DIIS
   @DF-RHF iter   9:  -157.29697906194423   -8.20251e-11   2.12833e-08 DIIS
   @DF-RHF iter  10:  -157.29697906194781   -3.58114e-12   3.63928e-09 DIIS
   @DF-RHF iter  11:  -157.29697906194860   -7.95808e-13   6.57389e-10 DIIS
   @DF-RHF iter  12:  -157.29697906194826    3.41061e-13   1.39917e-10 DIIS
   @DF-RHF iter  13:  -157.29697906194826    0.00000e+00   2.26919e-11 DIIS

  ==> Post-Iterations <==

    Orbital Energies (a.u.)
    -----------------------

    Doubly Occupied:                                                      

       1A    -11.212875     2A    -11.212290     3A    -11.206110  
       4A    -11.206068     5A     -1.069058     6A     -0.978695  
       7A     -0.859126     8A     -0.788721     9A     -0.644131  
      10A     -0.584172    11A     -0.571582    12A     -0.570497  
      13A     -0.512705    14A     -0.500012    15A     -0.470471  
      16A     -0.465208    17A     -0.447443  

    Virtual:                                                              

      18A      0.231469    19A      0.262573    20A      0.284541  
      21A      0.296239    22A      0.321881    23A      0.339211  
      24A      0.340308    25A      0.340638    26A      0.356039  
      27A      0.359575    28A      0.417951    29A      0.418698  
      30A      0.435497    31A      0.699915    32A      0.705538  
      33A      0.752217    34A      0.752383    35A      0.761543  
      36A      0.847338    37A      0.863301    38A      0.928706  
      39A      0.955660    40A      1.026409    41A      1.064001  
      42A      1.106870    43A      1.141775    44A      1.173338  
      45A      1.192927    46A      1.200814    47A      1.207841  
      48A      1.213939    49A      1.235458    50A      1.236696  
      51A      1.245254    52A      1.278769    53A      1.295897  
      54A      1.625670    55A      1.700144    56A      1.708753  
      57A      1.717598    58A      1.921236    59A      1.933491  
      60A      2.157294    61A      2.203335    62A      2.206676  
      63A      2.288140    64A      2.295703    65A      2.339814  
      66A      2.392273    67A      2.519871    68A      2.603069  
      69A      2.614701    70A      2.645358    71A      2.732835  
      72A      2.741123    73A      2.752689    74A      2.887814  
      75A      3.010263    76A      3.111917    77A      4.568916  
      78A      4.678292    79A      4.795068    80A      4.944461  

    Final Occupation by Irrep:
              A 
    DOCC [    17 ]

  Energy converged.

  @DF-RHF Final Energy:  -157.29697906194826

   => Energetics <=

    Nuclear Repulsion Energy =            131.0769192105847196
    One-Electron Energy =                -470.1494688898560526
    Two-Electron Energy =                 181.7755706173229839
    DFT Exchange-Correlation Energy =       0.0000000000000000
    Empirical Dispersion Energy =           0.0000000000000000
    PCM Polarization Energy =               0.0000000000000000
    EFP Energy =                            0.0000000000000000
    Total Energy =                       -157.2969790619483490


  Saving occupied orbitals to File 180.

*** tstop() called on lski1497 at Mon Feb 20 17:21:09 2017
Module time:
	user time   =       4.75 seconds =       0.08 minutes
	system time =       0.14 seconds =       0.00 minutes
	total time  =          8 seconds =       0.13 minutes
Total time:
	user time   =      27.06 seconds =       0.45 minutes
	system time =       0.80 seconds =       0.01 minutes
	total time  =         38 seconds =       0.63 minutes


Properties will be evaluated at   0.000000,   0.000000,   0.000000 Bohr

Properties computed using the SCF density matrix

  Nuclear Dipole Moment: (a.u.)
     X:     0.0010      Y:     0.0008      Z:    -0.0007

  Electronic Dipole Moment: (a.u.)
     X:    -0.0010      Y:    -0.0010      Z:     0.0006

  Dipole Moment: (a.u.)
     X:     0.0000      Y:    -0.0002      Z:    -0.0001     Total:     0.0002

  Dipole Moment: (Debye)
     X:     0.0001      Y:    -0.0005      Z:    -0.0002     Total:     0.0006


  //>>>>>>>>>>>>>>>>>>>>>>>>>>>>>>>>>>>//
  //               DFMP2               //
  //<<<<<<<<<<<<<<<<<<<<<<<<<<<<<<<<<<<//


*** tstart() called on lski1497
*** at Mon Feb 20 17:21:09 2017


*** tstop() called on lski1497 at Mon Feb 20 17:21:09 2017
Module time:
	user time   =       0.51 seconds =       0.01 minutes
	system time =       0.00 seconds =       0.00 minutes
	total time  =          0 seconds =       0.00 minutes
Total time:
	user time   =      27.58 seconds =       0.46 minutes
	system time =       0.80 seconds =       0.01 minutes
	total time  =         38 seconds =       0.63 minutes
	 --------------------------------------------------------
	                          DF-MP2                         
	      2nd-Order Density-Fitted Moller-Plesset Theory     
	              RMP2 Wavefunction,   1 Threads             
	                                                         
	        Rob Parrish, Justin Turney, Andy Simmonett,      
	           Ed Hohenstein, and C. David Sherrill          
	 --------------------------------------------------------

   => Auxiliary Basis Set <=

  Basis Set: 
    Number of shells: 132
    Number of basis function: 364
    Number of Cartesian functions: 414
    Spherical Harmonics?: true
    Max angular momentum: 3

	 --------------------------------------------------------
	                 NBF =    80, NAUX =   364
	 --------------------------------------------------------
	   CLASS    FOCC     OCC    AOCC    AVIR     VIR    FVIR
	   PAIRS       0      17      17      63      63       0
	 --------------------------------------------------------

DGAS Warning! /src/lib/libfock/apps.cc:80 is not currently checking restricted

         ------------------------------------------------------------
                                     CPHF                           
                                  Rob Parrish                       
         ------------------------------------------------------------

  ==> Geometry <==

    Molecular point group: c1
    Full point group: C1

    Geometry (in Angstrom), charge = 0, multiplicity = 1:

       Center              X                  Y                   Z               Mass       
    ------------   -----------------  -----------------  -----------------  -----------------
           H         -2.336313450015     0.059621381493     0.318146453824     1.007825032070
           H         -2.190413733312     1.703136723868    -0.307620930084     1.007825032070
           H         -1.892514609150     0.326160906300    -1.369439577968     1.007825032070
           C         -1.782372705666     0.699612698250    -0.358392064823    12.000000000000
           H          0.251048286419     1.353160645460    -0.646652019432     1.007825032070
           H         -0.192638039903     1.087025996342     1.045647949004     1.007825032070
           C         -0.294639456671     0.708572601724     0.034310434703    12.000000000000
           H         -0.251063864749    -1.353353790653     0.645889810199     1.007825032070
           H          0.193662931597    -1.086898238605    -1.045754852424     1.007825032070
           C          0.294842362924    -0.708559162689    -0.034315455475    12.000000000000
           H          2.190266763745    -1.702772466758     0.307662138137     1.007825032070
           H          1.892401878963    -0.325445635550     1.369356361465     1.007825032070
           H          2.336644376278    -0.059818810799    -0.318018253733     1.007825032070
           C          1.782079049818    -0.699694729109     0.358462839544    12.000000000000

  Nuclear repulsion =  131.076919210584720
  Reference energy  = -157.296979061948264

  ==> Basis Set <==

  Basis Set: 6-31G(D)
    Number of shells: 44
    Number of basis function: 80
    Number of Cartesian functions: 80
    Spherical Harmonics?: false
    Max angular momentum: 2

  ==> CGRSolver (by Rob Parrish) <==

   Number of roots    =         1
   Preconditioning    =    JACOBI
   Convergence cutoff =     1E-06
   Maximum iterations =       100

  ==> CPHFRHamiltonian (by Rob Parrish) <== 

  ==> DFJK: Density-Fitted J/K Matrices <==

    J tasked:                  Yes
    K tasked:                  Yes
    wK tasked:                  No
    OpenMP threads:              1
    Integrals threads:           1
    Memory (MB):               715
    Algorithm:                Core
    Integral Cache:           NONE
    Schwarz Cutoff:          1E-12
    Fitting Condition:       1E-12

   => Auxiliary Basis Set <=

  Basis Set: 
    Number of shells: 186
    Number of basis function: 574
    Number of Cartesian functions: 574
    Spherical Harmonics?: false
    Max angular momentum: 3

  ==> CPHF Iterations <==

  => Iterations <=

             Iter  Converged  Remaining    Residual
  CGR           1          0          1   7.324E-02
  CGR           2          0          1   8.890E-03
  CGR           3          0          1   2.836E-03
  CGR           4          0          1   3.537E-04
  CGR           5          0          1   5.509E-05
  CGR           6          0          1   9.132E-06
  CGR           7          0          1   1.787E-06
  CGR           8          1          0   2.732E-07

    CGRSolver converged.

  ==> DFCorrGrad: Density-Fitted Correlated Gradients <==

    OpenMP threads:              1
    Integrals threads:           1
    Memory (MB):               715
    Schwarz Cutoff:          0E+00
    Fitting Condition:       1E-12

   => Auxiliary Basis Set <=

  Basis Set: 
    Number of shells: 186
    Number of basis function: 510
    Number of Cartesian functions: 574
    Spherical Harmonics?: true
    Max angular momentum: 3

	-----------------------------------------------------------
	 ==================> DF-MP2 Energies <==================== 
	-----------------------------------------------------------
	 Reference Energy          =    -157.2969790619482637 [Eh]
	 Singles Energy            =      -0.0000000000000000 [Eh]
	 Same-Spin Energy          =      -0.1243194854625134 [Eh]
	 Opposite-Spin Energy      =      -0.4214163602480706 [Eh]
	 Correlation Energy        =      -0.5457358457105840 [Eh]
	 Total Energy              =    -157.8427149076588591 [Eh]
	-----------------------------------------------------------
	 ================> DF-SCS-MP2 Energies <================== 
	-----------------------------------------------------------
	 SCS Same-Spin Scale       =       0.3333333333333333 [-]
	 SCS Opposite-Spin Scale   =       1.2000000000000000 [-]
	 SCS Same-Spin Energy      =      -0.0414398284875045 [Eh]
	 SCS Opposite-Spin Energy  =      -0.5056996322976847 [Eh]
	 SCS Correlation Energy    =      -0.5471394607851892 [Eh]
	 SCS Total Energy          =    -157.8441185227334529 [Eh]
	-----------------------------------------------------------


  -Total Gradient:
     Atom            X                  Y                   Z
    ------   -----------------  -----------------  -----------------
       1        0.005236446933     0.003559840734    -0.002864745442
       2        0.004930471873    -0.004699629487     0.000517468596
       3        0.002890997716     0.002253263353     0.006003621361
       4       -0.016139580347    -0.004337926818    -0.005068040502
       5       -0.004931979251    -0.005928677019     0.001659036735
       6       -0.002981950670    -0.004832631514    -0.005602840231
       7        0.015168592908     0.019357878292     0.007359696047
       8        0.005005351413     0.006012891851    -0.001788558359
       9        0.003046264329     0.004817285442     0.005633630964
      10       -0.015096977826    -0.019424589955    -0.007136596621
      11       -0.005000049753     0.004944839353    -0.000570486461
      12       -0.002878455773    -0.002149858651    -0.005941046336
      13       -0.005111252268    -0.003494436976     0.002819299026
      14        0.015862120717     0.003921751396     0.004979561225


			-----------------------------------------
			 OPTKING 2.0: for geometry optimizations 
			  - R.A. King,  Bethel University        
			-----------------------------------------

	Previous internal coordinate definitions found.
	---Fragment 1 Geometry and Gradient---
	 H          -4.4149925811        0.1126680827        0.6012096679
	 H          -4.1392820737        3.2184619750       -0.5813193106
	 H          -3.5763343138        0.6163547882       -2.5878657579
	 C          -3.3681962804        1.3220763988       -0.6772628507
	 H           0.4744125075        2.5571030337       -1.2219952200
	 H          -0.3640331382        2.0541814324        1.9759882550
	 C          -0.5567878811        1.3390081625        0.0648373251
	 H          -0.4744419462       -2.5574680252        1.2205548533
	 H           0.3659699028       -2.0539400053       -1.9761902732
	 C           0.5571713183       -1.3389827664       -0.0648468130
	 H           4.1390043414       -3.2177736288        0.5813971825
	 H           3.5761212846       -0.6150031223        2.5877085015
	 H           4.4156179411       -0.1130411700       -0.6009674048
	 C           3.3676413513       -1.3222314146        0.6773965956
	             0.0052364469        0.0035598407       -0.0028647454
	             0.0049304719       -0.0046996295        0.0005174686
	             0.0028909977        0.0022532634        0.0060036214
	            -0.0161395803       -0.0043379268       -0.0050680405
	            -0.0049319793       -0.0059286770        0.0016590367
	            -0.0029819507       -0.0048326315       -0.0056028402
	             0.0151685929        0.0193578783        0.0073596960
	             0.0050053514        0.0060128919       -0.0017885584
	             0.0030462643        0.0048172854        0.0056336310
	            -0.0150969778       -0.0194245900       -0.0071365966
	            -0.0050000498        0.0049448394       -0.0005704865
	            -0.0028784558       -0.0021498587       -0.0059410463
	            -0.0051112523       -0.0034944370        0.0028192990
	             0.0158621207        0.0039217514        0.0049795612

	---Fragment 1 Intrafragment Coordinates---
	 - Coordinate -           - BOHR/RAD -       - ANG/DEG -
	 R(1,4)           =         2.047668	       1.083579
	 R(2,4)           =         2.049404	       1.084498
	 R(3,4)           =         2.047381	       1.083427
	 R(4,7)           =         2.907751	       1.538716
	 R(5,7)           =         2.050138	       1.084887
	 R(6,7)           =         2.049665	       1.084636
	 R(7,10)          =         2.903336	       1.536379
	 R(8,10)          =         2.049680	       1.084644
	 R(9,10)          =         2.049623	       1.084614
	 R(10,14)         =         2.906879	       1.538254
	 R(11,14)         =         2.048731	       1.084142
	 R(12,14)         =         2.047664	       1.083577
	 R(13,14)         =         2.048075	       1.083795
	 B(1,4,2)         =         1.901761	     108.962855
	 B(1,4,3)         =         1.904017	     109.092131
	 B(1,4,7)         =         1.915981	     109.777629
	 B(2,4,3)         =         1.901170	     108.929008
	 B(2,4,7)         =         1.924577	     110.270112
	 B(3,4,7)         =         1.916080	     109.783321
	 B(4,7,5)         =         1.906667	     109.243984
	 B(4,7,6)         =         1.908080	     109.324951
	 B(4,7,10)        =         1.932854	     110.744373
	 B(5,7,6)         =         1.907786	     109.308095
	 B(5,7,10)        =         1.903936	     109.087477
	 B(6,7,10)        =         1.904354	     109.111444
	 B(7,10,8)        =         1.904150	     109.099764
	 B(7,10,9)        =         1.904570	     109.123837
	 B(7,10,14)       =         1.932894	     110.746665
	 B(8,10,9)        =         1.907624	     109.298820
	 B(8,10,14)       =         1.907002	     109.263185
	 B(9,10,14)       =         1.907435	     109.287948
	 B(10,14,11)      =         1.924873	     110.287073
	 B(10,14,12)      =         1.916267	     109.794029
	 B(10,14,13)      =         1.916376	     109.800273
	 B(11,14,12)      =         1.901744	     108.961891
	 B(11,14,13)      =         1.901126	     108.926504
	 B(12,14,13)      =         1.903181	     109.044232
	 D(1,4,7,5)       =        -3.139377	    -179.873055
	 D(1,4,7,6)       =        -1.052414	     -60.298873
	 D(1,4,7,10)      =         1.046410	      59.954873
	 D(2,4,7,5)       =        -1.043916	     -59.811996
	 D(2,4,7,6)       =         1.043047	      59.762186
	 D(2,4,7,10)      =        -3.141315	    -179.984067
	 D(3,4,7,5)       =         1.050876	      60.210780
	 D(3,4,7,6)       =         3.137840	     179.784962
	 D(3,4,7,10)      =        -1.046522	     -59.961291
	 D(4,7,10,8)      =        -1.041840	     -59.693051
	 D(4,7,10,9)      =         1.041330	      59.663828
	 D(4,7,10,14)     =        -3.141445	    -179.991567
	 D(5,7,10,8)      =        -3.140869	    -179.958514
	 D(5,7,10,9)      =        -1.057698	     -60.601635
	 D(5,7,10,14)     =         1.042712	      59.742969
	 D(6,7,10,8)      =         1.059205	      60.687974
	 D(6,7,10,9)      =        -3.140810	    -179.955147
	 D(6,7,10,14)     =        -1.040400	     -59.610543
	 D(7,10,14,11)    =         3.141443	     179.991454
	 D(7,10,14,12)    =         1.045635	      59.910491
	 D(7,10,14,13)    =        -1.046629	     -59.967436
	 D(8,10,14,11)    =         1.043540	      59.790421
	 D(8,10,14,12)    =        -1.052268	     -60.290542
	 D(8,10,14,13)    =         3.138652	     179.831532
	 D(9,10,14,11)    =        -1.043040	     -59.761791
	 D(9,10,14,12)    =        -3.138848	    -179.842754
	 D(9,10,14,13)    =         1.052073	      60.279320

	Current energy   :      -157.8427149077

	Energy change for the previous step:
		Projected    :        -0.0055411547
		Actual       :        -0.0041373190

	Performing BFGS update.
	Previous computed or guess Hessian on step 1.
	Steps to be used in Hessian update: 1
	Adding user-defined constraint: Fragment 1; Coordinate 49:
		Value =    -3.141445; Fixed value    =    -3.141580
		Force =    -0.000071; Force constant =     0.525000
	Removing off-diagonal coupling between coordinate 49 and others.
	Taking RFO optimization step.
	Going to follow RFO solution 1.
	Using RFO vector 1.

	Determining step-restricting scale parameter for RS-RFO.
	Maximum step size allowed    0.10000

	 Iter      |step|        alpha        rfo_root  
	------------------------------------------------
	    0     0.16620       1.00000           1
	    1     0.12717       9.87624           1
	    2     0.10758      19.94991           1
	    3     0.10088      25.26648           1
	    4     0.10001      26.05525           1
	    5     0.10000      26.06850           1
	------------------------------------------------
	Norm of target step-size    0.10000
	Projected energy change by RFO approximation:        -0.0016557886

	Back-transformation to cartesian coordinates...
	Successfully converged to displaced geometry.

	--- Internal Coordinate Step in ANG or DEG, aJ/ANG or AJ/DEG ---
	 ---------------------------------------------------------------------------
	   Coordinate                Previous        Force       Change         New 
	   ----------                --------       ------       ------       ------
	    1 R(1,4)          =      1.083579     0.054113     0.008352     1.091931
	    2 R(2,4)          =      1.084498     0.050911     0.007584     1.092082
	    3 R(3,4)          =      1.083427     0.054978     0.008472     1.091899
	    4 R(4,7)          =      1.538716    -0.027670    -0.007581     1.531134
	    5 R(5,7)          =      1.084887     0.058039     0.009041     1.093927
	    6 R(6,7)          =      1.084636     0.059243     0.009209     1.093845
	    7 R(7,10)         =      1.536379    -0.028372    -0.006857     1.529522
	    8 R(8,10)         =      1.084644     0.059445     0.009232     1.093876
	    9 R(9,10)         =      1.084614     0.059468     0.009237     1.093851
	   10 R(10,14)        =      1.538254    -0.025740    -0.007200     1.531055
	   11 R(11,14)        =      1.084142     0.052982     0.007868     1.092010
	   12 R(12,14)        =      1.083577     0.054196     0.008361     1.091938
	   13 R(13,14)        =      1.083795     0.053043     0.008201     1.091996
	   14 B(1,4,2)        =    108.962855    -0.000200    -0.727899   108.234956
	   15 B(1,4,3)        =    109.092131    -0.000181    -0.776399   108.315731
	   16 B(1,4,7)        =    109.777629     0.000159     0.649132   110.426761
	   17 B(2,4,3)        =    108.929008    -0.000195    -0.708415   108.220592
	   18 B(2,4,7)        =    110.270112     0.000253     0.865896   111.136008
	   19 B(3,4,7)        =    109.783321     0.000153     0.632247   110.415568
	   20 B(4,7,5)        =    109.243984    -0.000053     0.056141   109.300125
	   21 B(4,7,6)        =    109.324951    -0.000058     0.021005   109.345956
	   22 B(4,7,10)       =    110.744373     0.000388     1.254554   111.998926
	   23 B(5,7,6)        =    109.308095    -0.000083    -1.035144   108.272951
	   24 B(5,7,10)       =    109.087477    -0.000099    -0.173623   108.913854
	   25 B(6,7,10)       =    109.111444    -0.000099    -0.177293   108.934152
	   26 B(7,10,8)       =    109.099764    -0.000100    -0.175341   108.924422
	   27 B(7,10,9)       =    109.123837    -0.000102    -0.190031   108.933806
	   28 B(7,10,14)      =    110.746665     0.000388     1.253811   112.000476
	   29 B(8,10,9)       =    109.298820    -0.000082    -1.031955   108.266865
	   30 B(8,10,14)      =    109.263185    -0.000053     0.052011   109.315197
	   31 B(9,10,14)      =    109.287948    -0.000056     0.037023   109.324971
	   32 B(10,14,11)     =    110.287073     0.000253     0.857242   111.144315
	   33 B(10,14,12)     =    109.794029     0.000154     0.632004   110.426033
	   34 B(10,14,13)     =    109.800273     0.000152     0.626897   110.427170
	   35 B(11,14,12)     =    108.961891    -0.000198    -0.723777   108.238114
	   36 B(11,14,13)     =    108.926504    -0.000195    -0.706299   108.220204
	   37 B(12,14,13)     =    109.044232    -0.000177    -0.751427   108.292805
	   38 D(1,4,7,5)      =   -179.873055     0.000016     0.537030  -179.336025
	   39 D(1,4,7,6)      =    -60.298873    -0.000022    -0.674657   -60.973530
	   40 D(1,4,7,10)     =     59.954873    -0.000003    -0.081301    59.873573
	   41 D(2,4,7,5)      =    -59.811996     0.000019     0.606492   -59.205504
	   42 D(2,4,7,6)      =     59.762186    -0.000019    -0.605195    59.156991
	   43 D(2,4,7,10)     =   -179.984067    -0.000000    -0.011839  -179.995906
	   44 D(3,4,7,5)      =     60.210780     0.000023     0.688773    60.899554
	   45 D(3,4,7,6)      =    179.784962    -0.000016    -0.522914   179.262049
	   46 D(3,4,7,10)     =    -59.961291     0.000003     0.070443   -59.890849
	   47 D(4,7,10,8)     =    -59.693051     0.000026     0.742236   -58.950814
	   48 D(4,7,10,9)     =     59.663828    -0.000025    -0.715378    58.948450
	   49 D(4,7,10,14)    =   -179.991567    -0.000000    -0.000295  -179.991862
	   50 D(5,7,10,8)     =   -179.958514    -0.000000    -0.006265  -179.964780
	   51 D(5,7,10,9)     =    -60.601635    -0.000050    -1.463880   -62.065516
	   52 D(5,7,10,14)    =     59.742969    -0.000026    -0.748797    58.994172
	   53 D(6,7,10,8)     =     60.687974     0.000050     1.446497    62.134470
	   54 D(6,7,10,9)     =   -179.955147    -0.000000    -0.011118  -179.966266
	   55 D(6,7,10,14)    =    -59.610543     0.000024     0.703965   -58.906578
	   56 D(7,10,14,11)   =    179.991454     0.000000     0.003719   179.995173
	   57 D(7,10,14,12)   =     59.910491    -0.000003    -0.054766    59.855725
	   58 D(7,10,14,13)   =    -59.967436     0.000003     0.080308   -59.887128
	   59 D(8,10,14,11)   =     59.790421    -0.000019    -0.610194    59.180227
	   60 D(8,10,14,12)   =    -60.290542    -0.000022    -0.668679   -60.959221
	   61 D(8,10,14,13)   =    179.831532    -0.000016    -0.533605   179.297926
	   62 D(9,10,14,11)   =    -59.761791     0.000019     0.590367   -59.171424
	   63 D(9,10,14,12)   =   -179.842754     0.000016     0.531882  -179.310872
	   64 D(9,10,14,13)   =     60.279320     0.000022     0.666956    60.946275
	 ---------------------------------------------------------------------------
	 Forces used to impose fixed constraints are not included.
	  Forces zeroed: 49 

  ==> Convergence Check <==

  Measures of convergence in internal coordinates in au.
  Criteria marked as inactive (o), active & met (*), and active & unmet ( ).
  ---------------------------------------------------------------------------------------------
   Step     Total Energy     Delta E     MAX Force     RMS Force      MAX Disp      RMS Disp   
  ---------------------------------------------------------------------------------------------
    Convergence Criteria    1.00e-06 *    3.00e-04 *             o    1.20e-03 *             o
  ---------------------------------------------------------------------------------------------
      2    -157.84271491   -4.14e-03      7.22e-03      3.23e-03 o    2.55e-02      1.25e-02 o  ~
  ---------------------------------------------------------------------------------------------

	Writing optimization data to binary file.
	Structure for next step:
	Cartesian Geometry (in Angstrom)
	    H    -2.3566897440   0.0524156503   0.3143015711
	    H    -2.2102208690   1.7006681230  -0.3126385737
	    H    -1.9114812359   0.3200114288  -1.3780618964
	    C    -1.7870627603   0.6950229701  -0.3601567957
	    H     0.2441226415   1.3576202938  -0.6491147706
	    H    -0.2008315074   1.0905405068   1.0462388071
	    C    -0.3064657194   0.7000445869   0.0299457375
	    H    -0.2442600664  -1.3578146173   0.6484896517
	    H     0.2014810150  -1.0902120025  -1.0464647461
	    C     0.3065800298  -0.6999620308  -0.0300159490
	    H     2.2102926828  -1.7005459801   0.3127855416
	    H     1.9116114716  -0.3194969184   1.3779965797
	    H     2.3568627944  -0.0525318354  -0.3142753501
	    C     1.7870510575  -0.6950120557   0.3602530260
			--------------------------
			 OPTKING Finished Execution 
			--------------------------

    Structure for next step:
    Molecular point group: c1
    Full point group: C1

    Geometry (in Angstrom), charge = 0, multiplicity = 1:

    H           -2.356726339727     0.052384977569     0.314309091587
    H           -2.210257464757     1.700637450281    -0.312631053241
    H           -1.911517831607     0.319980756161    -1.378054375885
    C           -1.787099356001     0.694992297369    -0.360149275237
    H            0.244086045758     1.357589621065    -0.649107250132
    H           -0.200868103100     1.090509834152     1.046246327545
    C           -0.306502315108     0.700013914173     0.029953257937
    H           -0.244296662167    -1.357845290021     0.648497172166
    H            0.201444419248    -1.090242675207    -1.046457225594
    C            0.306543434057    -0.699992703505    -0.030008428498
    H            2.210256087075    -1.700576652833     0.312793062111
    H            1.911574875817    -0.319527591100     1.378004100172
    H            2.356826198607    -0.052562508058    -0.314267829641
    C            1.787014461740    -0.695042728413     0.360260546454

gradient() will perform analytic gradient computation.
    SCF Algorithm Type (re)set to DF.

*** tstart() called on lski1497
*** at Mon Feb 20 17:21:32 2017


         ---------------------------------------------------------
                                   SCF
            by Justin Turney, Rob Parrish, and Andy Simmonett
                              RHF Reference
                        1 Threads,   1000 MiB Core
         ---------------------------------------------------------

  ==> Geometry <==

    Molecular point group: c1
    Full point group: C1

    Geometry (in Angstrom), charge = 0, multiplicity = 1:

       Center              X                  Y                   Z               Mass       
    ------------   -----------------  -----------------  -----------------  -----------------
           H         -2.356726339727     0.052384977569     0.314309091587     1.007825032070
           H         -2.210257464757     1.700637450281    -0.312631053241     1.007825032070
           H         -1.911517831607     0.319980756161    -1.378054375885     1.007825032070
           C         -1.787099356001     0.694992297369    -0.360149275237    12.000000000000
           H          0.244086045758     1.357589621065    -0.649107250132     1.007825032070
           H         -0.200868103100     1.090509834152     1.046246327545     1.007825032070
           C         -0.306502315108     0.700013914173     0.029953257937    12.000000000000
           H         -0.244296662167    -1.357845290021     0.648497172166     1.007825032070
           H          0.201444419248    -1.090242675207    -1.046457225594     1.007825032070
           C          0.306543434057    -0.699992703505    -0.030008428498    12.000000000000
           H          2.210256087075    -1.700576652833     0.312793062111     1.007825032070
           H          1.911574875817    -0.319527591100     1.378004100172     1.007825032070
           H          2.356826198607    -0.052562508058    -0.314267829641     1.007825032070
           C          1.787014461740    -0.695042728413     0.360260546454    12.000000000000

  Running in c1 symmetry.

  Rotational constants: A =      0.77753  B =      0.12209  C =      0.11460 [cm^-1]
  Rotational constants: A =  23309.63502  B =   3660.14195  C =   3435.49138 [MHz]
  Nuclear repulsion =  130.811397240046546

  Charge       = 0
  Multiplicity = 1
  Electrons    = 34
  Nalpha       = 17
  Nbeta        = 17

  ==> Algorithm <==

  SCF Algorithm Type is DF.
  DIIS enabled.
  MOM disabled.
  Fractional occupation disabled.
  Guess Type is READ.
  Energy threshold   = 1.00e-10
  Density threshold  = 1.00e-10
  Integral threshold = 0.00e+00

  ==> Primary Basis <==

  Basis Set: 6-31G(D)
    Number of shells: 44
    Number of basis function: 80
    Number of Cartesian functions: 80
    Spherical Harmonics?: false
    Max angular momentum: 2

  ==> Pre-Iterations <==

   -------------------------------------------------------
    Irrep   Nso     Nmo     Nalpha   Nbeta   Ndocc  Nsocc
   -------------------------------------------------------
     A         80      80       0       0       0       0
   -------------------------------------------------------
    Total      80      80      17      17      17       0
   -------------------------------------------------------

  ==> Integral Setup <==

  ==> DFJK: Density-Fitted J/K Matrices <==

    J tasked:                  Yes
    K tasked:                  Yes
    wK tasked:                  No
    OpenMP threads:              1
    Integrals threads:           1
    Memory (MB):               715
    Algorithm:                Core
    Integral Cache:           NONE
    Schwarz Cutoff:          1E-12
    Fitting Condition:       1E-12

   => Auxiliary Basis Set <=

  Basis Set: 
    Number of shells: 186
    Number of basis function: 574
    Number of Cartesian functions: 574
    Spherical Harmonics?: false
    Max angular momentum: 3

  Minimum eigenvalue in the overlap matrix is 4.5749543220E-03.
  Using Symmetric Orthogonalization.
  SCF Guess was Projection but file not found.
  Switching over to SAD guess.

  SCF Guess: Superposition of Atomic Densities via on-the-fly atomic UHF.

  ==> Iterations <==

                           Total Energy        Delta E     RMS |[F,P]|

   @DF-RHF iter   0:  -158.85572308516291   -1.58856e+02   4.63755e-02 
   @DF-RHF iter   1:  -157.20852257118210    1.64720e+00   3.91659e-03 
   @DF-RHF iter   2:  -157.28908082905102   -8.05583e-02   1.11674e-03 DIIS
   @DF-RHF iter   3:  -157.29726375260535   -8.18292e-03   2.77035e-04 DIIS
   @DF-RHF iter   4:  -157.29768801323010   -4.24261e-04   7.67120e-05 DIIS
   @DF-RHF iter   5:  -157.29772728719840   -3.92740e-05   1.23048e-05 DIIS
   @DF-RHF iter   6:  -157.29772849694811   -1.20975e-06   1.52308e-06 DIIS
   @DF-RHF iter   7:  -157.29772851404473   -1.70966e-08   3.24769e-07 DIIS
   @DF-RHF iter   8:  -157.29772851458321   -5.38478e-10   1.06313e-07 DIIS
   @DF-RHF iter   9:  -157.29772851464557   -6.23572e-11   2.14790e-08 DIIS
   @DF-RHF iter  10:  -157.29772851464926   -3.69482e-12   3.45815e-09 DIIS
   @DF-RHF iter  11:  -157.29772851464921    5.68434e-14   6.02354e-10 DIIS
   @DF-RHF iter  12:  -157.29772851464881    3.97904e-13   1.26963e-10 DIIS
   @DF-RHF iter  13:  -157.29772851464949   -6.82121e-13   2.10245e-11 DIIS

  ==> Post-Iterations <==

    Orbital Energies (a.u.)
    -----------------------

    Doubly Occupied:                                                      

       1A    -11.215277     2A    -11.214682     3A    -11.209430  
       4A    -11.209423     5A     -1.069661     6A     -0.978654  
       7A     -0.858737     8A     -0.785773     9A     -0.641119  
      10A     -0.582854    11A     -0.572526    12A     -0.568514  
      13A     -0.512482    14A     -0.496434    15A     -0.465500  
      16A     -0.464847    17A     -0.453052  

    Virtual:                                                              

      18A      0.231146    19A      0.261275    20A      0.282054  
      21A      0.293515    22A      0.320454    23A      0.336719  
      24A      0.337756    25A      0.338830    26A      0.353196  
      27A      0.354278    28A      0.419455    29A      0.421468  
      30A      0.439817    31A      0.700735    32A      0.702014  
      33A      0.753196    34A      0.755213    35A      0.762110  
      36A      0.849860    37A      0.868241    38A      0.930711  
      39A      0.961475    40A      1.025088    41A      1.061730  
      42A      1.111319    43A      1.132892    44A      1.167217  
      45A      1.184502    46A      1.190869    47A      1.201448  
      48A      1.203235    49A      1.227961    50A      1.229922  
      51A      1.237610    52A      1.269097    53A      1.289675  
      54A      1.620690    55A      1.697174    56A      1.706402  
      57A      1.725266    58A      1.916608    59A      1.930789  
      60A      2.153618    61A      2.196792    62A      2.216240  
      63A      2.280432    64A      2.289300    65A      2.339021  
      66A      2.389679    67A      2.502628    68A      2.595177  
      69A      2.603746    70A      2.638773    71A      2.728729  
      72A      2.741499    73A      2.750475    74A      2.893057  
      75A      3.023743    76A      3.109838    77A      4.565196  
      78A      4.673415    79A      4.792127    80A      4.942152  

    Final Occupation by Irrep:
              A 
    DOCC [    17 ]

  Energy converged.

  @DF-RHF Final Energy:  -157.29772851464949

   => Energetics <=

    Nuclear Repulsion Energy =            130.8113972400465457
    One-Electron Energy =                -469.6203289228342328
    Two-Electron Energy =                 181.5112031681383939
    DFT Exchange-Correlation Energy =       0.0000000000000000
    Empirical Dispersion Energy =           0.0000000000000000
    PCM Polarization Energy =               0.0000000000000000
    EFP Energy =                            0.0000000000000000
    Total Energy =                       -157.2977285146493216


  Saving occupied orbitals to File 180.

*** tstop() called on lski1497 at Mon Feb 20 17:21:39 2017
Module time:
	user time   =       4.80 seconds =       0.08 minutes
	system time =       0.16 seconds =       0.00 minutes
	total time  =          7 seconds =       0.12 minutes
Total time:
	user time   =      49.53 seconds =       0.83 minutes
	system time =       1.43 seconds =       0.02 minutes
	total time  =         68 seconds =       1.13 minutes


Properties will be evaluated at   0.000000,   0.000000,   0.000000 Bohr

Properties computed using the SCF density matrix

  Nuclear Dipole Moment: (a.u.)
     X:     0.0005      Y:     0.0003      Z:    -0.0006

  Electronic Dipole Moment: (a.u.)
     X:    -0.0005      Y:    -0.0003      Z:     0.0006

  Dipole Moment: (a.u.)
     X:     0.0000      Y:    -0.0000      Z:    -0.0001     Total:     0.0001

  Dipole Moment: (Debye)
     X:     0.0000      Y:    -0.0000      Z:    -0.0002     Total:     0.0002


  //>>>>>>>>>>>>>>>>>>>>>>>>>>>>>>>>>>>//
  //               DFMP2               //
  //<<<<<<<<<<<<<<<<<<<<<<<<<<<<<<<<<<<//


*** tstart() called on lski1497
*** at Mon Feb 20 17:21:39 2017


*** tstop() called on lski1497 at Mon Feb 20 17:21:40 2017
Module time:
	user time   =       0.53 seconds =       0.01 minutes
	system time =       0.00 seconds =       0.00 minutes
	total time  =          1 seconds =       0.02 minutes
Total time:
	user time   =      50.07 seconds =       0.83 minutes
	system time =       1.43 seconds =       0.02 minutes
	total time  =         69 seconds =       1.15 minutes
	 --------------------------------------------------------
	                          DF-MP2                         
	      2nd-Order Density-Fitted Moller-Plesset Theory     
	              RMP2 Wavefunction,   1 Threads             
	                                                         
	        Rob Parrish, Justin Turney, Andy Simmonett,      
	           Ed Hohenstein, and C. David Sherrill          
	 --------------------------------------------------------

   => Auxiliary Basis Set <=

  Basis Set: 
    Number of shells: 132
    Number of basis function: 364
    Number of Cartesian functions: 414
    Spherical Harmonics?: true
    Max angular momentum: 3

	 --------------------------------------------------------
	                 NBF =    80, NAUX =   364
	 --------------------------------------------------------
	   CLASS    FOCC     OCC    AOCC    AVIR     VIR    FVIR
	   PAIRS       0      17      17      63      63       0
	 --------------------------------------------------------

DGAS Warning! /src/lib/libfock/apps.cc:80 is not currently checking restricted

         ------------------------------------------------------------
                                     CPHF                           
                                  Rob Parrish                       
         ------------------------------------------------------------

  ==> Geometry <==

    Molecular point group: c1
    Full point group: C1

    Geometry (in Angstrom), charge = 0, multiplicity = 1:

       Center              X                  Y                   Z               Mass       
    ------------   -----------------  -----------------  -----------------  -----------------
           H         -2.356726339727     0.052384977569     0.314309091587     1.007825032070
           H         -2.210257464757     1.700637450281    -0.312631053241     1.007825032070
           H         -1.911517831607     0.319980756161    -1.378054375885     1.007825032070
           C         -1.787099356001     0.694992297369    -0.360149275237    12.000000000000
           H          0.244086045758     1.357589621065    -0.649107250132     1.007825032070
           H         -0.200868103100     1.090509834152     1.046246327545     1.007825032070
           C         -0.306502315108     0.700013914173     0.029953257937    12.000000000000
           H         -0.244296662167    -1.357845290021     0.648497172166     1.007825032070
           H          0.201444419248    -1.090242675207    -1.046457225594     1.007825032070
           C          0.306543434057    -0.699992703505    -0.030008428498    12.000000000000
           H          2.210256087075    -1.700576652833     0.312793062111     1.007825032070
           H          1.911574875817    -0.319527591100     1.378004100172     1.007825032070
           H          2.356826198607    -0.052562508058    -0.314267829641     1.007825032070
           C          1.787014461740    -0.695042728413     0.360260546454    12.000000000000

  Nuclear repulsion =  130.811397240046546
  Reference energy  = -157.297728514649492

  ==> Basis Set <==

  Basis Set: 6-31G(D)
    Number of shells: 44
    Number of basis function: 80
    Number of Cartesian functions: 80
    Spherical Harmonics?: false
[...]
    wK tasked:                  No
    OpenMP threads:              1
    Integrals threads:           1
    Memory (MB):               715
    Algorithm:                Core
    Integral Cache:           NONE
    Schwarz Cutoff:          1E-12
    Fitting Condition:       1E-12

   => Auxiliary Basis Set <=

  Basis Set: 
    Number of shells: 186
    Number of basis function: 574
    Number of Cartesian functions: 574
    Spherical Harmonics?: false
    Max angular momentum: 3

  ==> CPHF Iterations <==

  => Iterations <=

             Iter  Converged  Remaining    Residual
  CGR           1          0          1   7.501E-02
  CGR           2          0          1   9.314E-03
  CGR           3          0          1   2.938E-03
  CGR           4          0          1   3.556E-04
  CGR           5          0          1   5.906E-05
  CGR           6          0          1   9.316E-06
  CGR           7          0          1   1.843E-06
  CGR           8          1          0   2.458E-07

    CGRSolver converged.

  ==> DFCorrGrad: Density-Fitted Correlated Gradients <==

    OpenMP threads:              1
    Integrals threads:           1
    Memory (MB):               715
    Schwarz Cutoff:          0E+00
    Fitting Condition:       1E-12

   => Auxiliary Basis Set <=

  Basis Set: 
    Number of shells: 186
    Number of basis function: 510
    Number of Cartesian functions: 574
    Spherical Harmonics?: true
    Max angular momentum: 3

	-----------------------------------------------------------
	 ==================> DF-MP2 Energies <==================== 
	-----------------------------------------------------------
	 Reference Energy          =    -157.2978879055135621 [Eh]
	 Singles Energy            =      -0.0000000000000000 [Eh]
	 Same-Spin Energy          =      -0.1244475942147441 [Eh]
	 Opposite-Spin Energy      =      -0.4221956770378366 [Eh]
	 Correlation Energy        =      -0.5466432712525806 [Eh]
	 Total Energy              =    -157.8445311767661394 [Eh]
	-----------------------------------------------------------
	 ================> DF-SCS-MP2 Energies <================== 
	-----------------------------------------------------------
	 SCS Same-Spin Scale       =       0.3333333333333333 [-]
	 SCS Opposite-Spin Scale   =       1.2000000000000000 [-]
	 SCS Same-Spin Energy      =      -0.0414825314049147 [Eh]
	 SCS Opposite-Spin Energy  =      -0.5066348124454039 [Eh]
	 SCS Correlation Energy    =      -0.5481173438503185 [Eh]
	 SCS Total Energy          =    -157.8460052493638841 [Eh]
	-----------------------------------------------------------


  -Total Gradient:
     Atom            X                  Y                   Z
    ------   -----------------  -----------------  -----------------
       1       -0.000037007588    -0.000043642254     0.000049837287
       2       -0.000005655569     0.000074273473     0.000010143569
       3       -0.000006115131    -0.000026060200    -0.000074936614
       4        0.000136620289    -0.000066349799     0.000025868731
       5        0.000018578823    -0.000001397922    -0.000040676240
       6       -0.000000285532    -0.000011791291     0.000044046989
       7       -0.000005126615     0.000018364963     0.000006407599
       8       -0.000021149538     0.000000305492     0.000040811282
       9        0.000002574848     0.000011677731    -0.000045235544
      10        0.000001950184    -0.000017085260    -0.000004124727
      11        0.000007013853    -0.000078336165    -0.000010256237
      12        0.000004950393     0.000024837861     0.000072560251
      13        0.000035439040     0.000042843329    -0.000049231295
      14       -0.000131787459     0.000072360041    -0.000025215052


			-----------------------------------------
			 OPTKING 2.0: for geometry optimizations 
			  - R.A. King,  Bethel University        
			-----------------------------------------

	Previous internal coordinate definitions found.
	---Fragment 1 Geometry and Gradient---
	 H          -4.4723673310        0.1027240267        0.5870733088
	 H          -4.1831595698        3.2161804103       -0.5924027317
	 H          -3.6327529178        0.6065411943       -2.6061817896
	 C          -3.3773676452        1.3150570668       -0.6804855724
	 H           0.4614179773        2.5805253653       -1.2063901881
	 H          -0.3724396942        2.0800035459        1.9652623969
	 C          -0.5911343051        1.3130396075        0.0517914013
	 H          -0.4614875078       -2.5805606141        1.2062433199
	 H           0.3725687931       -2.0799389455       -1.9653517778
	 C           0.5911415228       -1.3130331161       -0.0518403075
	 H           4.1831737798       -3.2161860067        0.5923758283
	 H           3.6326657710       -0.6066530000        2.6062740403
	 H           4.4723715074       -0.1026507253       -0.5869287705
	 C           3.3773611996       -1.3150623195        0.6805366927
	            -0.0000370076       -0.0000436423        0.0000498373
	            -0.0000056556        0.0000742735        0.0000101436
	            -0.0000061151       -0.0000260602       -0.0000749366
	             0.0001366203       -0.0000663498        0.0000258687
	             0.0000185788       -0.0000013979       -0.0000406762
	            -0.0000002855       -0.0000117913        0.0000440470
	            -0.0000051266        0.0000183650        0.0000064076
	            -0.0000211495        0.0000003055        0.0000408113
	             0.0000025748        0.0000116777       -0.0000452355
	             0.0000019502       -0.0000170853       -0.0000041247
	             0.0000070139       -0.0000783362       -0.0000102562
	             0.0000049504        0.0000248379        0.0000725603
	             0.0000354390        0.0000428433       -0.0000492313
	            -0.0001317875        0.0000723600       -0.0000252151

	---Fragment 1 Intrafragment Coordinates---
	 - Coordinate -           - BOHR/RAD -       - ANG/DEG -
	 R(1,4)           =         2.067724	       1.094192
	 R(2,4)           =         2.066719	       1.093661
	 R(3,4)           =         2.067734	       1.094198
	 R(4,7)           =         2.880856	       1.524483
	 R(5,7)           =         2.073019	       1.096994
	 R(6,7)           =         2.073025	       1.096998
	 R(7,10)          =         2.881800	       1.524983
	 R(8,10)          =         2.073024	       1.096997
	 R(9,10)          =         2.073028	       1.096999
	 R(10,14)         =         2.880868	       1.524490
	 R(11,14)         =         2.066731	       1.093667
	 R(12,14)         =         2.067725	       1.094193
	 R(13,14)         =         2.067718	       1.094189
	 B(1,4,2)         =         1.882557	     107.862573
	 B(1,4,3)         =         1.880318	     107.734263
	 B(1,4,7)         =         1.934717	     110.851131
	 B(2,4,3)         =         1.882557	     107.862582
	 B(2,4,7)         =         1.946464	     111.524200
	 B(3,4,7)         =         1.934716	     110.851046
	 B(4,7,5)         =         1.913845	     109.655228
	 B(4,7,6)         =         1.913882	     109.657368
	 B(4,7,10)        =         1.969559	     112.847419
	 B(5,7,6)         =         1.855054	     106.286775
	 B(5,7,10)        =         1.903961	     109.088904
	 B(6,7,10)        =         1.903982	     109.090134
	 B(7,10,8)        =         1.903965	     109.089150
	 B(7,10,9)        =         1.903981	     109.090061
	 B(7,10,14)       =         1.969558	     112.847349
	 B(8,10,9)        =         1.855057	     106.286941
	 B(8,10,14)       =         1.913866	     109.656419
	 B(9,10,14)       =         1.913857	     109.655923
	 B(10,14,11)      =         1.946461	     111.524006
	 B(10,14,12)      =         1.934713	     110.850899
	 B(10,14,13)      =         1.934706	     110.850499
	 B(11,14,12)      =         1.882559	     107.862709
	 B(11,14,13)      =         1.882563	     107.862911
	 B(12,14,13)      =         1.880327	     107.734826
	 D(1,4,7,5)       =        -3.113222	    -178.374471
	 D(1,4,7,6)       =        -1.082578	     -62.027129
	 D(1,4,7,10)      =         1.043720	      59.800756
	 D(2,4,7,5)       =        -1.015292	     -58.171944
	 D(2,4,7,6)       =         1.015352	      58.175398
	 D(2,4,7,10)      =        -3.141535	    -179.996717
	 D(3,4,7,5)       =         1.082637	      62.030537
	 D(3,4,7,6)       =         3.113281	     178.377879
	 D(3,4,7,10)      =        -1.043606	     -59.794236
	 D(4,7,10,8)      =        -1.009717	     -57.852537
	 D(4,7,10,9)      =         1.009793	      57.856873
	 D(4,7,10,14)     =        -3.141555	    -179.997824
	 D(5,7,10,8)      =        -3.141526	    -179.996173
	 D(5,7,10,9)      =        -1.122016	     -64.286763
	 D(5,7,10,14)     =         1.009822	      57.858541
	 D(6,7,10,8)      =         1.122154	      64.294711
	 D(6,7,10,9)      =        -3.141521	    -179.995879
	 D(6,7,10,14)     =        -1.009683	     -57.850576
	 D(7,10,14,11)    =         3.141576	     179.999039
	 D(7,10,14,12)    =         1.043648	      59.796626
	 D(7,10,14,13)    =        -1.043682	     -59.798563
	 D(8,10,14,11)    =         1.015313	      58.173143
	 D(8,10,14,12)    =        -1.082615	     -62.029270
	 D(8,10,14,13)    =         3.113240	     178.375541
	 D(9,10,14,11)    =        -1.015332	     -58.174254
	 D(9,10,14,12)    =        -3.113260	    -178.376666
	 D(9,10,14,13)    =         1.082595	      62.028144

	Current energy   :      -157.8445311768

	Energy change for the previous step:
		Projected    :        -0.0000234435
		Actual       :        -0.0000072574

	Performing BFGS update.
	Previous computed or guess Hessian on step 1.
	Steps to be used in Hessian update: 4 3
	Adding user-defined constraint: Fragment 1; Coordinate 49:
		Value =    -3.141555; Fixed value    =    -3.141580
		Force =    -0.000015; Force constant =     0.600000
	Removing off-diagonal coupling between coordinate 49 and others.
	Taking RFO optimization step.
	Going to follow RFO solution 1.
	Using RFO vector 1.
	Norm of target step-size    0.00159
	Projected energy change by RFO approximation:        -0.0000003986

	Back-transformation to cartesian coordinates...
	Could not converge backtransformation.
	Using first guess instead.

	--- Internal Coordinate Step in ANG or DEG, aJ/ANG or AJ/DEG ---
	 ---------------------------------------------------------------------------
	   Coordinate                Previous        Force       Change         New 
	   ----------                --------       ------       ------       ------
	    1 R(1,4)          =      1.094192    -0.000624    -0.000120     1.094072
	    2 R(2,4)          =      1.093661    -0.000585    -0.000115     1.093546
	    3 R(3,4)          =      1.094198    -0.000654    -0.000126     1.094072
	    4 R(4,7)          =      1.524483     0.000724     0.000145     1.524628
	    5 R(5,7)          =      1.096994    -0.000274    -0.000054     1.096940
	    6 R(6,7)          =      1.096998    -0.000299    -0.000058     1.096940
	    7 R(7,10)         =      1.524983     0.000758     0.000136     1.525119
	    8 R(8,10)         =      1.096997    -0.000291    -0.000057     1.096940
	    9 R(9,10)         =      1.096999    -0.000306    -0.000059     1.096940
	   10 R(10,14)        =      1.524490     0.000699     0.000138     1.524628
	   11 R(11,14)        =      1.093667    -0.000620    -0.000121     1.093546
	   12 R(12,14)        =      1.094193    -0.000632    -0.000122     1.094072
	   13 R(13,14)        =      1.094189    -0.000610    -0.000118     1.094071
	   14 B(1,4,2)        =    107.862573    -0.000001    -0.002110   107.860463
	   15 B(1,4,3)        =    107.734263    -0.000000    -0.003556   107.730706
	   16 B(1,4,7)        =    110.851131    -0.000000    -0.002433   110.848698
	   17 B(2,4,3)        =    107.862582    -0.000001    -0.002192   107.860390
	   18 B(2,4,7)        =    111.524200     0.000003     0.012444   111.536643
	   19 B(3,4,7)        =    110.851046    -0.000000    -0.002650   110.848397
	   20 B(4,7,5)        =    109.655228    -0.000002    -0.005276   109.649952
	   21 B(4,7,6)        =    109.657368    -0.000002    -0.007033   109.650335
	   22 B(4,7,10)       =    112.847419     0.000006     0.023166   112.870585
	   23 B(5,7,6)        =    106.286775    -0.000000    -0.018731   106.268044
	   24 B(5,7,10)       =    109.088904    -0.000001     0.003423   109.092327
	   25 B(6,7,10)       =    109.090134    -0.000001     0.001987   109.092121
	   26 B(7,10,8)       =    109.089150    -0.000001     0.003189   109.092339
	   27 B(7,10,9)       =    109.090061    -0.000001     0.002140   109.092201
	   28 B(7,10,14)      =    112.847349     0.000006     0.023181   112.870529
	   29 B(8,10,9)       =    106.286941    -0.000000    -0.018868   106.268073
	   30 B(8,10,14)      =    109.656419    -0.000002    -0.006115   109.650304
	   31 B(9,10,14)      =    109.655923    -0.000002    -0.005999   109.649924
	   32 B(10,14,11)     =    111.524006     0.000003     0.012521   111.536527
	   33 B(10,14,12)     =    110.850899    -0.000000    -0.002361   110.848538
	   34 B(10,14,13)     =    110.850499    -0.000000    -0.002047   110.848453
	   35 B(11,14,12)     =    107.862709    -0.000001    -0.002260   107.860449
	   36 B(11,14,13)     =    107.862911    -0.000001    -0.002429   107.860483
	   37 B(12,14,13)     =    107.734826    -0.000000    -0.003966   107.730861
	   38 D(1,4,7,5)      =   -178.374471     0.000000     0.008938  -178.365533
	   39 D(1,4,7,6)      =    -62.027129    -0.000000    -0.020763   -62.047892
	   40 D(1,4,7,10)     =     59.800756    -0.000000    -0.007463    59.793293
	   41 D(2,4,7,5)      =    -58.171944     0.000000     0.012956   -58.158987
	   42 D(2,4,7,6)      =     58.175398    -0.000000    -0.016744    58.158654
	   43 D(2,4,7,10)     =   -179.996717     0.000000    -0.003283  -180.000000
	   44 D(3,4,7,5)      =     62.030537     0.000000     0.016724    62.047261
	   45 D(3,4,7,6)      =    178.377879    -0.000000    -0.012976   178.364902
	   46 D(3,4,7,10)     =    -59.794236     0.000000     0.000323   -59.793913
	   47 D(4,7,10,8)     =    -57.852537     0.000000     0.009260   -57.843278
	   48 D(4,7,10,9)     =     57.856873    -0.000000    -0.010314    57.846559
	   49 D(4,7,10,14)    =   -179.997824    -0.000000    -0.000828  -179.998652
	   50 D(5,7,10,8)     =   -179.996173    -0.000000    -0.002058  -179.998231
	   51 D(5,7,10,9)     =    -64.286763    -0.000000    -0.021632   -64.308394
	   52 D(5,7,10,14)    =     57.858541    -0.000000    -0.012146    57.846395
	   53 D(6,7,10,8)     =     64.294711     0.000000     0.017307    64.312018
	   54 D(6,7,10,9)     =   -179.995879    -0.000000    -0.002267  -179.998146
	   55 D(6,7,10,14)    =    -57.850576     0.000000     0.007219   -57.843357
	   56 D(7,10,14,11)   =    179.999039     0.000000     0.000961   180.000000
	   57 D(7,10,14,12)   =     59.796626    -0.000000    -0.002301    59.794325
	   58 D(7,10,14,13)   =    -59.798563     0.000000     0.005557   -59.793006
	   59 D(8,10,14,11)   =     58.173143    -0.000000    -0.013880    58.159263
	   60 D(8,10,14,12)   =    -62.029270    -0.000000    -0.017809   -62.047079
	   61 D(8,10,14,13)   =    178.375541    -0.000000    -0.009951   178.365589
	   62 D(9,10,14,11)   =    -58.174254     0.000000     0.015875   -58.158379
	   63 D(9,10,14,12)   =   -178.376666     0.000000     0.011946  -178.364721
	   64 D(9,10,14,13)   =     62.028144     0.000000     0.019803    62.047948
	 ---------------------------------------------------------------------------
	 Forces used to impose fixed constraints are not included.
	  Forces zeroed: 49 

  ==> Convergence Check <==

  Measures of convergence in internal coordinates in au.
  Criteria marked as inactive (o), active & met (*), and active & unmet ( ).
  ---------------------------------------------------------------------------------------------
   Step     Total Energy     Delta E     MAX Force     RMS Force      MAX Disp      RMS Disp   
  ---------------------------------------------------------------------------------------------
    Convergence Criteria    1.00e-06 *    3.00e-04 *             o    1.20e-03 *             o
  ---------------------------------------------------------------------------------------------
      5    -157.84453118   -7.26e-06      9.21e-05 *    3.66e-05 o    4.05e-04 *    1.98e-04 o  ~
  ---------------------------------------------------------------------------------------------


  **** Optimization is complete! (in 5 steps) ****

  ==> Optimization Summary <==

  Measures of convergence in internal coordinates in au.
  --------------------------------------------------------------------------------------------------------------- ~
   Step         Total Energy             Delta E       MAX Force       RMS Force        MAX Disp        RMS Disp  ~
  --------------------------------------------------------------------------------------------------------------- ~
      1    -157.838577588611   -157.838577588611      0.01787605      0.00730651      0.02824484      0.01250404  ~
      2    -157.842714907659     -0.004137319048      0.00721810      0.00323498      0.02554953      0.01252730  ~
      3    -157.844199046371     -0.001484138712      0.00184929      0.00092254      0.03422673      0.01232830  ~
      4    -157.844523919407     -0.000324873036      0.00084821      0.00019194      0.00454134      0.00168908  ~
      5    -157.844531176766     -0.000007257359      0.00009207      0.00003657      0.00040458      0.00019848  ~
  --------------------------------------------------------------------------------------------------------------- ~

	Writing optimization data to binary file.
	Final energy is   -157.8445311767661
	Final (previous) structure:
	Cartesian Geometry (in Angstrom)
	    H    -2.3666748600   0.0543592137   0.3106658148
	    H    -2.2136327042   1.7019293718  -0.3134860239
	    H    -1.9223700485   0.3209677761  -1.3791320045
	    C    -1.7872259829   0.6958982277  -0.3600974557
	    H     0.2441718772   1.3655552095  -0.6383941922
	    H    -0.1970865978   1.1006904703   1.0399720693
	    C    -0.3128148015   0.6948306343   0.0274068292
	    H    -0.2442086712  -1.3655738624   0.6383164729
	    H     0.1971549140  -1.1006562852  -1.0400193676
	    C     0.3128186209  -0.6948271992  -0.0274327092
	    H     2.2136402239  -1.7019323333   0.3134717873
	    H     1.9223239324  -0.3210269411   1.3791808215
	    H     2.3666770700  -0.0543204243  -0.3105893284
	    C     1.7872225720  -0.6959010074   0.3601245074
	Saving final (previous) structure.
			--------------------------
			 OPTKING Finished Execution 
			--------------------------

    Final optimized geometry and variables:
    Molecular point group: c1
    Full point group: C1

    Geometry (in Angstrom), charge = 0, multiplicity = 1:

    H           -2.366674860016     0.054359213710     0.310665814793
    H           -2.213632704214     1.701929371842    -0.313486023935
    H           -1.922370048532     0.320967776096    -1.379132004494
    C           -1.787225982893     0.695898227736    -0.360097455682
    H            0.244171877237     1.365555209516    -0.638394192203
    H           -0.197086597750     1.100690470286     1.039972069342
    C           -0.312814801478     0.694830634285     0.027406829187
    H           -0.244208671157    -1.365573862389     0.638316472927
    H            0.197154913963    -1.100656285194    -1.040019367649
    C            0.312818620894    -0.694827199158    -0.027432709221
    H            2.213640223854    -1.701932333336     0.313471787279
    H            1.922323932449    -0.321026941116     1.379180821479
    H            2.366677070039    -0.054320424265    -0.310589328397
    C            1.787222571993    -0.695901007369     0.360124507385

	Cleaning optimization helper files.

*** Psi4 exiting successfully. Buy a developer a beer!
