    -----------------------------------------------------------------------
          Psi4: An Open-Source Ab Initio Electronic Structure Package
                              Psi4 1.0.0 Driver

                          Git: Rev {master} 6a9a71b 

    J. M. Turney, A. C. Simmonett, R. M. Parrish, E. G. Hohenstein,
    F. A. Evangelista, J. T. Fermann, B. J. Mintz, L. A. Burns, J. J. Wilke,
    M. L. Abrams, N. J. Russ, M. L. Leininger, C. L. Janssen, E. T. Seidl,
    W. D. Allen, H. F. Schaefer, R. A. King, E. F. Valeev, C. D. Sherrill,
    and T. D. Crawford, WIREs Comput. Mol. Sci. 2, 556-565 (2012)
    (doi: 10.1002/wcms.93)

                         Additional Contributions by
    A. E. DePrince, U. Bozkaya, A. Yu. Sokolov, D. G. A. Smith, R. Di Remigio,
    R. M. Richard, J. F. Gonthier, H. R. McAlexander, M. Saitow, and
    B. P. Pritchard
    -----------------------------------------------------------------------


    Psi4 started on: Thu Feb 16 16:32:03 2017

    Process ID:   1876
    PSI4DATADIR: /Users/sternc1/anaconda/share/psi4
    Memory level set to 256.000 MB

  ==> Input File <==

--------------------------------------------------------------------------

memory 1000 mb

molecule butane {
  symmetry C1
  0 1 
  H      1.604   0.760   -8.260
  H      1.745   2.388   -8.880
  H      2.043   1.024   -9.930
  C      2.142   1.395   -8.932
  H      4.169   2.051   -9.210
  H      3.731   1.788   -7.539
  C      3.631   1.416   -8.537
  H      3.808   -0.509   -9.473
  H      5.269   0.034   -8.685
  C      4.203   -0.012   -8.612
  H      4.207   -1.783   -7.396
  H      2.743   -0.837   -7.270
  H      4.204   -0.294   -6.482
  C      3.809   -0.791   -7.344
  units Angstrom
}

dih_string = "4 7 10 14 280"
set optking fixed_dihedral = $dih_string

optimize('MP2/6-31G(d)')
--------------------------------------------------------------------------

  Memory set to 1000.000 MiB by Python script.
gradient() will perform analytic gradient computation.
    SCF Algorithm Type (re)set to DF.

*** tstart() called on lski1497
*** at Thu Feb 16 16:32:04 2017


         ---------------------------------------------------------
                                   SCF
            by Justin Turney, Rob Parrish, and Andy Simmonett
                              RHF Reference
                        1 Threads,   1000 MiB Core
         ---------------------------------------------------------

  ==> Geometry <==

    Molecular point group: c1
    Full point group: C1

    Geometry (in Angstrom), charge = 0, multiplicity = 1:

       Center              X                  Y                   Z               Mass       
    ------------   -----------------  -----------------  -----------------  -----------------
           H         -1.825946967240     0.264906447087     0.088658114069     1.007825032070
           H         -1.684946967240     1.892906447087    -0.531341885931     1.007825032070
           H         -1.386946967240     0.528906447087    -1.581341885931     1.007825032070
           C         -1.287946967240     0.899906447087    -0.583341885931    12.000000000000
           H          0.739053032760     1.555906447087    -0.861341885931     1.007825032070
           H          0.301053032760     1.292906447087     0.809658114069     1.007825032070
           C          0.201053032760     0.920906447087    -0.188341885931    12.000000000000
           H          0.378053032760    -1.004093552913    -1.124341885931     1.007825032070
           H          1.839053032760    -0.461093552913    -0.336341885931     1.007825032070
           C          0.773053032760    -0.507093552913    -0.263341885931    12.000000000000
           H          0.777053032760    -2.278093552913     0.952658114069     1.007825032070
           H         -0.686946967240    -1.332093552913     1.078658114069     1.007825032070
           H          0.774053032760    -0.789093552913     1.866658114069     1.007825032070
           C          0.379053032760    -1.286093552913     1.004658114069    12.000000000000

  Running in c1 symmetry.

  Rotational constants: A =      0.45823  B =      0.15809  C =      0.14031 [cm^-1]
  Rotational constants: A =  13737.26589  B =   4739.30402  C =   4206.46424 [MHz]
  Nuclear repulsion =  133.858461044843381

  Charge       = 0
  Multiplicity = 1
  Electrons    = 34
  Nalpha       = 17
  Nbeta        = 17

  ==> Algorithm <==

  SCF Algorithm Type is DF.
  DIIS enabled.
  MOM disabled.
  Fractional occupation disabled.
  Guess Type is SAD.
  Energy threshold   = 1.00e-10
  Density threshold  = 1.00e-10
  Integral threshold = 0.00e+00

  ==> Primary Basis <==

  Basis Set: 6-31G(D)
    Number of shells: 44
    Number of basis function: 80
    Number of Cartesian functions: 80
    Spherical Harmonics?: false
    Max angular momentum: 2

  ==> Pre-Iterations <==

   -------------------------------------------------------
    Irrep   Nso     Nmo     Nalpha   Nbeta   Ndocc  Nsocc
   -------------------------------------------------------
     A         80      80       0       0       0       0
   -------------------------------------------------------
    Total      80      80      17      17      17       0
   -------------------------------------------------------

  ==> Integral Setup <==

  ==> DFJK: Density-Fitted J/K Matrices <==

    J tasked:                  Yes
    K tasked:                  Yes
    wK tasked:                  No
    OpenMP threads:              1
    Integrals threads:           1
    Memory (MB):               715
    Algorithm:                Core
    Integral Cache:           NONE
    Schwarz Cutoff:          1E-12
    Fitting Condition:       1E-12

   => Auxiliary Basis Set <=

  Basis Set: 
    Number of shells: 186
    Number of basis function: 574
    Number of Cartesian functions: 574
    Spherical Harmonics?: false
    Max angular momentum: 3

  Minimum eigenvalue in the overlap matrix is 5.3157988742E-03.
  Using Symmetric Orthogonalization.
  SCF Guess: Superposition of Atomic Densities via on-the-fly atomic UHF.

  ==> Iterations <==

                           Total Energy        Delta E     RMS |[F,P]|

   @DF-RHF iter   0:  -158.87920143023800   -1.58879e+02   4.67098e-02 
   @DF-RHF iter   1:  -157.18939563339731    1.68981e+00   4.33921e-03 
   @DF-RHF iter   2:  -157.28051530892552   -9.11197e-02   1.33294e-03 DIIS
   @DF-RHF iter   3:  -157.28989922432888   -9.38392e-03   5.26111e-04 DIIS
   @DF-RHF iter   4:  -157.29121810419886   -1.31888e-03   8.56538e-05 DIIS
   @DF-RHF iter   5:  -157.29127264314295   -5.45389e-05   1.66499e-05 DIIS
   @DF-RHF iter   6:  -157.29127472135710   -2.07821e-06   4.06983e-06 DIIS
   @DF-RHF iter   7:  -157.29127480544625   -8.40892e-08   1.06160e-06 DIIS
   @DF-RHF iter   8:  -157.29127481296868   -7.52243e-09   2.27716e-07 DIIS
   @DF-RHF iter   9:  -157.29127481339216   -4.23483e-10   6.01971e-08 DIIS
   @DF-RHF iter  10:  -157.29127481342070   -2.85354e-11   1.48787e-08 DIIS
   @DF-RHF iter  11:  -157.29127481342167   -9.66338e-13   3.73562e-09 DIIS
   @DF-RHF iter  12:  -157.29127481342155    1.13687e-13   8.46653e-10 DIIS
   @DF-RHF iter  13:  -157.29127481342195   -3.97904e-13   1.69595e-10 DIIS
   @DF-RHF iter  14:  -157.29127481342178    1.70530e-13   4.89194e-11 DIIS

  ==> Post-Iterations <==

    Orbital Energies (a.u.)
    -----------------------

    Doubly Occupied:                                                      

       1A    -11.207503     2A    -11.206903     3A    -11.200758  
       4A    -11.200703     5A     -1.072925     6A     -0.976729  
       7A     -0.872130     8A     -0.786932     9A     -0.630369  
      10A     -0.624494    11A     -0.580416    12A     -0.539571  
      13A     -0.528510    14A     -0.506677    15A     -0.473660  
      16A     -0.457450    17A     -0.448208  

    Virtual:                                                              

      18A      0.234924    19A      0.280400    20A      0.281315  
      21A      0.298635    22A      0.316223    23A      0.319485  
      24A      0.345948    25A      0.354589    26A      0.355867  
      27A      0.393802    28A      0.410488    29A      0.435603  
      30A      0.453162    31A      0.713401    32A      0.720928  
      33A      0.730539    34A      0.745073    35A      0.763581  
      36A      0.831737    37A      0.864972    38A      0.931366  
      39A      0.950277    40A      1.000542    41A      1.085869  
      42A      1.115910    43A      1.174654    44A      1.177211  
      45A      1.200458    46A      1.207529    47A      1.211518  
      48A      1.235380    49A      1.253638    50A      1.264404  
      51A      1.266704    52A      1.292986    53A      1.311445  
      54A      1.524825    55A      1.709241    56A      1.718755  
      57A      1.862702    58A      1.865682    59A      2.003803  
      60A      2.077283    61A      2.192732    62A      2.249986  
      63A      2.292817    64A      2.293675    65A      2.382164  
      66A      2.472283    67A      2.472543    68A      2.616388  
      69A      2.657960    70A      2.675888    71A      2.717983  
      72A      2.780253    73A      2.809593    74A      2.905942  
      75A      2.974261    76A      3.086777    77A      4.576986  
      78A      4.688889    79A      4.842340    80A      4.949436  

    Final Occupation by Irrep:
              A 
    DOCC [    17 ]

  Energy converged.

  @DF-RHF Final Energy:  -157.29127481342178

   => Energetics <=

    Nuclear Repulsion Energy =            133.8584610448433807
    One-Electron Energy =                -475.6715977695292281
    Two-Electron Energy =                 184.5218619112640681
    DFT Exchange-Correlation Energy =       0.0000000000000000
    Empirical Dispersion Energy =           0.0000000000000000
    PCM Polarization Energy =               0.0000000000000000
    EFP Energy =                            0.0000000000000000
    Total Energy =                       -157.2912748134217509


  Saving occupied orbitals to File 180.

*** tstop() called on lski1497 at Thu Feb 16 16:32:11 2017
Module time:
	user time   =       5.38 seconds =       0.09 minutes
	system time =       0.18 seconds =       0.00 minutes
	total time  =          7 seconds =       0.12 minutes
Total time:
	user time   =       5.38 seconds =       0.09 minutes
	system time =       0.18 seconds =       0.00 minutes
	total time  =          7 seconds =       0.12 minutes


Properties will be evaluated at   0.000000,   0.000000,   0.000000 Bohr

Properties computed using the SCF density matrix

  Nuclear Dipole Moment: (a.u.)
     X:    -0.7279      Y:    -0.3084      Z:     0.3390

  Electronic Dipole Moment: (a.u.)
     X:     0.7598      Y:     0.3215      Z:    -0.3541

  Dipole Moment: (a.u.)
     X:     0.0318      Y:     0.0131      Z:    -0.0151     Total:     0.0376

  Dipole Moment: (Debye)
     X:     0.0809      Y:     0.0334      Z:    -0.0384     Total:     0.0956


  //>>>>>>>>>>>>>>>>>>>>>>>>>>>>>>>>>>>//
  //               DFMP2               //
  //<<<<<<<<<<<<<<<<<<<<<<<<<<<<<<<<<<<//


*** tstart() called on lski1497
*** at Thu Feb 16 16:32:11 2017


*** tstop() called on lski1497 at Thu Feb 16 16:32:12 2017
Module time:
	user time   =       0.57 seconds =       0.01 minutes
	system time =       0.01 seconds =       0.00 minutes
	total time  =          1 seconds =       0.02 minutes
Total time:
	user time   =       5.97 seconds =       0.10 minutes
	system time =       0.19 seconds =       0.00 minutes
	total time  =          8 seconds =       0.13 minutes
	 --------------------------------------------------------
	                          DF-MP2                         
	      2nd-Order Density-Fitted Moller-Plesset Theory     
	              RMP2 Wavefunction,   1 Threads             
	                                                         
	        Rob Parrish, Justin Turney, Andy Simmonett,      
	           Ed Hohenstein, and C. David Sherrill          
	 --------------------------------------------------------

   => Auxiliary Basis Set <=

  Basis Set: 
    Number of shells: 132
    Number of basis function: 364
    Number of Cartesian functions: 414
    Spherical Harmonics?: true
    Max angular momentum: 3

	 --------------------------------------------------------
	                 NBF =    80, NAUX =   364
	 --------------------------------------------------------
	   CLASS    FOCC     OCC    AOCC    AVIR     VIR    FVIR
	   PAIRS       0      17      17      63      63       0
	 --------------------------------------------------------

DGAS Warning! /src/lib/libfock/apps.cc:80 is not currently checking restricted

         ------------------------------------------------------------
                                     CPHF                           
                                  Rob Parrish                       
         ------------------------------------------------------------

  ==> Geometry <==

    Molecular point group: c1
    Full point group: C1

    Geometry (in Angstrom), charge = 0, multiplicity = 1:

       Center              X                  Y                   Z               Mass       
    ------------   -----------------  -----------------  -----------------  -----------------
           H         -1.825946967240     0.264906447087     0.088658114069     1.007825032070
           H         -1.684946967240     1.892906447087    -0.531341885931     1.007825032070
           H         -1.386946967240     0.528906447087    -1.581341885931     1.007825032070
           C         -1.287946967240     0.899906447087    -0.583341885931    12.000000000000
           H          0.739053032760     1.555906447087    -0.861341885931     1.007825032070
           H          0.301053032760     1.292906447087     0.809658114069     1.007825032070
           C          0.201053032760     0.920906447087    -0.188341885931    12.000000000000
           H          0.378053032760    -1.004093552913    -1.124341885931     1.007825032070
           H          1.839053032760    -0.461093552913    -0.336341885931     1.007825032070
           C          0.773053032760    -0.507093552913    -0.263341885931    12.000000000000
           H          0.777053032760    -2.278093552913     0.952658114069     1.007825032070
           H         -0.686946967240    -1.332093552913     1.078658114069     1.007825032070
           H          0.774053032760    -0.789093552913     1.866658114069     1.007825032070
           C          0.379053032760    -1.286093552913     1.004658114069    12.000000000000

  Nuclear repulsion =  133.858461044843381
  Reference energy  = -157.291274813421779

  ==> Basis Set <==

  Basis Set: 6-31G(D)
    Number of shells: 44
    Number of basis function: 80
    Number of Cartesian functions: 80
    Spherical Harmonics?: false
    Max angular momentum: 2

  ==> CGRSolver (by Rob Parrish) <==

   Number of roots    =         1
   Preconditioning    =    JACOBI
   Convergence cutoff =     1E-06
   Maximum iterations =       100

  ==> CPHFRHamiltonian (by Rob Parrish) <== 

  ==> DFJK: Density-Fitted J/K Matrices <==

    J tasked:                  Yes
    K tasked:                  Yes
    wK tasked:                  No
    OpenMP threads:              1
    Integrals threads:           1
    Memory (MB):               715
    Algorithm:                Core
    Integral Cache:           NONE
    Schwarz Cutoff:          1E-12
    Fitting Condition:       1E-12

   => Auxiliary Basis Set <=

  Basis Set: 
    Number of shells: 186
    Number of basis function: 574
    Number of Cartesian functions: 574
    Spherical Harmonics?: false
    Max angular momentum: 3

  ==> CPHF Iterations <==

  => Iterations <=

             Iter  Converged  Remaining    Residual
  CGR           1          0          1   7.440E-02
  CGR           2          0          1   8.605E-03
  CGR           3          0          1   2.385E-03
  CGR           4          0          1   4.351E-04
  CGR           5          0          1   7.985E-05
  CGR           6          0          1   1.548E-05
  CGR           7          0          1   2.299E-06
  CGR           8          1          0   4.778E-07

    CGRSolver converged.

  ==> DFCorrGrad: Density-Fitted Correlated Gradients <==

    OpenMP threads:              1
    Integrals threads:           1
    Memory (MB):               715
    Schwarz Cutoff:          0E+00
    Fitting Condition:       1E-12

   => Auxiliary Basis Set <=

  Basis Set: 
    Number of shells: 186
    Number of basis function: 510
    Number of Cartesian functions: 574
    Spherical Harmonics?: true
    Max angular momentum: 3

	-----------------------------------------------------------
	 ==================> DF-MP2 Energies <==================== 
	-----------------------------------------------------------
	 Reference Energy          =    -157.2912748134217793 [Eh]
	 Singles Energy            =      -0.0000000000000000 [Eh]
	 Same-Spin Energy          =      -0.1246870306383219 [Eh]
	 Opposite-Spin Energy      =      -0.4205176530724336 [Eh]
	 Correlation Energy        =      -0.5452046837107555 [Eh]
	 Total Energy              =    -157.8364794971325296 [Eh]
	-----------------------------------------------------------
	 ================> DF-SCS-MP2 Energies <================== 
	-----------------------------------------------------------
	 SCS Same-Spin Scale       =       0.3333333333333333 [-]
	 SCS Opposite-Spin Scale   =       1.2000000000000000 [-]
	 SCS Same-Spin Energy      =      -0.0415623435461073 [Eh]
	 SCS Opposite-Spin Energy  =      -0.5046211836869202 [Eh]
	 SCS Correlation Energy    =      -0.5461835272330275 [Eh]
	 SCS Total Energy          =    -157.8374583406548197 [Eh]
	-----------------------------------------------------------


  -Total Gradient:
     Atom            X                  Y                   Z
    ------   -----------------  -----------------  -----------------
       1        0.011544100908     0.008185824195    -0.008046917481
       2        0.010269941585    -0.013457496956     0.000082845776
       3        0.003943690314     0.005283733135     0.015590078061
       4       -0.026734639122    -0.006850473104    -0.009934641427
       5       -0.008234427219    -0.012980518351     0.008942527535
       6       -0.004500378853    -0.008653640700    -0.015182496625
       7        0.017714461938     0.027857954755     0.016775379926
       8        0.002877688906     0.007931789291     0.016012791795
       9       -0.018032869738     0.001983948201     0.002998078839
      10        0.014114081026    -0.014690919761    -0.030860441612
      11       -0.003916367989     0.016613069695    -0.003046714640
      12        0.015454602025     0.003305535455    -0.004332383144
      13       -0.005199848047    -0.005503889361    -0.014146620384
      14       -0.009300035735    -0.009024916494     0.025148513380


			-----------------------------------------
			 OPTKING 2.0: for geometry optimizations 
			  - R.A. King,  Bethel University        
			-----------------------------------------

	Previous internal coordinate definitions found.
	---Fragment 1 Geometry and Gradient---
	 H          -3.4505397013        0.5006006358        0.1675395550
	 H          -3.1840883165        3.5770747802       -1.0040906473
	 H          -2.6209499289        0.9994883349       -2.9883030869
	 C          -2.4338670418        1.7005767302       -1.1023564063
	 H           1.3966078296        2.9402370734       -1.6277002712
	 H           0.5689077834        2.4432391004        1.5300320969
	 C           0.3799351701        1.7402609790       -0.3559145838
	 H           0.7144166956       -1.8974618268       -2.1246982441
	 H           3.4753065758       -0.8713405366       -0.6355940514
	 C           1.4608585181       -0.9582679388       -0.4976440437
	 H           1.4684174226       -4.3049729201        1.8002629339
	 H          -1.2981416359       -2.5172919984        2.0383684266
	 H           1.4627482442       -1.4911707082        3.5274726193
	 C           0.7163064218       -2.4303645963        1.8985286928
	             0.0115441009        0.0081858242       -0.0080469175
	             0.0102699416       -0.0134574970        0.0000828458
	             0.0039436903        0.0052837331        0.0155900781
	            -0.0267346391       -0.0068504731       -0.0099346414
	            -0.0082344272       -0.0129805184        0.0089425275
	            -0.0045003789       -0.0086536407       -0.0151824966
	             0.0177144619        0.0278579548        0.0167753799
	             0.0028776889        0.0079317893        0.0160127918
	            -0.0180328697        0.0019839482        0.0029980788
	             0.0141140810       -0.0146909198       -0.0308604416
	            -0.0039163680        0.0166130697       -0.0030467146
	             0.0154546020        0.0033055355       -0.0043323831
	            -0.0051998480       -0.0055038894       -0.0141466204
	            -0.0093000357       -0.0090249165        0.0251485134

	Previous optimization step data not found.  Starting new optimization.

	---Fragment 1 Intrafragment Coordinates---
	 - Coordinate -           - BOHR/RAD -       - ANG/DEG -
	 R(1,4)           =         2.021436	       1.069698
	 R(2,4)           =         2.023298	       1.070683
	 R(3,4)           =         2.020723	       1.069320
	 R(4,7)           =         2.911397	       1.540645
	 R(5,7)           =         2.022623	       1.070326
	 R(6,7)           =         2.021555	       1.069761
	 R(7,10)          =         2.910419	       1.540128
	 R(8,10)          =         2.021526	       1.069745
	 R(9,10)          =         2.021036	       1.069486
	 R(10,14)         =         2.909136	       1.539448
	 R(11,14)         =         2.022247	       1.070127
	 R(12,14)         =         2.021166	       1.069555
	 R(13,14)         =         2.023047	       1.070550
	 B(1,4,2)         =         1.910870	     109.484805
	 B(1,4,3)         =         1.911121	     109.499161
	 B(1,4,7)         =         1.910399	     109.457783
	 B(2,4,3)         =         1.910042	     109.437340
	 B(2,4,7)         =         1.910564	     109.467262
	 B(3,4,7)         =         1.910803	     109.480971
	 B(4,7,5)         =         1.909937	     109.431343
	 B(4,7,6)         =         1.911630	     109.528316
	 B(4,7,10)        =         1.911154	     109.501062
	 B(5,7,6)         =         1.910605	     109.469614
	 B(5,7,10)        =         1.910047	     109.437654
	 B(6,7,10)        =         1.910425	     109.459295
	 B(7,10,8)        =         1.910099	     109.440593
	 B(7,10,9)        =         1.910949	     109.489320
	 B(7,10,14)       =         1.911362	     109.512965
	 B(8,10,9)        =         1.910373	     109.456331
	 B(8,10,14)       =         1.910643	     109.471804
	 B(9,10,14)       =         1.910373	     109.456298
	 B(10,14,11)      =         1.911203	     109.503867
	 B(10,14,12)      =         1.911167	     109.501800
	 B(10,14,13)      =         1.911194	     109.503331
	 B(11,14,12)      =         1.911527	     109.522416
	 B(11,14,13)      =         1.909488	     109.405617
	 B(12,14,13)      =         1.909219	     109.390204
	 D(1,4,7,5)       =         3.140997	     179.965873
	 D(1,4,7,6)       =        -1.047644	     -60.025575
	 D(1,4,7,10)      =         1.047427	      60.013132
	 D(2,4,7,5)       =        -1.047689	     -60.028143
	 D(2,4,7,6)       =         1.046856	      59.980409
	 D(2,4,7,10)      =        -3.141259	    -179.980883
	 D(3,4,7,5)       =         1.046044	      59.933911
	 D(3,4,7,6)       =         3.140588	     179.942463
	 D(3,4,7,10)      =        -1.047526	     -60.018830
	 D(4,7,10,8)      =         0.698599	      40.026778
	 D(4,7,10,9)      =         2.792542	     160.000869
	 D(4,7,10,14)     =        -1.395927	     -79.980731
	 D(5,7,10,8)      =        -1.394904	     -79.922097
	 D(5,7,10,9)      =         0.699039	      40.051993
	 D(5,7,10,14)     =         2.793755	     160.070394
	 D(6,7,10,8)      =         2.794407	     160.107704
	 D(6,7,10,9)      =        -1.394836	     -79.918205
	 D(6,7,10,14)     =         0.699880	      40.100195
	 D(7,10,14,11)    =        -3.141013	    -179.966809
	 D(7,10,14,12)    =         1.046005	      59.931664
	 D(7,10,14,13)    =        -1.047328	     -60.007498
	 D(8,10,14,11)    =         1.047979	      60.044781
	 D(8,10,14,12)    =        -1.048188	     -60.056747
	 D(8,10,14,13)    =        -3.141521	    -179.995908
	 D(9,10,14,11)    =        -1.045945	     -59.928209
	 D(9,10,14,12)    =         3.141074	     179.970264
	 D(9,10,14,13)    =         1.047740	      60.031102

	Current energy   :      -157.8364794971

	Generating empirical Hessian (Schlegel '84) for each fragment.
	Adding user-defined constraint: Fragment 1; Coordinate 49:
		Value =    -1.395927; Fixed value    =    -1.396260
		Force =    -0.000166; Force constant =     0.500000
	Removing off-diagonal coupling between coordinate 49 and others.
	Taking RFO optimization step.
	Going to follow RFO solution 1.
	Using RFO vector 1.

	Determining step-restricting scale parameter for RS-RFO.
	Maximum step size allowed    0.10000

	 Iter      |step|        alpha        rfo_root  
	------------------------------------------------
	    0     0.23483       1.00000           1
	    1     0.17455       6.23320           1
	    2     0.13327      18.58378           1
	    3     0.11012      35.19690           1
	    4     0.10138      45.35510           1
	    5     0.10003      47.20798           1
	    6     0.10000      47.25258           1
	------------------------------------------------
	Norm of target step-size    0.10000
	Projected energy change by RFO approximation:        -0.0057501286

	Back-transformation to cartesian coordinates...
	Successfully converged to displaced geometry.

	--- Internal Coordinate Step in ANG or DEG, aJ/ANG or AJ/DEG ---
	 ---------------------------------------------------------------------------
	   Coordinate                Previous        Force       Change         New 
	   ----------                --------       ------       ------       ------
	    1 R(1,4)          =      1.069698     0.129517     0.012888     1.082585
	    2 R(2,4)          =      1.070683     0.134169     0.013376     1.084059
	    3 R(3,4)          =      1.069320     0.137985     0.013720     1.083040
	    4 R(4,7)          =      1.540645    -0.013425    -0.001547     1.539098
	    5 R(5,7)          =      1.070326     0.143872     0.014334     1.084660
	    6 R(6,7)          =      1.069761     0.144952     0.014425     1.084186
	    7 R(7,10)         =      1.540128     0.013646     0.001571     1.541699
	    8 R(8,10)         =      1.069745     0.145297     0.014459     1.084204
	    9 R(9,10)         =      1.069486     0.149066     0.014827     1.084313
	   10 R(10,14)        =      1.539448    -0.008361    -0.000962     1.538487
	   11 R(11,14)        =      1.070127     0.137659     0.013709     1.083836
	   12 R(12,14)        =      1.069555     0.130544     0.012986     1.082541
	   13 R(13,14)        =      1.070550     0.130702     0.013027     1.083578
	   14 B(1,4,2)        =    109.484805    -0.000359    -0.628987   108.855817
	   15 B(1,4,3)        =    109.499161    -0.000240    -0.414892   109.084270
	   16 B(1,4,7)        =    109.457783     0.000348     0.603722   110.061505
	   17 B(2,4,3)        =    109.437340    -0.000266    -0.460153   108.977187
	   18 B(2,4,7)        =    109.467262     0.000396     0.690573   110.157835
	   19 B(3,4,7)        =    109.480971     0.000122     0.196464   109.677436
	   20 B(4,7,5)        =    109.431343    -0.000295    -0.453602   108.977741
	   21 B(4,7,6)        =    109.528316    -0.000183    -0.251646   109.276670
	   22 B(4,7,10)       =    109.501062     0.000884     1.412200   110.913262
	   23 B(5,7,6)        =    109.469614    -0.000001    -0.180491   109.289123
	   24 B(5,7,10)       =    109.437654    -0.000135    -0.141613   109.296041
	   25 B(6,7,10)       =    109.459295    -0.000269    -0.393131   109.066163
	   26 B(7,10,8)       =    109.440593    -0.000270    -0.394892   109.045701
	   27 B(7,10,9)       =    109.489320    -0.000141    -0.153204   109.336116
	   28 B(7,10,14)      =    109.512965     0.000884     1.413416   110.926381
	   29 B(8,10,9)       =    109.456331    -0.000001    -0.179493   109.276838
	   30 B(8,10,14)      =    109.471804    -0.000178    -0.240329   109.231475
	   31 B(9,10,14)      =    109.456298    -0.000295    -0.454216   109.002082
	   32 B(10,14,11)     =    109.503867     0.000395     0.688122   110.191989
	   33 B(10,14,12)     =    109.501800     0.000341     0.591842   110.093643
	   34 B(10,14,13)     =    109.503331     0.000118     0.191864   109.695195
	   35 B(11,14,12)     =    109.522416    -0.000361    -0.632897   108.889519
	   36 B(11,14,13)     =    109.405617    -0.000264    -0.457057   108.948560
	   37 B(12,14,13)     =    109.390204    -0.000231    -0.396958   108.993246
	   38 D(1,4,7,5)      =    179.965873     0.000034     0.321622   180.287494
	   39 D(1,4,7,6)      =    -60.025575    -0.000033    -0.323805   -60.349380
	   40 D(1,4,7,10)     =     60.013132    -0.000010    -0.090091    59.923041
	   41 D(2,4,7,5)      =    -60.028143     0.000038     0.353446   -59.674697
	   42 D(2,4,7,6)      =     59.980409    -0.000030    -0.291981    59.688429
	   43 D(2,4,7,10)     =   -179.980883    -0.000007    -0.058267  -180.039150
	   44 D(3,4,7,5)      =     59.933911     0.000036     0.336460    60.270371
	   45 D(3,4,7,6)      =    179.942463    -0.000032    -0.308966   179.633496
	   46 D(3,4,7,10)     =    -60.018830    -0.000009    -0.075253   -60.094083
	   47 D(4,7,10,8)     =     40.026778     0.000034     0.345538    40.372316
	   48 D(4,7,10,9)     =    160.000869    -0.000024    -0.204586   159.796283
	   49 D(4,7,10,14)    =    -79.980731    -0.000002     0.016582   -79.964149
	   50 D(5,7,10,8)     =    -79.922097     0.000012     0.119204   -79.802894
	   51 D(5,7,10,9)     =     40.051993    -0.000046    -0.430921    39.621073
	   52 D(5,7,10,14)    =    160.070394    -0.000024    -0.209752   159.860641
	   53 D(6,7,10,8)     =    160.107704     0.000069     0.662105   160.769809
	   54 D(6,7,10,9)     =    -79.918205     0.000011     0.111981   -79.806224
	   55 D(6,7,10,14)    =     40.100195     0.000033     0.333149    40.433345
	   56 D(7,10,14,11)   =   -179.966809    -0.000007    -0.056861  -180.023670
	   57 D(7,10,14,12)   =     59.931664    -0.000009    -0.077090    59.854574
	   58 D(7,10,14,13)   =    -60.007498    -0.000009    -0.073935   -60.081433
	   59 D(8,10,14,11)   =     60.044781    -0.000030    -0.294505    59.750276
	   60 D(8,10,14,12)   =    -60.056747    -0.000032    -0.314734   -60.371480
	   61 D(8,10,14,13)   =   -179.995908    -0.000032    -0.311579  -180.307488
	   62 D(9,10,14,11)   =    -59.928209     0.000037     0.342517   -59.585692
	   63 D(9,10,14,12)   =    179.970264     0.000035     0.322288   180.292552
	   64 D(9,10,14,13)   =     60.031102     0.000035     0.325442    60.356544
	 ---------------------------------------------------------------------------
	 Forces used to impose fixed constraints are not included.
	  Forces zeroed: 49 

  ==> Convergence Check <==

  Measures of convergence in internal coordinates in au.
  Criteria marked as inactive (o), active & met (*), and active & unmet ( ).
  --------------------------------------------------------------------------------------------- ~
   Step     Total Energy     Delta E     MAX Force     RMS Force      MAX Disp      RMS Disp    ~
  --------------------------------------------------------------------------------------------- ~
    Convergence Criteria    1.00e-06 *    3.00e-04 *             o    1.20e-03 *             o  ~
  --------------------------------------------------------------------------------------------- ~
      1    -157.83647950   -1.58e+02      1.81e-02      7.34e-03 o    2.80e-02      1.25e-02 o  ~
  ---------------------------------------------------------------------------------------------

	Writing optimization data to binary file.
	Structure for next step:
	Cartesian Geometry (in Angstrom)
	    H    -1.8644395864   0.2814153991   0.0660243372
	    H    -1.7018946720   1.9079927292  -0.5924422243
	    H    -1.3975062324   0.5068681498  -1.6200416285
	    C    -1.2982111885   0.9021900169  -0.6166286456
	    H     0.7352674054   1.5465035881  -0.9010816318
	    H     0.2785604303   1.3191563573   0.7926150752
	    C     0.1860648135   0.9164756887  -0.2097581584
	    H     0.3955850123  -1.0322541457  -1.1051872972
	    H     1.8584852400  -0.4450669818  -0.3035716963
	    C     0.7779605954  -0.5068073289  -0.2373199160
	    H     0.8191378934  -2.2828196194   1.0023724792
	    H    -0.6790830717  -1.3614834179   1.1153646655
	    H     0.7811231302  -0.7686907891   1.9065429329
	    C     0.3976926891  -1.2847893872   1.0343253052
			--------------------------
			 OPTKING Finished Execution 
			--------------------------

    Structure for next step:
    Molecular point group: c1
    Full point group: C1

    Geometry (in Angstrom), charge = 0, multiplicity = 1:

    H           -1.864116847799     0.281520781582     0.065837697569
    H           -1.701571933430     1.908098111714    -0.592628863901
    H           -1.397183493772     0.506973532284    -1.620228268138
    C           -1.297888449862     0.902295399362    -0.616815285162
    H            0.735590144033     1.546608970604    -0.901268271407
    H            0.278883168892     1.319261739777     0.792428435545
    C            0.186387552120     0.916581071200    -0.209944798045
    H            0.395907750860    -1.032148763172    -1.105373936850
    H            1.858807978622    -0.444961599335    -0.303758335873
    C            0.778283333970    -0.506701946446    -0.237506555605
    H            0.819460631945    -2.282714236868     1.002185839579
    H           -0.678760333111    -1.361378035372     1.115178025896
    H            0.781445868770    -0.768585406608     1.906356293296
    C            0.398015427711    -1.284684004677     1.034138665592

gradient() will perform analytic gradient computation.
    SCF Algorithm Type (re)set to DF.

*** tstart() called on lski1497
*** at Thu Feb 16 16:32:34 2017


         ---------------------------------------------------------
                                   SCF
            by Justin Turney, Rob Parrish, and Andy Simmonett
                              RHF Reference
                        1 Threads,   1000 MiB Core
         ---------------------------------------------------------

  ==> Geometry <==

    Molecular point group: c1
    Full point group: C1

    Geometry (in Angstrom), charge = 0, multiplicity = 1:

       Center              X                  Y                   Z               Mass       
    ------------   -----------------  -----------------  -----------------  -----------------
           H         -1.864116847799     0.281520781582     0.065837697569     1.007825032070
           H         -1.701571933430     1.908098111714    -0.592628863901     1.007825032070
           H         -1.397183493772     0.506973532284    -1.620228268138     1.007825032070
           C         -1.297888449862     0.902295399362    -0.616815285162    12.000000000000
           H          0.735590144033     1.546608970604    -0.901268271407     1.007825032070
           H          0.278883168892     1.319261739777     0.792428435545     1.007825032070
           C          0.186387552120     0.916581071200    -0.209944798045    12.000000000000
           H          0.395907750860    -1.032148763172    -1.105373936850     1.007825032070
           H          1.858807978622    -0.444961599335    -0.303758335873     1.007825032070
           C          0.778283333970    -0.506701946446    -0.237506555605    12.000000000000
           H          0.819460631945    -2.282714236868     1.002185839579     1.007825032070
           H         -0.678760333111    -1.361378035372     1.115178025896     1.007825032070
           H          0.781445868770    -0.768585406608     1.906356293296     1.007825032070
           C          0.398015427711    -1.284684004677     1.034138665592    12.000000000000

  Running in c1 symmetry.

  Rotational constants: A =      0.46158  B =      0.15405  C =      0.13718 [cm^-1]
  Rotational constants: A =  13837.81633  B =   4618.39808  C =   4112.44785 [MHz]
  Nuclear repulsion =  132.844973455273760

  Charge       = 0
  Multiplicity = 1
  Electrons    = 34
  Nalpha       = 17
  Nbeta        = 17

  ==> Algorithm <==

  SCF Algorithm Type is DF.
  DIIS enabled.
  MOM disabled.
  Fractional occupation disabled.
  Guess Type is READ.
  Energy threshold   = 1.00e-10
  Density threshold  = 1.00e-10
  Integral threshold = 0.00e+00

  ==> Primary Basis <==

  Basis Set: 6-31G(D)
    Number of shells: 44
    Number of basis function: 80
    Number of Cartesian functions: 80
    Spherical Harmonics?: false
    Max angular momentum: 2

  ==> Pre-Iterations <==

   -------------------------------------------------------
    Irrep   Nso     Nmo     Nalpha   Nbeta   Ndocc  Nsocc
   -------------------------------------------------------
     A         80      80       0       0       0       0
   -------------------------------------------------------
    Total      80      80      17      17      17       0
   -------------------------------------------------------

  ==> Integral Setup <==

  ==> DFJK: Density-Fitted J/K Matrices <==

    J tasked:                  Yes
    K tasked:                  Yes
    wK tasked:                  No
    OpenMP threads:              1
    Integrals threads:           1
    Memory (MB):               715
    Algorithm:                Core
    Integral Cache:           NONE
    Schwarz Cutoff:          1E-12
    Fitting Condition:       1E-12

   => Auxiliary Basis Set <=

  Basis Set: 
    Number of shells: 186
    Number of basis function: 574
    Number of Cartesian functions: 574
    Spherical Harmonics?: false
    Max angular momentum: 3

  Minimum eigenvalue in the overlap matrix is 5.4347592524E-03.
  Using Symmetric Orthogonalization.
  SCF Guess was Projection but file not found.
  Switching over to SAD guess.

  SCF Guess: Superposition of Atomic Densities via on-the-fly atomic UHF.

  ==> Iterations <==

                           Total Energy        Delta E     RMS |[F,P]|

   @DF-RHF iter   0:  -158.76762026639159   -1.58768e+02   4.57767e-02 
   @DF-RHF iter   1:  -157.19301196708960    1.57461e+00   4.27606e-03 
   @DF-RHF iter   2:  -157.28355148850397   -9.05395e-02   1.32421e-03 DIIS
   @DF-RHF iter   3:  -157.29302548419633   -9.47400e-03   5.23250e-04 DIIS
   @DF-RHF iter   4:  -157.29433043151852   -1.30495e-03   8.56348e-05 DIIS
   @DF-RHF iter   5:  -157.29438488879083   -5.44573e-05   1.60849e-05 DIIS
   @DF-RHF iter   6:  -157.29438687148956   -1.98270e-06   3.77901e-06 DIIS
   @DF-RHF iter   7:  -157.29438694372817   -7.22386e-08   1.01689e-06 DIIS
   @DF-RHF iter   8:  -157.29438695036697   -6.63880e-09   2.11607e-07 DIIS
   @DF-RHF iter   9:  -157.29438695072827   -3.61297e-10   5.78550e-08 DIIS
   @DF-RHF iter  10:  -157.29438695075407   -2.58069e-11   1.48261e-08 DIIS
   @DF-RHF iter  11:  -157.29438695075527   -1.19371e-12   3.47346e-09 DIIS
   @DF-RHF iter  12:  -157.29438695075561   -3.41061e-13   7.68340e-10 DIIS
   @DF-RHF iter  13:  -157.29438695075572   -1.13687e-13   1.60507e-10 DIIS
   @DF-RHF iter  14:  -157.29438695075561    1.13687e-13   5.00671e-11 DIIS

  ==> Post-Iterations <==

    Orbital Energies (a.u.)
    -----------------------

    Doubly Occupied:                                                      

       1A    -11.212656     2A    -11.212082     3A    -11.206324  
       4A    -11.206291     5A     -1.069552     6A     -0.974780  
       7A     -0.868637     8A     -0.781411     9A     -0.625626  
      10A     -0.621431    11A     -0.577026    12A     -0.537213  
      13A     -0.525670    14A     -0.504188    15A     -0.469301  
      16A     -0.456430    17A     -0.450917  

    Virtual:                                                              

      18A      0.231535    19A      0.276946    20A      0.278810  
      21A      0.295463    22A      0.313221    23A      0.316540  
      24A      0.343440    25A      0.349421    26A      0.352532  
      27A      0.390819    28A      0.400959    29A      0.434208  
      30A      0.454482    31A      0.711872    32A      0.726036  
      33A      0.728938    34A      0.744568    35A      0.765373  
      36A      0.835389    37A      0.868406    38A      0.927878  
      39A      0.950081    40A      0.998858    41A      1.084556  
      42A      1.115105    43A      1.161620    44A      1.162981  
      45A      1.187751    46A      1.191667    47A      1.196540  
      48A      1.230457    49A      1.243966    50A      1.251525  
      51A      1.254689    52A      1.276726    53A      1.295224  
      54A      1.508276    55A      1.711541    56A      1.719463  
      57A      1.857125    58A      1.861360    59A      1.998162  
      60A      2.060506    61A      2.189787    62A      2.244161  
      63A      2.286462    64A      2.296152    65A      2.369355  
      66A      2.454130    67A      2.457408    68A      2.596778  
      69A      2.640332    70A      2.659496    71A      2.704551  
      72A      2.760445    73A      2.794259    74A      2.911718  
      75A      2.972184    76A      3.076117    77A      4.563449  
      78A      4.677724    79A      4.837395    80A      4.941286  

    Final Occupation by Irrep:
              A 
    DOCC [    17 ]

  Energy converged.

  @DF-RHF Final Energy:  -157.29438695075561

   => Energetics <=

    Nuclear Repulsion Energy =            132.8449734552737596
    One-Electron Energy =                -473.6796487394997257
    Two-Electron Energy =                 183.5402883334703006
    DFT Exchange-Correlation Energy =       0.0000000000000000
    Empirical Dispersion Energy =           0.0000000000000000
    PCM Polarization Energy =               0.0000000000000000
    EFP Energy =                            0.0000000000000000
    Total Energy =                       -157.2943869507556656


  Saving occupied orbitals to File 180.

*** tstop() called on lski1497 at Thu Feb 16 16:32:40 2017
Module time:
	user time   =       5.31 seconds =       0.09 minutes
	system time =       0.16 seconds =       0.00 minutes
	total time  =          6 seconds =       0.10 minutes
Total time:
	user time   =      29.35 seconds =       0.49 minutes
	system time =       0.86 seconds =       0.01 minutes
	total time  =         36 seconds =       0.60 minutes


Properties will be evaluated at   0.000000,   0.000000,   0.000000 Bohr

Properties computed using the SCF density matrix

  Nuclear Dipole Moment: (a.u.)
     X:    -0.7233      Y:    -0.3069      Z:     0.3363

  Electronic Dipole Moment: (a.u.)
     X:     0.7515      Y:     0.3187      Z:    -0.3495

  Dipole Moment: (a.u.)
     X:     0.0282      Y:     0.0119      Z:    -0.0132     Total:     0.0333

  Dipole Moment: (Debye)
     X:     0.0716      Y:     0.0302      Z:    -0.0336     Total:     0.0847


  //>>>>>>>>>>>>>>>>>>>>>>>>>>>>>>>>>>>//
  //               DFMP2               //
  //<<<<<<<<<<<<<<<<<<<<<<<<<<<<<<<<<<<//


*** tstart() called on lski1497
*** at Thu Feb 16 16:32:40 2017


*** tstop() called on lski1497 at Thu Feb 16 16:32:41 2017
Module time:
	user time   =       0.55 seconds =       0.01 minutes
	system time =       0.00 seconds =       0.00 minutes
	total time  =          1 seconds =       0.02 minutes
Total time:
	user time   =      29.92 seconds =       0.50 minutes
	system time =       0.86 seconds =       0.01 minutes
	total time  =         37 seconds =       0.62 minutes
	 --------------------------------------------------------
	                          DF-MP2                         
	      2nd-Order Density-Fitted Moller-Plesset Theory     
	              RMP2 Wavefunction,   1 Threads             
	                                                         
	        Rob Parrish, Justin Turney, Andy Simmonett,      
	           Ed Hohenstein, and C. David Sherrill          
	 --------------------------------------------------------

   => Auxiliary Basis Set <=

  Basis Set: 
    Number of shells: 132
    Number of basis function: 364
    Number of Cartesian functions: 414
    Spherical Harmonics?: true
    Max angular momentum: 3

	 --------------------------------------------------------
	                 NBF =    80, NAUX =   364
	 --------------------------------------------------------
	   CLASS    FOCC     OCC    AOCC    AVIR     VIR    FVIR
	   PAIRS       0      17      17      63      63       0
	 --------------------------------------------------------

DGAS Warning! /src/lib/libfock/apps.cc:80 is not currently checking restricted

         ------------------------------------------------------------
                                     CPHF                           
                                  Rob Parrish                       
         ------------------------------------------------------------

  ==> Geometry <==

    Molecular point group: c1
    Full point group: C1

    Geometry (in Angstrom), charge = 0, multiplicity = 1:

       Center              X                  Y                   Z               Mass       
    ------------   -----------------  -----------------  -----------------  -----------------
           H         -1.864116847799     0.281520781582     0.065837697569     1.007825032070
           H         -1.701571933430     1.908098111714    -0.592628863901     1.007825032070
           H         -1.397183493772     0.506973532284    -1.620228268138     1.007825032070
           C         -1.297888449862     0.902295399362    -0.616815285162    12.000000000000
           H          0.735590144033     1.546608970604    -0.901268271407     1.007825032070
           H          0.278883168892     1.319261739777     0.792428435545     1.007825032070
           C          0.186387552120     0.916581071200    -0.209944798045    12.000000000000
           H          0.395907750860    -1.032148763172    -1.105373936850     1.007825032070
           H          1.858807978622    -0.444961599335    -0.303758335873     1.007825032070
           C          0.778283333970    -0.506701946446    -0.237506555605    12.000000000000
           H          0.819460631945    -2.282714236868     1.002185839579     1.007825032070
           H         -0.678760333111    -1.361378035372     1.115178025896     1.007825032070
           H          0.781445868770    -0.768585406608     1.906356293296     1.007825032070
           C          0.398015427711    -1.284684004677     1.034138665592    12.000000000000

  Nuclear repulsion =  132.844973455273760
  Reference energy  = -157.294386950755609

  ==> Basis Set <==

  Basis Set: 6-31G(D)
    Number of shells: 44
    Number of basis function: 80
    Number of Cartesian functions: 80
    Spherical Harmonics?: false
    Max angular momentum: 2

  ==> CGRSolver (by Rob Parrish) <==

   Number of roots    =         1
   Preconditioning    =    JACOBI
   Convergence cutoff =     1E-06
   Maximum iterations =       100

  ==> CPHFRHamiltonian (by Rob Parrish) <== 

  ==> DFJK: Density-Fitted J/K Matrices <==

    J tasked:                  Yes
    K tasked:                  Yes
    wK tasked:                  No
    OpenMP threads:              1
    Integrals threads:           1
    Memory (MB):               715
    Algorithm:                Core
    Integral Cache:           NONE
    Schwarz Cutoff:          1E-12
    Fitting Condition:       1E-12

   => Auxiliary Basis Set <=

  Basis Set: 
    Number of shells: 186
    Number of basis function: 574
    Number of Cartesian functions: 574
    Spherical Harmonics?: false
    Max angular momentum: 3

  ==> CPHF Iterations <==

  => Iterations <=

             Iter  Converged  Remaining    Residual
  CGR           1          0          1   7.472E-02
  CGR           2          0          1   8.731E-03
  CGR           3          0          1   2.426E-03
  CGR           4          0          1   4.383E-04
  CGR           5          0          1   8.075E-05
  CGR           6          0          1   1.572E-05
  CGR           7          0          1   2.293E-06
  CGR           8          1          0   4.766E-07

    CGRSolver converged.

  ==> DFCorrGrad: Density-Fitted Correlated Gradients <==

    OpenMP threads:              1
    Integrals threads:           1
    Memory (MB):               715
    Schwarz Cutoff:          0E+00
    Fitting Condition:       1E-12

   => Auxiliary Basis Set <=

  Basis Set: 
    Number of shells: 186
    Number of basis function: 510
    Number of Cartesian functions: 574
    Spherical Harmonics?: true
    Max angular momentum: 3

	-----------------------------------------------------------
	 ==================> DF-MP2 Energies <==================== 
	-----------------------------------------------------------
	 Reference Energy          =    -157.2943869507556087 [Eh]
	 Singles Energy            =      -0.0000000000000000 [Eh]
	 Same-Spin Energy          =      -0.1245435688584633 [Eh]
	 Opposite-Spin Energy      =      -0.4217274066066777 [Eh]
	 Correlation Energy        =      -0.5462709754651410 [Eh]
	 Total Energy              =    -157.8406579262207572 [Eh]
	-----------------------------------------------------------
	 ================> DF-SCS-MP2 Energies <================== 
	-----------------------------------------------------------
	 SCS Same-Spin Scale       =       0.3333333333333333 [-]
	 SCS Opposite-Spin Scale   =       1.2000000000000000 [-]
	 SCS Same-Spin Energy      =      -0.0415145229528211 [Eh]
	 SCS Opposite-Spin Energy  =      -0.5060728879280133 [Eh]
	 SCS Correlation Energy    =      -0.5475874108808344 [Eh]
	 SCS Total Energy          =    -157.8419743616364315 [Eh]
	-----------------------------------------------------------


  -Total Gradient:
     Atom            X                  Y                   Z
    ------   -----------------  -----------------  -----------------
       1        0.005981026642     0.003226677976    -0.002745707900
       2        0.004972407265    -0.004898140318     0.000439680246
       3        0.002636089678     0.002175900017     0.006330090807
       4       -0.016181747576    -0.003897717459    -0.006256503001
       5       -0.003628389795    -0.006367869831     0.002220928492
       6       -0.003594861518    -0.005655856375    -0.005417221450
       7        0.010933320897     0.017710715287     0.010035419423
       8       -0.001417875065     0.003507366079     0.007776570237
       9       -0.007152253895     0.001820588308     0.002662400010
      10        0.009136175183    -0.009279673148    -0.018977107893
      11       -0.001141142455     0.006687477047    -0.002180979188
      12        0.006421720741     0.002094673047    -0.002885354829
      13       -0.001701951413    -0.001645230745    -0.006435902929
      14       -0.005262518688    -0.005478909888     0.015433687974


			-----------------------------------------
			 OPTKING 2.0: for geometry optimizations 
			  - R.A. King,  Bethel University        
			-----------------------------------------

	Previous internal coordinate definitions found.
	---Fragment 1 Geometry and Gradient---
	 H          -3.5226703220        0.5319971779        0.1244152176
	 H          -3.2155049496        3.6057828658       -1.1199062512
	 H          -2.6402941606        0.9580411326       -3.0617876995
	 C          -2.4526537213        1.7050911958       -1.1656119635
	 H           1.3900639183        2.9226673891       -1.7031502052
	 H           0.5270128123        2.4930433858        1.4974727231
	 C           0.3522214281        1.7320872032       -0.3967381713
	 H           0.7481572230       -1.9504784908       -2.0888540151
	 H           3.5126380132       -0.8408555624       -0.5740200654
	 C           1.4707423550       -0.9575279098       -0.4488223449
	 H           1.5485561711       -4.3137047473        1.8938567711
	 H          -1.2826711394       -2.5726316502        2.1073810584
	 H           1.4767186796       -1.4524159282        3.6024913060
	 C           0.7521401550       -2.4277009361        1.9542388614
	             0.0059810266        0.0032266780       -0.0027457079
	             0.0049724073       -0.0048981403        0.0004396802
	             0.0026360897        0.0021759000        0.0063300908
	            -0.0161817476       -0.0038977175       -0.0062565030
	            -0.0036283898       -0.0063678698        0.0022209285
	            -0.0035948615       -0.0056558564       -0.0054172215
	             0.0109333209        0.0177107153        0.0100354194
	            -0.0014178751        0.0035073661        0.0077765702
	            -0.0071522539        0.0018205883        0.0026624000
	             0.0091361752       -0.0092796731       -0.0189771079
	            -0.0011411425        0.0066874770       -0.0021809792
	             0.0064217207        0.0020946730       -0.0028853548
	            -0.0017019514       -0.0016452307       -0.0064359029
	            -0.0052625187       -0.0054789099        0.0154336880

	---Fragment 1 Intrafragment Coordinates---
	 - Coordinate -           - BOHR/RAD -       - ANG/DEG -
	 R(1,4)           =         2.045790	       1.082585
	 R(2,4)           =         2.048575	       1.084059
	 R(3,4)           =         2.046650	       1.083040
	 R(4,7)           =         2.908474	       1.539098
	 R(5,7)           =         2.049710	       1.084660
	 R(6,7)           =         2.048815	       1.084186
	 R(7,10)          =         2.913388	       1.541699
	 R(8,10)          =         2.048849	       1.084204
	 R(9,10)          =         2.049055	       1.084313
	 R(10,14)         =         2.907319	       1.538487
	 R(11,14)         =         2.048154	       1.083836
	 R(12,14)         =         2.045706	       1.082541
	 R(13,14)         =         2.047665	       1.083578
	 B(1,4,2)         =         1.899892	     108.855817
	 B(1,4,3)         =         1.903880	     109.084270
	 B(1,4,7)         =         1.920936	     110.061505
	 B(2,4,3)         =         1.902011	     108.977187
	 B(2,4,7)         =         1.922617	     110.157835
	 B(3,4,7)         =         1.914232	     109.677436
	 B(4,7,5)         =         1.902020	     108.977741
	 B(4,7,6)         =         1.907238	     109.276670
	 B(4,7,10)        =         1.935802	     110.913262
	 B(5,7,6)         =         1.907455	     109.289123
	 B(5,7,10)        =         1.907576	     109.296041
	 B(6,7,10)        =         1.903564	     109.066163
	 B(7,10,8)        =         1.903207	     109.045701
	 B(7,10,9)        =         1.908275	     109.336116
	 B(7,10,14)       =         1.936031	     110.926381
	 B(8,10,9)        =         1.907241	     109.276838
	 B(8,10,14)       =         1.906449	     109.231475
	 B(9,10,14)       =         1.902445	     109.002082
	 B(10,14,11)      =         1.923213	     110.191989
	 B(10,14,12)      =         1.921497	     110.093643
	 B(10,14,13)      =         1.914542	     109.695195
	 B(11,14,12)      =         1.900481	     108.889519
	 B(11,14,13)      =         1.901511	     108.948560
	 B(12,14,13)      =         1.902291	     108.993246
	 D(1,4,7,5)       =        -3.136575	    -179.712506
	 D(1,4,7,6)       =        -1.053295	     -60.349380
	 D(1,4,7,10)      =         1.045854	      59.923041
	 D(2,4,7,5)       =        -1.041520	     -59.674697
	 D(2,4,7,6)       =         1.041760	      59.688429
	 D(2,4,7,10)      =         3.140909	     179.960850
	 D(3,4,7,5)       =         1.051916	      60.270371
	 D(3,4,7,6)       =         3.135196	     179.633496
	 D(3,4,7,10)      =        -1.048840	     -60.094083
	 D(4,7,10,8)      =         0.704630	      40.372316
	 D(4,7,10,9)      =         2.788971	     159.796283
	 D(4,7,10,14)     =        -1.395638	     -79.964149
	 D(5,7,10,8)      =        -1.392823	     -79.802894
	 D(5,7,10,9)      =         0.691518	      39.621073
	 D(5,7,10,14)     =         2.790095	     159.860641
	 D(6,7,10,8)      =         2.805963	     160.769809
	 D(6,7,10,9)      =        -1.392881	     -79.806224
	 D(6,7,10,14)     =         0.705695	      40.433345
	 D(7,10,14,11)    =         3.141180	     179.976330
	 D(7,10,14,12)    =         1.044659	      59.854574
	 D(7,10,14,13)    =        -1.048619	     -60.081433
	 D(8,10,14,11)    =         1.042839	      59.750276
	 D(8,10,14,12)    =        -1.053681	     -60.371480
	 D(8,10,14,13)    =         3.136226	     179.692512
	 D(9,10,14,11)    =        -1.039967	     -59.585692
	 D(9,10,14,12)    =        -3.136487	    -179.707448
	 D(9,10,14,13)    =         1.053420	      60.356544

	Current energy   :      -157.8406579262

	Energy change for the previous step:
		Projected    :        -0.0057501286
		Actual       :        -0.0041784291

	Performing BFGS update.
	Previous computed or guess Hessian on step 1.
	Steps to be used in Hessian update: 1
	Adding user-defined constraint: Fragment 1; Coordinate 49:
		Value =    -1.395638; Fixed value    =    -1.396260
		Force =    -0.000327; Force constant =     0.525000
	Removing off-diagonal coupling between coordinate 49 and others.
	Taking RFO optimization step.
	Going to follow RFO solution 1.
	Using RFO vector 1.

	Determining step-restricting scale parameter for RS-RFO.
	Maximum step size allowed    0.10000

	 Iter      |step|        alpha        rfo_root  
	------------------------------------------------
	    0     0.18832       1.00000           1
	    1     0.14785       5.74111           1
	    2     0.11809      15.42012           1
	    3     0.10402      24.45863           1
	    4     0.10027      27.74068           1
	    5     0.10000      27.99843           1
	------------------------------------------------
	Norm of target step-size    0.10000
	Projected energy change by RFO approximation:        -0.0022129504

	Back-transformation to cartesian coordinates...
	Could not converge backtransformation.
	Using first guess instead.

	--- Internal Coordinate Step in ANG or DEG, aJ/ANG or AJ/DEG ---
	 ---------------------------------------------------------------------------
	   Coordinate                Previous        Force       Change         New 
	   ----------                --------       ------       ------       ------
	    1 R(1,4)          =      1.082585     0.055281     0.008946     1.091531
	    2 R(2,4)          =      1.084059     0.052616     0.007771     1.091830
	    3 R(3,4)          =      1.083040     0.056851     0.008704     1.091744
	    4 R(4,7)          =      1.539098    -0.025719    -0.006909     1.532189
	    5 R(5,7)          =      1.084660     0.057271     0.008501     1.093161
	    6 R(6,7)          =      1.084186     0.061097     0.009510     1.093696
	    7 R(7,10)         =      1.541699    -0.014585    -0.005069     1.536629
	    8 R(8,10)         =      1.084204     0.061170     0.009518     1.093722
	    9 R(9,10)         =      1.084313     0.059205     0.008765     1.093078
	   10 R(10,14)        =      1.538487    -0.023296    -0.006438     1.532049
	   11 R(11,14)        =      1.083836     0.053861     0.007936     1.091772
	   12 R(12,14)        =      1.082541     0.055627     0.008987     1.091528
	   13 R(13,14)        =      1.083578     0.054097     0.008319     1.091897
	   14 B(1,4,2)        =    108.855817    -0.000234    -0.798054   108.057763
	   15 B(1,4,3)        =    109.084270    -0.000190    -0.744096   108.340174
	   16 B(1,4,7)        =    110.061505     0.000243     0.880902   110.942408
	   17 B(2,4,3)        =    108.977187    -0.000185    -0.664891   108.312296
	   18 B(2,4,7)        =    110.157835     0.000229     0.750404   110.908239
	   19 B(3,4,7)        =    109.677436     0.000125     0.509675   110.187111
	   20 B(4,7,5)        =    108.977741    -0.000124    -0.244217   108.733524
	   21 B(4,7,6)        =    109.276670    -0.000068     0.037299   109.313969
	   22 B(4,7,10)       =    110.913262     0.000440     1.308037   112.221299
	   23 B(5,7,6)        =    109.289123    -0.000085    -0.976133   108.312990
	   24 B(5,7,10)       =    109.296041    -0.000051    -0.009953   109.286088
	   25 B(6,7,10)       =    109.066163    -0.000117    -0.170751   108.895413
	   26 B(7,10,8)       =    109.045701    -0.000117    -0.165975   108.879726
	   27 B(7,10,9)       =    109.336116    -0.000054    -0.025667   109.310449
	   28 B(7,10,14)      =    110.926381     0.000438     1.299820   112.226201
	   29 B(8,10,9)       =    109.276838    -0.000085    -0.973172   108.303665
	   30 B(8,10,14)      =    109.231475    -0.000064     0.061092   109.292567
	   31 B(9,10,14)      =    109.002082    -0.000125    -0.251901   108.750181
	   32 B(10,14,11)     =    110.191989     0.000227     0.734126   110.926116
	   33 B(10,14,12)     =    110.093643     0.000238     0.857492   110.951134
	   34 B(10,14,13)     =    109.695195     0.000122     0.499752   110.194947
	   35 B(11,14,12)     =    108.889519    -0.000234    -0.807933   108.081586
	   36 B(11,14,13)     =    108.948560    -0.000182    -0.650034   108.298526
	   37 B(12,14,13)     =    108.993246    -0.000181    -0.699361   108.293885
	   38 D(1,4,7,5)      =   -179.712506     0.000024     0.560287  -179.152219
	   39 D(1,4,7,6)      =    -60.349380    -0.000026    -0.740831   -61.090211
	   40 D(1,4,7,10)     =     59.923041    -0.000005    -0.091921    59.831120
	   41 D(2,4,7,5)      =    -59.674697     0.000027     0.621923   -59.052774
	   42 D(2,4,7,6)      =     59.688429    -0.000023    -0.679195    59.009234
	   43 D(2,4,7,10)     =    179.960850    -0.000003    -0.030285   179.930565
	   44 D(3,4,7,5)      =     60.270371     0.000025     0.598700    60.869071
	   45 D(3,4,7,6)      =    179.633496    -0.000025    -0.702418   178.931079
	   46 D(3,4,7,10)     =    -60.094083    -0.000005    -0.053507   -60.147590
	   47 D(4,7,10,8)     =     40.372316     0.000030     0.906338    41.278654
	   48 D(4,7,10,9)     =    159.796283    -0.000017    -0.384209   159.412074
	   49 D(4,7,10,14)    =    -79.964149     0.000003     0.115095   -79.849054
	   50 D(5,7,10,8)     =    -79.802894     0.000010     0.383510   -79.419384
	   51 D(5,7,10,9)     =     39.621073    -0.000037    -0.907037    38.714035
	   52 D(5,7,10,14)    =    159.860641    -0.000017    -0.407733   159.452908
	   53 D(6,7,10,8)     =    160.769809     0.000057     1.671061   162.440870
	   54 D(6,7,10,9)     =    -79.806224     0.000010     0.380513   -79.425711
	   55 D(6,7,10,14)    =     40.433345     0.000029     0.879817    41.313162
	   56 D(7,10,14,11)   =    179.976330    -0.000003    -0.029093   179.947237
	   57 D(7,10,14,12)   =     59.854574    -0.000004    -0.054467    59.800107
	   58 D(7,10,14,13)   =    -60.081433    -0.000005    -0.050059   -60.131492
	   59 D(8,10,14,11)   =     59.750276    -0.000024    -0.693092    59.057184
	   60 D(8,10,14,12)   =    -60.371480    -0.000025    -0.718466   -61.089946
	   61 D(8,10,14,13)   =    179.692512    -0.000025    -0.714058   178.978455
	   62 D(9,10,14,11)   =    -59.585692     0.000026     0.594692   -58.991000
	   63 D(9,10,14,12)   =   -179.707448     0.000025     0.569318  -179.138130
	   64 D(9,10,14,13)   =     60.356544     0.000024     0.573726    60.930271
	 ---------------------------------------------------------------------------
	 Forces used to impose fixed constraints are not included.
	  Forces zeroed: 49 

  ==> Convergence Check <==

  Measures of convergence in internal coordinates in au.
  Criteria marked as inactive (o), active & met (*), and active & unmet ( ).
  ---------------------------------------------------------------------------------------------
   Step     Total Energy     Delta E     MAX Force     RMS Force      MAX Disp      RMS Disp   
  ---------------------------------------------------------------------------------------------
    Convergence Criteria    1.00e-06 *    3.00e-04 *             o    1.20e-03 *             o
  ---------------------------------------------------------------------------------------------
      2    -157.84065793   -4.18e-03      7.42e-03      3.33e-03 o    2.92e-02      1.25e-02 o  ~
  ---------------------------------------------------------------------------------------------

	Writing optimization data to binary file.
	Structure for next step:
	Cartesian Geometry (in Angstrom)
	    H    -1.8955228946   0.3083591759   0.0591555497
	    H    -1.7024319643   1.9334774761  -0.6072358326
	    H    -1.4155835014   0.5187597998  -1.6316060569
	    C    -1.3000259695   0.9186201804  -0.6223172929
	    H     0.7361681552   1.5422686331  -0.9111888046
	    H     0.2787433550   1.3306199533   0.7883591993
	    C     0.1773251970   0.9101076693  -0.2161577020
	    H     0.4055503441  -1.0395725518  -1.1059742073
	    H     1.8631693945  -0.4383976792  -0.2960985419
	    C     0.7744504010  -0.5057253205  -0.2255493852
	    H     0.8442746004  -2.2980235861   1.0060142194
	    H    -0.6717077630  -1.3986911545   1.1330378668
	    H     0.7882395414  -0.7851378696   1.9229686237
	    C     0.4106119033  -1.2964991122   1.0351930070
			--------------------------
			 OPTKING Finished Execution 
			--------------------------

    Structure for next step:
    Molecular point group: c1
    Full point group: C1

    Geometry (in Angstrom), charge = 0, multiplicity = 1:

    H           -1.895061782383     0.308545999741     0.058910148852
    H           -1.701970852063     1.933664299978    -0.607481233462
    H           -1.415122389200     0.518946623648    -1.631851457844
    C           -1.299564857334     0.918807004230    -0.622562693785
    H            0.736629267368     1.542455456992    -0.911434205474
    H            0.279204467185     1.330806777197     0.788113798369
    C            0.177786309198     0.910294493173    -0.216403102899
    H            0.406011456251    -1.039385727958    -1.106219608172
    H            1.863630506661    -0.438210855353    -0.296343942822
    C            0.774911513229    -0.505538496662    -0.225794786134
    H            0.844735712594    -2.297836762251     1.005768818494
    H           -0.671246650854    -1.398504330619     1.132792465933
    H            0.788700653559    -0.784951045701     1.922723222836
    C            0.411073015456    -1.296312288318     1.034947606068

gradient() will perform analytic gradient computation.
    SCF Algorithm Type (re)set to DF.

*** tstart() called on lski1497
*** at Thu Feb 16 16:33:03 2017


         ---------------------------------------------------------
                                   SCF
            by Justin Turney, Rob Parrish, and Andy Simmonett
                              RHF Reference
                        1 Threads,   1000 MiB Core
         ---------------------------------------------------------

  ==> Geometry <==

    Molecular point group: c1
    Full point group: C1

    Geometry (in Angstrom), charge = 0, multiplicity = 1:

       Center              X                  Y                   Z               Mass       
    ------------   -----------------  -----------------  -----------------  -----------------
           H         -1.895061782383     0.308545999741     0.058910148852     1.007825032070
           H         -1.701970852063     1.933664299978    -0.607481233462     1.007825032070
           H         -1.415122389200     0.518946623648    -1.631851457844     1.007825032070
           C         -1.299564857334     0.918807004230    -0.622562693785    12.000000000000
           H          0.736629267368     1.542455456992    -0.911434205474     1.007825032070
           H          0.279204467185     1.330806777197     0.788113798369     1.007825032070
           C          0.177786309198     0.910294493173    -0.216403102899    12.000000000000
           H          0.406011456251    -1.039385727958    -1.106219608172     1.007825032070
           H          1.863630506661    -0.438210855353    -0.296343942822     1.007825032070
           C          0.774911513229    -0.505538496662    -0.225794786134    12.000000000000
           H          0.844735712594    -2.297836762251     1.005768818494     1.007825032070
           H         -0.671246650854    -1.398504330619     1.132792465933     1.007825032070
           H          0.788700653559    -0.784951045701     1.922723222836     1.007825032070
           C          0.411073015456    -1.296312288318     1.034947606068    12.000000000000

  Running in c1 symmetry.

  Rotational constants: A =      0.46719  B =      0.15162  C =      0.13534 [cm^-1]
  Rotational constants: A =  14006.04187  B =   4545.49617  C =   4057.52206 [MHz]
  Nuclear repulsion =  132.385762351257711

  Charge       = 0
  Multiplicity = 1
  Electrons    = 34
  Nalpha       = 17
  Nbeta        = 17

  ==> Algorithm <==

  SCF Algorithm Type is DF.
  DIIS enabled.
  MOM disabled.
  Fractional occupation disabled.
  Guess Type is READ.
  Energy threshold   = 1.00e-10
  Density threshold  = 1.00e-10
  Integral threshold = 0.00e+00

  ==> Primary Basis <==

  Basis Set: 6-31G(D)
    Number of shells: 44
    Number of basis function: 80
    Number of Cartesian functions: 80
    Spherical Harmonics?: false
    Max angular momentum: 2

  ==> Pre-Iterations <==

   -------------------------------------------------------
    Irrep   Nso     Nmo     Nalpha   Nbeta   Ndocc  Nsocc
   -------------------------------------------------------
     A         80      80       0       0       0       0
   -------------------------------------------------------
    Total      80      80      17      17      17       0
   -------------------------------------------------------

  ==> Integral Setup <==

  ==> DFJK: Density-Fitted J/K Matrices <==

    J tasked:                  Yes
    K tasked:                  Yes
    wK tasked:                  No
    OpenMP threads:              1
    Integrals threads:           1
    Memory (MB):               715
    Algorithm:                Core
    Integral Cache:           NONE
    Schwarz Cutoff:          1E-12
    Fitting Condition:       1E-12

   => Auxiliary Basis Set <=

  Basis Set: 
    Number of shells: 186
    Number of basis function: 574
    Number of Cartesian functions: 574
    Spherical Harmonics?: false
    Max angular momentum: 3

  Minimum eigenvalue in the overlap matrix is 5.4659481726E-03.
  Using Symmetric Orthogonalization.
  SCF Guess was Projection but file not found.
  Switching over to SAD guess.

  SCF Guess: Superposition of Atomic Densities via on-the-fly atomic UHF.

  ==> Iterations <==

                           Total Energy        Delta E     RMS |[F,P]|

   @DF-RHF iter   0:  -158.72234281660474   -1.58722e+02   4.54381e-02 
   @DF-RHF iter   1:  -157.19392856106214    1.52841e+00   4.26000e-03 
   @DF-RHF iter   2:  -157.28439014593789   -9.04616e-02   1.33190e-03 DIIS
   @DF-RHF iter   3:  -157.29392808605166   -9.53794e-03   5.29881e-04 DIIS
   @DF-RHF iter   4:  -157.29526572294770   -1.33764e-03   8.53271e-05 DIIS
   @DF-RHF iter   5:  -157.29531969428342   -5.39713e-05   1.57079e-05 DIIS
   @DF-RHF iter   6:  -157.29532161392700   -1.91964e-06   3.55026e-06 DIIS
   @DF-RHF iter   7:  -157.29532167773067   -6.38037e-08   9.81828e-07 DIIS
   @DF-RHF iter   8:  -157.29532168367433   -5.94366e-09   1.99665e-07 DIIS
   @DF-RHF iter   9:  -157.29532168398708   -3.12752e-10   5.58921e-08 DIIS
   @DF-RHF iter  10:  -157.29532168401079   -2.37037e-11   1.47706e-08 DIIS
   @DF-RHF iter  11:  -157.29532168401215   -1.36424e-12   3.19675e-09 DIIS
   @DF-RHF iter  12:  -157.29532168401221   -5.68434e-14   6.86110e-10 DIIS
   @DF-RHF iter  13:  -157.29532168401192    2.84217e-13   1.46627e-10 DIIS
   @DF-RHF iter  14:  -157.29532168401187    5.68434e-14   4.82553e-11 DIIS

  ==> Post-Iterations <==

    Orbital Energies (a.u.)
    -----------------------

    Doubly Occupied:                                                      

       1A    -11.215315     2A    -11.214737     3A    -11.209445  
       4A    -11.209436     5A     -1.069280     6A     -0.974832  
       7A     -0.867474     8A     -0.778424     9A     -0.622955  
      10A     -0.619560    11A     -0.575120    12A     -0.535560  
      13A     -0.524857    14A     -0.503098    15A     -0.466372  
      16A     -0.455777    17A     -0.453688  

    Virtual:                                                              

      18A      0.229547    19A      0.274380    20A      0.277358  
      21A      0.293129    22A      0.311837    23A      0.315315  
      24A      0.341353    25A      0.346074    26A      0.350222  
      27A      0.390507    28A      0.393590    29A      0.435587  
      30A      0.458920    31A      0.709409    32A      0.726570  
      33A      0.729059    34A      0.743061    35A      0.767170  
      36A      0.838843    37A      0.872706    38A      0.929772  
      39A      0.954384    40A      1.001087    41A      1.083273  
      42A      1.115187    43A      1.152089    44A      1.152944  
      45A      1.179813    46A      1.180772    47A      1.188460  
      48A      1.228633    49A      1.236624    50A      1.244570  
      51A      1.249264    52A      1.266628    53A      1.283881  
      54A      1.497371    55A      1.716167    56A      1.721749  
      57A      1.853829    58A      1.858789    59A      1.995056  
      60A      2.047811    61A      2.189288    62A      2.243572  
      63A      2.278893    64A      2.297793    65A      2.362183  
      66A      2.441159    67A      2.446443    68A      2.586612  
      69A      2.633280    70A      2.651104    71A      2.700786  
      72A      2.753418    73A      2.792510    74A      2.926714  
      75A      2.975357    76A      3.071270    77A      4.558254  
      78A      4.671335    79A      4.834851    80A      4.937612  

    Final Occupation by Irrep:
              A 
    DOCC [    17 ]

  Energy converged.

  @DF-RHF Final Energy:  -157.29532168401187

   => Energetics <=

    Nuclear Repulsion Energy =            132.3857623512577106
    One-Electron Energy =                -472.7703057347970343
    Two-Electron Energy =                 183.0892216995274566
    DFT Exchange-Correlation Energy =       0.0000000000000000
    Empirical Dispersion Energy =           0.0000000000000000
    PCM Polarization Energy =               0.0000000000000000
    EFP Energy =                            0.0000000000000000
    Total Energy =                       -157.2953216840118671


  Saving occupied orbitals to File 180.

*** tstop() called on lski1497 at Thu Feb 16 16:33:10 2017
Module time:
	user time   =       5.18 seconds =       0.09 minutes
	system time =       0.14 seconds =       0.00 minutes
	total time  =          7 seconds =       0.12 minutes
Total time:
	user time   =      53.34 seconds =       0.89 minutes
	system time =       1.50 seconds =       0.03 minutes
	total time  =         66 seconds =       1.10 minutes


Properties will be evaluated at   0.000000,   0.000000,   0.000000 Bohr

Properties computed using the SCF density matrix

  Nuclear Dipole Moment: (a.u.)
     X:    -0.7167      Y:    -0.3042      Z:     0.3328

  Electronic Dipole Moment: (a.u.)
     X:     0.7429      Y:     0.3153      Z:    -0.3450

  Dipole Moment: (a.u.)
     X:     0.0262      Y:     0.0111      Z:    -0.0122     Total:     0.0310

  Dipole Moment: (Debye)
     X:     0.0665      Y:     0.0283      Z:    -0.0310     Total:     0.0787


  //>>>>>>>>>>>>>>>>>>>>>>>>>>>>>>>>>>>//
  //               DFMP2               //
  //<<<<<<<<<<<<<<<<<<<<<<<<<<<<<<<<<<<//


*** tstart() called on lski1497
*** at Thu Feb 16 16:33:10 2017


*** tstop() called on lski1497 at Thu Feb 16 16:33:10 2017
Module time:
	user time   =       0.54 seconds =       0.01 minutes
	system time =       0.00 seconds =       0.00 minutes
	total time  =          0 seconds =       0.00 minutes
Total time:
	user time   =      53.90 seconds =       0.90 minutes
	system time =       1.50 seconds =       0.03 minutes
	total time  =         66 seconds =       1.10 minutes
	 --------------------------------------------------------
	                          DF-MP2                         
	      2nd-Order Density-Fitted Moller-Plesset Theory     
	              RMP2 Wavefunction,   1 Threads             
	                                                         
	        Rob Parrish, Justin Turney, Andy Simmonett,      
	           Ed Hohenstein, and C. David Sherrill          
	 --------------------------------------------------------

   => Auxiliary Basis Set <=

  Basis Set: 
    Number of shells: 132
    Number of basis function: 364
    Number of Cartesian functions: 414
    Spherical Harmonics?: true
    Max angular momentum: 3

	 --------------------------------------------------------
	                 NBF =    80, NAUX =   364
	 --------------------------------------------------------
	   CLASS    FOCC     OCC    AOCC    AVIR     VIR    FVIR
	   PAIRS       0      17      17      63      63       0
	 --------------------------------------------------------

DGAS Warning! /src/lib/libfock/apps.cc:80 is not currently checking restricted

         ------------------------------------------------------------
                                     CPHF                           
                                  Rob Parrish                       
         ------------------------------------------------------------

  ==> Geometry <==

    Molecular point group: c1
    Full point group: C1

    Geometry (in Angstrom), charge = 0, multiplicity = 1:

       Center              X                  Y                   Z               Mass       
    ------------   -----------------  -----------------  -----------------  -----------------
           H         -1.895061782383     0.308545999741     0.058910148852     1.007825032070
           H         -1.701970852063     1.933664299978    -0.607481233462     1.007825032070
           H         -1.415122389200     0.518946623648    -1.631851457844     1.007825032070
           C         -1.299564857334     0.918807004230    -0.622562693785    12.000000000000
           H          0.736629267368     1.542455456992    -0.911434205474     1.007825032070
           H          0.279204467185     1.330806777197     0.788113798369     1.007825032070
           C          0.177786309198     0.910294493173    -0.216403102899    12.000000000000
           H          0.406011456251    -1.039385727958    -1.106219608172     1.007825032070
           H          1.863630506661    -0.438210855353    -0.296343942822     1.007825032070
           C          0.774911513229    -0.505538496662    -0.225794786134    12.000000000000
           H          0.844735712594    -2.297836762251     1.005768818494     1.007825032070
           H         -0.671246650854    -1.398504330619     1.132792465933     1.007825032070
           H          0.788700653559    -0.784951045701     1.922723222836     1.007825032070
           C          0.411073015456    -1.296312288318     1.034947606068    12.000000000000

  Nuclear repulsion =  132.385762351257711
  Reference energy  = -157.295321684011867

  ==> Basis Set <==

  Basis Set: 6-31G(D)
    Number of shells: 44
    Number of basis function: 80
    Number of Cartesian functions: 80
    Spherical Harmonics?: false
    Max angular momentum: 2

  ==> CGRSolver (by Rob Parrish) <==

   Number of roots    =         1
   Preconditioning    =    JACOBI
[...]
    Memory (MB):               715
    Algorithm:                Core
    Integral Cache:           NONE
    Schwarz Cutoff:          1E-12
    Fitting Condition:       1E-12

   => Auxiliary Basis Set <=

  Basis Set: 
    Number of shells: 186
    Number of basis function: 574
    Number of Cartesian functions: 574
    Spherical Harmonics?: false
    Max angular momentum: 3

  ==> CPHF Iterations <==

  => Iterations <=

             Iter  Converged  Remaining    Residual
  CGR           1          0          1   7.622E-02
  CGR           2          0          1   9.085E-03
  CGR           3          0          1   2.529E-03
  CGR           4          0          1   4.360E-04
  CGR           5          0          1   8.211E-05
  CGR           6          0          1   1.605E-05
  CGR           7          0          1   2.220E-06
  CGR           8          1          0   4.421E-07

    CGRSolver converged.

  ==> DFCorrGrad: Density-Fitted Correlated Gradients <==

    OpenMP threads:              1
    Integrals threads:           1
    Memory (MB):               715
    Schwarz Cutoff:          0E+00
    Fitting Condition:       1E-12

   => Auxiliary Basis Set <=

  Basis Set: 
    Number of shells: 186
    Number of basis function: 510
    Number of Cartesian functions: 574
    Spherical Harmonics?: true
    Max angular momentum: 3

	-----------------------------------------------------------
	 ==================> DF-MP2 Energies <==================== 
	-----------------------------------------------------------
	 Reference Energy          =    -157.2956943265144787 [Eh]
	 Singles Energy            =      -0.0000000000000000 [Eh]
	 Same-Spin Energy          =      -0.1245483285036226 [Eh]
	 Opposite-Spin Energy      =      -0.4224274273189460 [Eh]
	 Correlation Energy        =      -0.5469757558225686 [Eh]
	 Total Energy              =    -157.8426700823370368 [Eh]
	-----------------------------------------------------------
	 ================> DF-SCS-MP2 Energies <================== 
	-----------------------------------------------------------
	 SCS Same-Spin Scale       =       0.3333333333333333 [-]
	 SCS Opposite-Spin Scale   =       1.2000000000000000 [-]
	 SCS Same-Spin Energy      =      -0.0415161095012075 [Eh]
	 SCS Opposite-Spin Energy  =      -0.5069129127827352 [Eh]
	 SCS Correlation Energy    =      -0.5484290222839427 [Eh]
	 SCS Total Energy          =    -157.8441233487984334 [Eh]
	-----------------------------------------------------------


  -Total Gradient:
     Atom            X                  Y                   Z
    ------   -----------------  -----------------  -----------------
       1        0.000008920102     0.000006046575    -0.000003258180
       2       -0.000012602262     0.000000695068    -0.000002624674
       3       -0.000007240904     0.000006462424     0.000007349127
       4        0.000545676925     0.000226256704    -0.001942166597
       5       -0.000009002675    -0.000001603849     0.000020159785
       6       -0.000006856649     0.000000135345    -0.000002077876
       7       -0.000108160544     0.000004266863     0.003028938456
       8       -0.000001558214    -0.000003526383     0.000005687274
       9       -0.000018832711    -0.000010078289    -0.000007165480
      10       -0.002059016784    -0.000925375206    -0.002022829092
      11       -0.000003131302    -0.000007544747     0.000009955953
      12        0.000009968580     0.000002060846    -0.000005815368
      13       -0.000004328281    -0.000011637035    -0.000002342917
      14        0.001666164721     0.000713841683     0.000916189589


			-----------------------------------------
			 OPTKING 2.0: for geometry optimizations 
			  - R.A. King,  Bethel University        
			-----------------------------------------

	Previous internal coordinate definitions found.
	---Fragment 1 Geometry and Gradient---
	 H          -3.6149918382        0.6026947943        0.0829812620
	 H          -3.2153022433        3.6775397221       -1.1458518856
	 H          -2.6932404237        1.0174822201       -3.1000506971
	 C          -2.4577034433        1.7550924948       -1.1833338630
	 H           1.3867778876        2.8996802683       -1.7366701661
	 H           0.5602995205        2.5610323034        1.4554545699
	 C           0.3222505246        1.7081537787       -0.4182177403
	 H           0.8324460088       -1.9694953236       -2.1022185095
	 H           3.5197057254       -0.8157496164       -0.5417948634
	 C           1.4570166202       -0.9524490134       -0.4080383194
	 H           1.6090197379       -4.3597743106        1.8917962978
	 H          -1.2523967748       -2.6700311404        2.1773155856
	 H           1.5163433061       -1.5173243126        3.6465705246
	 C           0.7919290790       -2.4625942153        1.9568863747
	             0.0000089201        0.0000060466       -0.0000032582
	            -0.0000126023        0.0000006951       -0.0000026247
	            -0.0000072409        0.0000064624        0.0000073491
	             0.0005456769        0.0002262567       -0.0019421666
	            -0.0000090027       -0.0000016038        0.0000201598
	            -0.0000068566        0.0000001353       -0.0000020779
	            -0.0001081605        0.0000042669        0.0030289385
	            -0.0000015582       -0.0000035264        0.0000056873
	            -0.0000188327       -0.0000100783       -0.0000071655
	            -0.0020590168       -0.0009253752       -0.0020228291
	            -0.0000031313       -0.0000075447        0.0000099560
	             0.0000099686        0.0000020608       -0.0000058154
	            -0.0000043283       -0.0000116370       -0.0000023429
	             0.0016661647        0.0007138417        0.0009161896

	---Fragment 1 Intrafragment Coordinates---
	 - Coordinate -           - BOHR/RAD -       - ANG/DEG -
	 R(1,4)           =         2.066613	       1.093605
	 R(2,4)           =         2.066680	       1.093640
	 R(3,4)           =         2.067208	       1.093919
	 R(4,7)           =         2.883704	       1.525991
	 R(5,7)           =         2.071538	       1.096211
	 R(6,7)           =         2.072370	       1.096651
	 R(7,10)          =         2.892508	       1.530650
	 R(8,10)          =         2.072370	       1.096651
	 R(9,10)          =         2.071537	       1.096210
	 R(10,14)         =         2.883704	       1.525990
	 R(11,14)         =         2.066680	       1.093640
	 R(12,14)         =         2.066613	       1.093604
	 R(13,14)         =         2.067207	       1.093919
	 B(1,4,2)         =         1.877918	     107.596754
	 B(1,4,3)         =         1.881120	     107.780222
	 B(1,4,7)         =         1.947860	     111.604130
	 B(2,4,3)         =         1.882795	     107.876186
	 B(2,4,7)         =         1.943053	     111.328723
	 B(3,4,7)         =         1.928411	     110.489823
	 B(4,7,5)         =         1.893533	     108.491456
	 B(4,7,6)         =         1.921886	     110.115966
	 B(4,7,10)        =         1.975888	     113.210068
	 B(5,7,6)         =         1.854268	     106.241751
	 B(5,7,10)        =         1.906794	     109.251247
	 B(6,7,10)        =         1.907424	     109.287342
	 B(7,10,8)        =         1.907424	     109.287347
	 B(7,10,9)        =         1.906793	     109.251212
	 B(7,10,14)       =         1.975886	     113.209921
	 B(8,10,9)        =         1.854270	     106.241848
	 B(8,10,14)       =         1.921889	     110.116146
	 B(9,10,14)       =         1.893532	     108.491369
	 B(10,14,11)      =         1.943052	     111.328705
	 B(10,14,12)      =         1.947855	     111.603890
	 B(10,14,13)      =         1.928414	     110.489960
	 B(11,14,12)      =         1.877918	     107.596794
	 B(11,14,13)      =         1.882795	     107.876198
	 B(12,14,13)      =         1.881121	     107.780299
	 D(1,4,7,5)       =        -3.134353	    -179.585192
	 D(1,4,7,6)       =        -1.111779	     -63.700227
	 D(1,4,7,10)      =         1.029215	      58.969653
	 D(2,4,7,5)       =        -1.035688	     -59.340544
	 D(2,4,7,6)       =         0.986886	      56.544421
	 D(2,4,7,10)      =         3.127880	     179.214302
	 D(3,4,7,5)       =         1.056048	      60.507107
	 D(3,4,7,6)       =         3.078622	     176.392073
	 D(3,4,7,10)      =        -1.063570	     -60.938047
	 D(4,7,10,8)      =         0.758585	      43.463693
	 D(4,7,10,9)      =         2.780631	     159.318396
	 D(4,7,10,14)     =        -1.390416	     -79.664996
	 D(5,7,10,8)      =        -1.353558	     -77.553148
	 D(5,7,10,9)      =         0.668488	      38.301556
	 D(5,7,10,14)     =         2.780627	     159.318164
	 D(6,7,10,8)      =         2.907583	     166.592248
	 D(6,7,10,9)      =        -1.353556	     -77.553048
	 D(6,7,10,14)     =         0.758582	      43.463559
	 D(7,10,14,11)    =         3.127889	     179.214852
	 D(7,10,14,12)    =         1.029226	      58.970329
	 D(7,10,14,13)    =        -1.063558	     -60.937403
	 D(8,10,14,11)    =         0.986895	      56.544936
	 D(8,10,14,12)    =        -1.111768	     -63.699588
	 D(8,10,14,13)    =         3.078633	     176.392681
	 D(9,10,14,11)    =        -1.035682	     -59.340194
	 D(9,10,14,12)    =        -3.134345	    -179.584718
	 D(9,10,14,13)    =         1.056056	      60.507551

	Current energy   :      -157.8426700823

	Energy change for the previous step:
		Projected    :        -0.0000030905
		Actual       :        -0.0000011420

	Performing BFGS update.
	Previous computed or guess Hessian on step 1.
	Steps to be used in Hessian update: 5 4
	Adding user-defined constraint: Fragment 1; Coordinate 49:
		Value =    -1.390416; Fixed value    =    -1.396260
		Force =    -0.003652; Force constant =     0.625000
	Removing off-diagonal coupling between coordinate 49 and others.
	Taking RFO optimization step.
	Going to follow RFO solution 1.
	Using RFO vector 1.
	Norm of target step-size    0.00081
	Projected energy change by RFO approximation:        -0.0000000072

	Back-transformation to cartesian coordinates...
	Successfully converged to displaced geometry.

	--- Internal Coordinate Step in ANG or DEG, aJ/ANG or AJ/DEG ---
	 ---------------------------------------------------------------------------
	   Coordinate                Previous        Force       Change         New 
	   ----------                --------       ------       ------       ------
	    1 R(1,4)          =      1.093605     0.000085     0.000046     1.093651
	    2 R(2,4)          =      1.093640    -0.000042     0.000022     1.093662
	    3 R(3,4)          =      1.093919     0.000067     0.000048     1.093968
	    4 R(4,7)          =      1.525991    -0.000029    -0.000024     1.525967
	    5 R(5,7)          =      1.096211     0.000151     0.000026     1.096237
	    6 R(6,7)          =      1.096651     0.000022     0.000036     1.096687
	    7 R(7,10)         =      1.530650    -0.000473    -0.000112     1.530538
	    8 R(8,10)         =      1.096651     0.000021     0.000036     1.096687
	    9 R(9,10)         =      1.096210     0.000156     0.000028     1.096238
	   10 R(10,14)        =      1.525990    -0.000027    -0.000023     1.525968
	   11 R(11,14)        =      1.093640    -0.000043     0.000023     1.093663
	   12 R(12,14)        =      1.093604     0.000088     0.000047     1.093651
	   13 R(13,14)        =      1.093919     0.000071     0.000048     1.093967
	   14 B(1,4,2)        =    107.596754     0.000000     0.002051   107.598805
	   15 B(1,4,3)        =    107.780222     0.000000     0.000865   107.781087
	   16 B(1,4,7)        =    111.604130     0.000001     0.003335   111.607465
	   17 B(2,4,3)        =    107.876186     0.000001     0.001622   107.877808
	   18 B(2,4,7)        =    111.328723    -0.000001    -0.008077   111.320646
	   19 B(3,4,7)        =    110.489823    -0.000001     0.000457   110.490280
	   20 B(4,7,5)        =    108.491456    -0.000001    -0.000751   108.490704
	   21 B(4,7,6)        =    110.115966     0.000002     0.006985   110.122951
	   22 B(4,7,10)       =    113.210068    -0.000001    -0.006769   113.203298
	   23 B(5,7,6)        =    106.241751     0.000000     0.005569   106.247320
	   24 B(5,7,10)       =    109.251247    -0.000000    -0.005302   109.245944
	   25 B(6,7,10)       =    109.287342     0.000000     0.000935   109.288276
	   26 B(7,10,8)       =    109.287347     0.000000     0.000853   109.288200
	   27 B(7,10,9)       =    109.251212    -0.000000    -0.005243   109.245969
	   28 B(7,10,14)      =    113.209921    -0.000001    -0.006629   113.203292
	   29 B(8,10,9)       =    106.241848     0.000000     0.005535   106.247383
	   30 B(8,10,14)      =    110.116146     0.000002     0.006610   110.122756
	   31 B(9,10,14)      =    108.491369    -0.000001    -0.000465   108.490904
	   32 B(10,14,11)     =    111.328705    -0.000001    -0.008077   111.320627
	   33 B(10,14,12)     =    111.603890     0.000001     0.003566   111.607456
	   34 B(10,14,13)     =    110.489960    -0.000001     0.000133   110.490093
	   35 B(11,14,12)     =    107.596794     0.000000     0.002047   107.598841
	   36 B(11,14,13)     =    107.876198     0.000001     0.001665   107.877864
	   37 B(12,14,13)     =    107.780299     0.000000     0.000924   107.781223
	   38 D(1,4,7,5)      =   -179.585192    -0.000000    -0.008115  -179.593307
	   39 D(1,4,7,6)      =    -63.700227    -0.000000     0.001970   -63.698258
	   40 D(1,4,7,10)     =     58.969653     0.000000     0.003575    58.973229
	   41 D(2,4,7,5)      =    -59.340544    -0.000000    -0.008765   -59.349309
	   42 D(2,4,7,6)      =     56.544421     0.000000     0.001319    56.545741
	   43 D(2,4,7,10)     =    179.214302     0.000000     0.002925   179.217227
	   44 D(3,4,7,5)      =     60.507107    -0.000000    -0.011711    60.495397
	   45 D(3,4,7,6)      =    176.392073    -0.000000    -0.001627   176.390446
	   46 D(3,4,7,10)     =    -60.938047     0.000000    -0.000021   -60.938068
	   47 D(4,7,10,8)     =     43.463693    -0.000000     0.002388    43.466081
	   48 D(4,7,10,9)     =    159.318396    -0.000000     0.006564   159.324960
	   49 D(4,7,10,14)    =    -79.664996    -0.000001    -0.002162   -79.667158
	   50 D(5,7,10,8)     =    -77.553148     0.000000     0.011615   -77.541533
	   51 D(5,7,10,9)     =     38.301556     0.000000     0.015790    38.317346
	   52 D(5,7,10,14)    =    159.318164    -0.000000     0.007064   159.325228
	   53 D(6,7,10,8)     =    166.592248     0.000000     0.007385   166.599633
	   54 D(6,7,10,9)     =    -77.553048     0.000000     0.011561   -77.541487
	   55 D(6,7,10,14)    =     43.463559    -0.000000     0.002835    43.466394
	   56 D(7,10,14,11)   =    179.214852     0.000000     0.001528   179.216380
	   57 D(7,10,14,12)   =     58.970329     0.000000     0.002026    58.972355
	   58 D(7,10,14,13)   =    -60.937403     0.000000    -0.001579   -60.938981
	   59 D(8,10,14,11)   =     56.544936     0.000000     0.000207    56.545143
	   60 D(8,10,14,12)   =    -63.699588    -0.000000     0.000706   -63.698882
	   61 D(8,10,14,13)   =    176.392681    -0.000000    -0.002899   176.389781
	   62 D(9,10,14,11)   =    -59.340194    -0.000000    -0.009793   -59.349988
	   63 D(9,10,14,12)   =   -179.584718    -0.000000    -0.009295  -179.594013
	   64 D(9,10,14,13)   =     60.507551    -0.000000    -0.012900    60.494651
	 ---------------------------------------------------------------------------
	 Forces used to impose fixed constraints are not included.
	  Forces zeroed: 49 

  ==> Convergence Check <==

  Measures of convergence in internal coordinates in au.
  Criteria marked as inactive (o), active & met (*), and active & unmet ( ).
  ---------------------------------------------------------------------------------------------
   Step     Total Energy     Delta E     MAX Force     RMS Force      MAX Disp      RMS Disp   
  ---------------------------------------------------------------------------------------------
    Convergence Criteria    1.00e-06 *    3.00e-04 *             o    1.20e-03 *             o
  ---------------------------------------------------------------------------------------------
      6    -157.84267008   -1.14e-06      5.74e-05 *    1.29e-05 o    2.76e-04 *    1.01e-04 o  ~
  ---------------------------------------------------------------------------------------------


  **** Optimization is complete! (in 6 steps) ****

  ==> Optimization Summary <==

  Measures of convergence in internal coordinates in au.
  --------------------------------------------------------------------------------------------------------------- ~
   Step         Total Energy             Delta E       MAX Force       RMS Force        MAX Disp        RMS Disp  ~
  --------------------------------------------------------------------------------------------------------------- ~
      1    -157.836479497133   -157.836479497133      0.01809336      0.00733733      0.02801835      0.01250083  ~
      2    -157.840657926221     -0.004178429088      0.00742471      0.00333358      0.02916551      0.01252843  ~
      3    -157.842226362380     -0.001568436160      0.00214182      0.00099857      0.04659638      0.01251809  ~
      4    -157.842622716342     -0.000396353962      0.00112492      0.00026460      0.02462746      0.01099242  ~
      5    -157.842668940346     -0.000046224003      0.00016096      0.00005756      0.00253306      0.00085159  ~
      6    -157.842670082337     -0.000001141992      0.00005743      0.00001408      0.00027559      0.00010128  ~
  --------------------------------------------------------------------------------------------------------------- ~

	Writing optimization data to binary file.
	Final energy is   -157.8426700823370
	Final (previous) structure:
	Cartesian Geometry (in Angstrom)
	    H    -1.9129712900   0.3189323489   0.0439117926
	    H    -1.7014646659   1.9460702046  -0.6063587023
	    H    -1.4252014495   0.5384284010  -1.6404761744
	    C    -1.3005606477   0.9287549472  -0.6261933105
	    H     0.7338512515   1.5344447102  -0.9190062707
	    H     0.2964977362   1.3552399254   0.7701933865
	    C     0.1705276331   0.9039160485  -0.2213112964
	    H     0.4405114553  -1.0422120377  -1.1124461227
	    H     1.8625480508  -0.4316761049  -0.2867054934
	    C     0.7710199879  -0.5040143102  -0.2159245789
	    H     0.8514565735  -2.3070931998   1.0010954841
	    H    -0.6627398294  -1.4129196257   1.1521857838
	    H     0.8024143180  -0.8029334443   1.9296820111
	    C     0.4190708194  -1.3031487328   1.0355396693
	Saving final (previous) structure.
			--------------------------
			 OPTKING Finished Execution 
			--------------------------

    Final optimized geometry and variables:
    Molecular point group: c1
    Full point group: C1

    Geometry (in Angstrom), charge = 0, multiplicity = 1:

    H           -1.912971290038     0.318932348857     0.043911792593
    H           -1.701464665882     1.946070204614    -0.606358702293
    H           -1.425201449480     0.538428401034    -1.640476174383
    C           -1.300560647672     0.928754947192    -0.626193310461
    H            0.733851251470     1.534444710187    -0.919006270742
    H            0.296497736216     1.355239925400     0.770193386514
    C            0.170527633062     0.903916048458    -0.221311296415
    H            0.440511455260    -1.042212037673    -1.112446122714
    H            1.862548050845    -0.431676104908    -0.286705493436
    C            0.771019987949    -0.504014310234    -0.215924578870
    H            0.851456573470    -2.307093199791     1.001095484082
    H           -0.662739829355    -1.412919625717     1.152185783783
    H            0.802414317972    -0.802933444286     1.929682011111
    C            0.419070819421    -1.303148732765     1.035539669290

	Cleaning optimization helper files.

*** Psi4 exiting successfully. Buy a developer a beer!
