    -----------------------------------------------------------------------
          Psi4: An Open-Source Ab Initio Electronic Structure Package
                              Psi4 1.0.0 Driver

                          Git: Rev {master} 6a9a71b 

    J. M. Turney, A. C. Simmonett, R. M. Parrish, E. G. Hohenstein,
    F. A. Evangelista, J. T. Fermann, B. J. Mintz, L. A. Burns, J. J. Wilke,
    M. L. Abrams, N. J. Russ, M. L. Leininger, C. L. Janssen, E. T. Seidl,
    W. D. Allen, H. F. Schaefer, R. A. King, E. F. Valeev, C. D. Sherrill,
    and T. D. Crawford, WIREs Comput. Mol. Sci. 2, 556-565 (2012)
    (doi: 10.1002/wcms.93)

                         Additional Contributions by
    A. E. DePrince, U. Bozkaya, A. Yu. Sokolov, D. G. A. Smith, R. Di Remigio,
    R. M. Richard, J. F. Gonthier, H. R. McAlexander, M. Saitow, and
    B. P. Pritchard
    -----------------------------------------------------------------------


    Psi4 started on: Thu Feb 16 15:19:24 2017

    Process ID:  96295
    PSI4DATADIR: /Users/sternc1/anaconda/share/psi4
    Memory level set to 256.000 MB

  ==> Input File <==

--------------------------------------------------------------------------

memory 1000 mb

molecule butane {
  symmetry C1
  0 1 
  H      1.604   0.760   -8.260
  H      1.745   2.388   -8.880
  H      2.043   1.024   -9.930
  C      2.142   1.395   -8.932
  H      4.169   2.051   -9.210
  H      3.731   1.788   -7.539
  C      3.631   1.416   -8.537
  H      4.720   -0.237   -7.703
  H      3.404   -0.710   -8.749
  C      4.203   -0.012   -8.612
  H      5.578   -1.104   -9.849
  H      5.980   0.585   -9.661
  H      4.664   0.112   -10.707
  C      5.180   -0.113   -9.797
  units Angstrom
}

dih_string = "4 7 10 14 110"
set optking fixed_dihedral = $dih_string

optimize('MP2/6-31G(d)')
--------------------------------------------------------------------------

  Memory set to 1000.000 MiB by Python script.
gradient() will perform analytic gradient computation.
    SCF Algorithm Type (re)set to DF.

*** tstart() called on lski1497
*** at Thu Feb 16 15:19:25 2017


         ---------------------------------------------------------
                                   SCF
            by Justin Turney, Rob Parrish, and Andy Simmonett
                              RHF Reference
                        1 Threads,   1000 MiB Core
         ---------------------------------------------------------

  ==> Geometry <==

    Molecular point group: c1
    Full point group: C1

    Geometry (in Angstrom), charge = 0, multiplicity = 1:

       Center              X                  Y                   Z               Mass       
    ------------   -----------------  -----------------  -----------------  -----------------
           H         -2.180627073704     0.089506467163     0.723260835528     1.007825032070
           H         -2.039627073704     1.717506467163     0.103260835528     1.007825032070
           H         -1.741627073704     0.353506467163    -0.946739164472     1.007825032070
           C         -1.642627073704     0.724506467163     0.051260835528    12.000000000000
           H          0.384372926296     1.380506467163    -0.226739164472     1.007825032070
           H         -0.053627073704     1.117506467163     1.444260835528     1.007825032070
           C         -0.153627073704     0.745506467163     0.446260835528    12.000000000000
           H          0.935372926296    -0.907493532837     1.280260835528     1.007825032070
           H         -0.380627073704    -1.380493532837     0.234260835528     1.007825032070
           C          0.418372926296    -0.682493532837     0.371260835528    12.000000000000
           H          1.793372926296    -1.774493532837    -0.865739164472     1.007825032070
           H          2.195372926296    -0.085493532837    -0.677739164472     1.007825032070
           H          0.879372926296    -0.558493532837    -1.723739164472     1.007825032070
           C          1.395372926296    -0.783493532837    -0.813739164472    12.000000000000

  Running in c1 symmetry.

  Rotational constants: A =      0.55072  B =      0.13659  C =      0.13336 [cm^-1]
  Rotational constants: A =  16510.03712  B =   4094.82218  C =   3997.93474 [MHz]
  Nuclear repulsion =  132.836472697519184

  Charge       = 0
  Multiplicity = 1
  Electrons    = 34
  Nalpha       = 17
  Nbeta        = 17

  ==> Algorithm <==

  SCF Algorithm Type is DF.
  DIIS enabled.
  MOM disabled.
  Fractional occupation disabled.
  Guess Type is SAD.
  Energy threshold   = 1.00e-10
  Density threshold  = 1.00e-10
  Integral threshold = 0.00e+00

  ==> Primary Basis <==

  Basis Set: 6-31G(D)
    Number of shells: 44
    Number of basis function: 80
    Number of Cartesian functions: 80
    Spherical Harmonics?: false
    Max angular momentum: 2

  ==> Pre-Iterations <==

   -------------------------------------------------------
    Irrep   Nso     Nmo     Nalpha   Nbeta   Ndocc  Nsocc
   -------------------------------------------------------
     A         80      80       0       0       0       0
   -------------------------------------------------------
    Total      80      80      17      17      17       0
   -------------------------------------------------------

  ==> Integral Setup <==

  ==> DFJK: Density-Fitted J/K Matrices <==

    J tasked:                  Yes
    K tasked:                  Yes
    wK tasked:                  No
    OpenMP threads:              1
    Integrals threads:           1
    Memory (MB):               715
    Algorithm:                Core
    Integral Cache:           NONE
    Schwarz Cutoff:          1E-12
    Fitting Condition:       1E-12

   => Auxiliary Basis Set <=

  Basis Set: 
    Number of shells: 186
    Number of basis function: 574
    Number of Cartesian functions: 574
    Spherical Harmonics?: false
    Max angular momentum: 3

  Minimum eigenvalue in the overlap matrix is 4.9599322608E-03.
  Using Symmetric Orthogonalization.
  SCF Guess: Superposition of Atomic Densities via on-the-fly atomic UHF.

  ==> Iterations <==

                           Total Energy        Delta E     RMS |[F,P]|

   @DF-RHF iter   0:  -158.98530100615335   -1.58985e+02   4.75213e-02 
   @DF-RHF iter   1:  -157.20043640151812    1.78486e+00   3.94640e-03 
   @DF-RHF iter   2:  -157.28007719542228   -7.96408e-02   1.08727e-03 DIIS
   @DF-RHF iter   3:  -157.28788085497774   -7.80366e-03   2.43165e-04 DIIS
   @DF-RHF iter   4:  -157.28821942300794   -3.38568e-04   7.58802e-05 DIIS
   @DF-RHF iter   5:  -157.28825246468324   -3.30417e-05   1.26409e-05 DIIS
   @DF-RHF iter   6:  -157.28825363064823   -1.16596e-06   2.15545e-06 DIIS
   @DF-RHF iter   7:  -157.28825365308586   -2.24376e-08   6.83718e-07 DIIS
   @DF-RHF iter   8:  -157.28825365527626   -2.19040e-09   9.99036e-08 DIIS
   @DF-RHF iter   9:  -157.28825365535943   -8.31619e-11   2.13518e-08 DIIS
   @DF-RHF iter  10:  -157.28825365536318   -3.75167e-12   4.15524e-09 DIIS
   @DF-RHF iter  11:  -157.28825365536346   -2.84217e-13   7.52968e-10 DIIS
   @DF-RHF iter  12:  -157.28825365536352   -5.68434e-14   2.43460e-10 DIIS
   @DF-RHF iter  13:  -157.28825365536358   -5.68434e-14   6.22123e-11 DIIS

  ==> Post-Iterations <==

    Orbital Energies (a.u.)
    -----------------------

    Doubly Occupied:                                                      

       1A    -11.206271     2A    -11.205680     3A    -11.201150  
       4A    -11.201007     5A     -1.071786     6A     -0.979421  
       7A     -0.866254     8A     -0.792091     9A     -0.635934  
      10A     -0.610345    11A     -0.583010    12A     -0.550877  
      13A     -0.517859    14A     -0.509154    15A     -0.471994  
      16A     -0.461220    17A     -0.443295  

    Virtual:                                                              

      18A      0.234356    19A      0.274854    20A      0.287489  
      21A      0.296254    22A      0.317224    23A      0.326333  
      24A      0.339269    25A      0.350152    26A      0.351386  
      27A      0.366132    28A      0.411053    29A      0.449784  
      30A      0.453718    31A      0.714328    32A      0.728432  
      33A      0.731497    34A      0.783443    35A      0.790759  
      36A      0.813891    37A      0.841548    38A      0.936111  
      39A      0.941701    40A      0.999277    41A      1.056262  
      42A      1.108287    43A      1.174002    44A      1.177004  
      45A      1.195251    46A      1.209611    47A      1.210033  
      48A      1.228117    49A      1.245784    50A      1.258284  
      51A      1.264427    52A      1.285306    53A      1.285736  
      54A      1.448153    55A      1.688249    56A      1.736548  
      57A      1.802754    58A      1.902604    59A      2.048662  
      60A      2.064519    61A      2.190865    62A      2.251020  
      63A      2.266857    64A      2.309141    65A      2.384383  
      66A      2.464713    67A      2.504467    68A      2.637430  
      69A      2.653126    70A      2.672510    71A      2.732969  
      72A      2.766964    73A      2.792189    74A      2.897621  
      75A      3.003252    76A      3.085937    77A      4.574743  
      78A      4.665798    79A      4.834128    80A      4.966829  

    Final Occupation by Irrep:
              A 
    DOCC [    17 ]

  Energy converged.

  @DF-RHF Final Energy:  -157.28825365536358

   => Energetics <=

    Nuclear Repulsion Energy =            132.8364726975191843
    One-Electron Energy =                -473.6347591310327516
    Two-Electron Energy =                 183.5100327781501619
    DFT Exchange-Correlation Energy =       0.0000000000000000
    Empirical Dispersion Energy =           0.0000000000000000
    PCM Polarization Energy =               0.0000000000000000
    EFP Energy =                            0.0000000000000000
    Total Energy =                       -157.2882536553634054


  Saving occupied orbitals to File 180.

*** tstop() called on lski1497 at Thu Feb 16 15:19:28 2017
Module time:
	user time   =       3.19 seconds =       0.05 minutes
	system time =       0.14 seconds =       0.00 minutes
	total time  =          3 seconds =       0.05 minutes
Total time:
	user time   =       3.19 seconds =       0.05 minutes
	system time =       0.14 seconds =       0.00 minutes
	total time  =          3 seconds =       0.05 minutes


Properties will be evaluated at   0.000000,   0.000000,   0.000000 Bohr

Properties computed using the SCF density matrix

  Nuclear Dipole Moment: (a.u.)
     X:    -0.1952      Y:    -0.0449      Z:    -0.6144

  Electronic Dipole Moment: (a.u.)
     X:     0.2067      Y:     0.0469      Z:     0.6494

  Dipole Moment: (a.u.)
     X:     0.0115      Y:     0.0019      Z:     0.0350     Total:     0.0369

  Dipole Moment: (Debye)
     X:     0.0292      Y:     0.0049      Z:     0.0889     Total:     0.0937


  //>>>>>>>>>>>>>>>>>>>>>>>>>>>>>>>>>>>//
  //               DFMP2               //
  //<<<<<<<<<<<<<<<<<<<<<<<<<<<<<<<<<<<//


*** tstart() called on lski1497
*** at Thu Feb 16 15:19:28 2017


*** tstop() called on lski1497 at Thu Feb 16 15:19:28 2017
Module time:
	user time   =       0.28 seconds =       0.00 minutes
	system time =       0.00 seconds =       0.00 minutes
	total time  =          0 seconds =       0.00 minutes
Total time:
	user time   =       3.48 seconds =       0.06 minutes
	system time =       0.14 seconds =       0.00 minutes
	total time  =          3 seconds =       0.05 minutes
	 --------------------------------------------------------
	                          DF-MP2                         
	      2nd-Order Density-Fitted Moller-Plesset Theory     
	              RMP2 Wavefunction,   1 Threads             
	                                                         
	        Rob Parrish, Justin Turney, Andy Simmonett,      
	           Ed Hohenstein, and C. David Sherrill          
	 --------------------------------------------------------

   => Auxiliary Basis Set <=

  Basis Set: 
    Number of shells: 132
    Number of basis function: 364
    Number of Cartesian functions: 414
    Spherical Harmonics?: true
    Max angular momentum: 3

	 --------------------------------------------------------
	                 NBF =    80, NAUX =   364
	 --------------------------------------------------------
	   CLASS    FOCC     OCC    AOCC    AVIR     VIR    FVIR
	   PAIRS       0      17      17      63      63       0
	 --------------------------------------------------------

DGAS Warning! /src/lib/libfock/apps.cc:80 is not currently checking restricted

         ------------------------------------------------------------
                                     CPHF                           
                                  Rob Parrish                       
         ------------------------------------------------------------

  ==> Geometry <==

    Molecular point group: c1
    Full point group: C1

    Geometry (in Angstrom), charge = 0, multiplicity = 1:

       Center              X                  Y                   Z               Mass       
    ------------   -----------------  -----------------  -----------------  -----------------
           H         -2.180627073704     0.089506467163     0.723260835528     1.007825032070
           H         -2.039627073704     1.717506467163     0.103260835528     1.007825032070
           H         -1.741627073704     0.353506467163    -0.946739164472     1.007825032070
           C         -1.642627073704     0.724506467163     0.051260835528    12.000000000000
           H          0.384372926296     1.380506467163    -0.226739164472     1.007825032070
           H         -0.053627073704     1.117506467163     1.444260835528     1.007825032070
           C         -0.153627073704     0.745506467163     0.446260835528    12.000000000000
           H          0.935372926296    -0.907493532837     1.280260835528     1.007825032070
           H         -0.380627073704    -1.380493532837     0.234260835528     1.007825032070
           C          0.418372926296    -0.682493532837     0.371260835528    12.000000000000
           H          1.793372926296    -1.774493532837    -0.865739164472     1.007825032070
           H          2.195372926296    -0.085493532837    -0.677739164472     1.007825032070
           H          0.879372926296    -0.558493532837    -1.723739164472     1.007825032070
           C          1.395372926296    -0.783493532837    -0.813739164472    12.000000000000

  Nuclear repulsion =  132.836472697519184
  Reference energy  = -157.288253655363576

  ==> Basis Set <==

  Basis Set: 6-31G(D)
    Number of shells: 44
    Number of basis function: 80
    Number of Cartesian functions: 80
    Spherical Harmonics?: false
    Max angular momentum: 2

  ==> CGRSolver (by Rob Parrish) <==

   Number of roots    =         1
   Preconditioning    =    JACOBI
   Convergence cutoff =     1E-06
   Maximum iterations =       100

  ==> CPHFRHamiltonian (by Rob Parrish) <== 

  ==> DFJK: Density-Fitted J/K Matrices <==

    J tasked:                  Yes
    K tasked:                  Yes
    wK tasked:                  No
    OpenMP threads:              1
    Integrals threads:           1
    Memory (MB):               715
    Algorithm:                Core
    Integral Cache:           NONE
    Schwarz Cutoff:          1E-12
    Fitting Condition:       1E-12

   => Auxiliary Basis Set <=

  Basis Set: 
    Number of shells: 186
    Number of basis function: 574
    Number of Cartesian functions: 574
    Spherical Harmonics?: false
    Max angular momentum: 3

  ==> CPHF Iterations <==

  => Iterations <=

             Iter  Converged  Remaining    Residual
  CGR           1          0          1   7.366E-02
  CGR           2          0          1   8.833E-03
  CGR           3          0          1   2.599E-03
  CGR           4          0          1   4.285E-04
  CGR           5          0          1   8.237E-05
  CGR           6          0          1   1.920E-05
  CGR           7          0          1   3.442E-06
  CGR           8          1          0   6.140E-07

    CGRSolver converged.

  ==> DFCorrGrad: Density-Fitted Correlated Gradients <==

    OpenMP threads:              1
    Integrals threads:           1
    Memory (MB):               715
    Schwarz Cutoff:          0E+00
    Fitting Condition:       1E-12

   => Auxiliary Basis Set <=

  Basis Set: 
    Number of shells: 186
    Number of basis function: 510
    Number of Cartesian functions: 574
    Spherical Harmonics?: true
    Max angular momentum: 3

	-----------------------------------------------------------
	 ==================> DF-MP2 Energies <==================== 
	-----------------------------------------------------------
	 Reference Energy          =    -157.2882536553635759 [Eh]
	 Singles Energy            =      -0.0000000000000000 [Eh]
	 Same-Spin Energy          =      -0.1244417755716706 [Eh]
	 Opposite-Spin Energy      =      -0.4204214826832509 [Eh]
	 Correlation Energy        =      -0.5448632582549214 [Eh]
	 Total Energy              =    -157.8331169136185110 [Eh]
	-----------------------------------------------------------
	 ================> DF-SCS-MP2 Energies <================== 
	-----------------------------------------------------------
	 SCS Same-Spin Scale       =       0.3333333333333333 [-]
	 SCS Opposite-Spin Scale   =       1.2000000000000000 [-]
	 SCS Same-Spin Energy      =      -0.0414805918572235 [Eh]
	 SCS Opposite-Spin Energy  =      -0.5045057792199010 [Eh]
	 SCS Correlation Energy    =      -0.5459863710771246 [Eh]
	 SCS Total Energy          =    -157.8342400264407104 [Eh]
	-----------------------------------------------------------


  -Total Gradient:
     Atom            X                  Y                   Z
    ------   -----------------  -----------------  -----------------
       1        0.010357684639     0.009034215917    -0.009052348897
       2        0.010559874007    -0.013752770508     0.000936313375
       3        0.004090590535     0.005931103570     0.015776698015
       4       -0.027200080344    -0.008763123589    -0.008542299104
       5       -0.008877785672    -0.012873033669     0.007266198357
       6       -0.001789425016    -0.010250018991    -0.014506327975
       7        0.023323307574     0.026966353401     0.005040797344
       8       -0.007475001695     0.008014582439    -0.014202005652
       9        0.011278150633     0.013551255792    -0.001072779440
      10       -0.014739387250    -0.025128839527     0.020828583584
      11       -0.008970789002     0.015305871389     0.005040306446
      12       -0.012906666078    -0.009444959230    -0.000039041334
      13        0.006004621540    -0.003277786584     0.015367250289
      14        0.016344906131     0.004687149590    -0.022841345008


			-----------------------------------------
			 OPTKING 2.0: for geometry optimizations 
			  - R.A. King,  Bethel University        
			-----------------------------------------

	Internal coordinates to be generated automatically.
	Detected frag 1 with atoms:  1 2 3 4 5 6 7 8 9 10 11 12 13 14
	---Fragment 1 Bond Connectivity---
	 1 : 4
	 2 : 4
	 3 : 4
	 4 : 1 2 3 7
	 5 : 7
	 6 : 7
	 7 : 4 5 6 10
	 8 : 10
	 9 : 10
	 10 : 7 8 9 14
	 11 : 14
	 12 : 14
	 13 : 14
	 14 : 10 11 12 13

	Assuming in current code that numbering for constraints corresponds to unified fragment.
	Fixed dihedral atom list: 
	     4     7    10    14
	---Fragment 1 Geometry and Gradient---
	 H          -4.1207879673        0.1691427101        1.3667649018
	 H          -3.8543365825        3.2456168544        0.1951346994
	 H          -3.2911981949        0.6680304091       -1.7890777401
	 C          -3.1041153078        1.3691188044        0.0968689405
	 H           0.7263595636        2.6087791476       -0.4284749245
	 H          -0.1013404826        2.1117811747        2.7292574436
	 C          -0.2903130959        1.4088030532        0.8433107630
	 H           1.7675986628       -1.7149142444        2.4193423578
	 H          -0.7192809281       -2.6087547053        0.4426888228
	 C           0.7906102521       -1.2897258645        0.7015813030
	 H           3.3889836848       -3.3533068016       -1.6360099234
	 H           4.1486535903       -0.1615593632       -1.2807414104
	 H           1.6617739994       -1.0553998240       -3.2573949454
	 C           2.6368726839       -1.4805882039       -1.5377441645
	             0.0103576846        0.0090342159       -0.0090523489
	             0.0105598740       -0.0137527705        0.0009363134
	             0.0040905905        0.0059311036        0.0157766980
	            -0.0272000803       -0.0087631236       -0.0085422991
	            -0.0088777857       -0.0128730337        0.0072661984
	            -0.0017894250       -0.0102500190       -0.0145063280
	             0.0233233076        0.0269663534        0.0050407973
	            -0.0074750017        0.0080145824       -0.0142020057
	             0.0112781506        0.0135512558       -0.0010727794
	            -0.0147393873       -0.0251288395        0.0208285836
	            -0.0089707890        0.0153058714        0.0050403064
	            -0.0129066661       -0.0094449592       -0.0000390413
	             0.0060046215       -0.0032777866        0.0153672503
	             0.0163449061        0.0046871496       -0.0228413450

	Previous optimization step data not found.  Starting new optimization.

	---Fragment 1 Intrafragment Coordinates---
	 - Coordinate -           - BOHR/RAD -       - ANG/DEG -
	 R(1,4)           =         2.021436	       1.069698
	 R(2,4)           =         2.023298	       1.070683
	 R(3,4)           =         2.020723	       1.069320
	 R(4,7)           =         2.911397	       1.540645
	 R(5,7)           =         2.022623	       1.070326
	 R(6,7)           =         2.021555	       1.069761
	 R(7,10)          =         2.910419	       1.540128
	 R(8,10)          =         2.021384	       1.069671
	 R(9,10)          =         2.021542	       1.069754
	 R(10,14)         =         2.908555	       1.539141
	 R(11,14)         =         2.020495	       1.069200
	 R(12,14)         =         2.022713	       1.070374
	 R(13,14)         =         2.022078	       1.070038
	 B(1,4,2)         =         1.910870	     109.484805
	 B(1,4,3)         =         1.911121	     109.499161
	 B(1,4,7)         =         1.910399	     109.457783
	 B(2,4,3)         =         1.910042	     109.437340
	 B(2,4,7)         =         1.910564	     109.467262
	 B(3,4,7)         =         1.910803	     109.480971
	 B(4,7,5)         =         1.909937	     109.431343
	 B(4,7,6)         =         1.911630	     109.528316
	 B(4,7,10)        =         1.911154	     109.501062
	 B(5,7,6)         =         1.910605	     109.469614
	 B(5,7,10)        =         1.910047	     109.437654
	 B(6,7,10)        =         1.910425	     109.459295
	 B(7,10,8)        =         1.910444	     109.460375
	 B(7,10,9)        =         1.911152	     109.500917
	 B(7,10,14)       =         1.911434	     109.517096
	 B(8,10,9)        =         1.909834	     109.425439
	 B(8,10,14)       =         1.910981	     109.491145
	 B(9,10,14)       =         1.909954	     109.432317
	 B(10,14,11)      =         1.911927	     109.545355
	 B(10,14,12)      =         1.911142	     109.500363
	 B(10,14,13)      =         1.912252	     109.563987
	 B(11,14,12)      =         1.909622	     109.413283
	 B(11,14,13)      =         1.910319	     109.453239
	 B(12,14,13)      =         1.908532	     109.350812
	 D(1,4,7,5)       =         3.140997	     179.965873
	 D(1,4,7,6)       =        -1.047644	     -60.025575
	 D(1,4,7,10)      =         1.047427	      60.013132
	 D(2,4,7,5)       =        -1.047689	     -60.028143
	 D(2,4,7,6)       =         1.046856	      59.980409
	 D(2,4,7,10)      =        -3.141259	    -179.980883
	 D(3,4,7,5)       =         1.046044	      59.933911
	 D(3,4,7,6)       =         3.140588	     179.942463
	 D(3,4,7,10)      =        -1.047526	     -60.018830
	 D(4,7,10,8)      =        -2.268367	    -129.967857
	 D(4,7,10,9)      =        -0.174749	     -10.012389
	 D(4,7,10,14)     =         1.919623	     109.986272
	 D(5,7,10,8)      =         1.921315	     110.083268
	 D(5,7,10,9)      =        -2.268252	    -129.961265
	 D(5,7,10,14)     =        -0.173880	      -9.962604
	 D(6,7,10,8)      =        -0.172559	      -9.886931
	 D(6,7,10,9)      =         1.921058	     110.068536
	 D(6,7,10,14)     =        -2.267755	    -129.932803
	 D(7,10,14,11)    =         3.140782	     179.953559
	 D(7,10,14,12)    =         1.046521	      59.961226
	 D(7,10,14,13)    =        -1.046603	     -59.965961
	 D(8,10,14,11)    =         1.045915	      59.926507
	 D(8,10,14,12)    =        -1.048346	     -60.065826
	 D(8,10,14,13)    =        -3.141471	    -179.993013
	 D(9,10,14,11)    =        -1.047299	     -60.005815
	 D(9,10,14,12)    =        -3.141560	    -179.998148
	 D(9,10,14,13)    =         1.048501	      60.074665

	Current energy   :      -157.8331169136

	Generating empirical Hessian (Schlegel '84) for each fragment.
	Adding user-defined constraint: Fragment 1; Coordinate 49:
		Value =     1.919623; Fixed value    =     1.919862
		Force =     0.000120; Force constant =     0.500000
	Removing off-diagonal coupling between coordinate 49 and others.
	Taking RFO optimization step.
	Going to follow RFO solution 1.
	Using RFO vector 1.

	Determining step-restricting scale parameter for RS-RFO.
	Maximum step size allowed    0.10000

	 Iter      |step|        alpha        rfo_root  
	------------------------------------------------
	    0     0.23724       1.00000           1
	    1     0.17818       5.56242           1
	    2     0.13569      16.95576           1
	    3     0.11137      33.17250           1
	    4     0.10171      43.96531           1
	    5     0.10005      46.20792           1
	    6     0.10000      46.27555           1
	------------------------------------------------
	Norm of target step-size    0.10000
	Projected energy change by RFO approximation:        -0.0054960952

	Back-transformation to cartesian coordinates...
	Successfully converged to displaced geometry.

	--- Internal Coordinate Step in ANG or DEG, aJ/ANG or AJ/DEG ---
	 ---------------------------------------------------------------------------
	   Coordinate                Previous        Force       Change         New 
	   ----------                --------       ------       ------       ------
	    1 R(1,4)          =      1.069698     0.133954     0.013504     1.083201
	    2 R(2,4)          =      1.070683     0.136969     0.013835     1.084518
	    3 R(3,4)          =      1.069320     0.141384     0.014242     1.083562
	    4 R(4,7)          =      1.540645    -0.020164    -0.002359     1.538286
	    5 R(5,7)          =      1.070326     0.137328     0.013861     1.084187
	    6 R(6,7)          =      1.069761     0.142240     0.014341     1.084102
	    7 R(7,10)         =      1.540128     0.061574     0.007197     1.547324
	    8 R(8,10)         =      1.069671     0.143086     0.014423     1.084094
	    9 R(9,10)         =      1.069754     0.141115     0.014227     1.083981
	   10 R(10,14)        =      1.539141    -0.014224    -0.001660     1.537481
	   11 R(11,14)        =      1.069200     0.146409     0.014745     1.083945
	   12 R(12,14)        =      1.070374     0.130259     0.013149     1.083523
	   13 R(13,14)        =      1.070038     0.137205     0.013841     1.083879
	   14 B(1,4,2)        =    109.484805    -0.000289    -0.503405   108.981400
	   15 B(1,4,3)        =    109.499161    -0.000193    -0.362164   109.136997
	   16 B(1,4,7)        =    109.457783     0.000150     0.257927   109.715710
	   17 B(2,4,3)        =    109.437340    -0.000291    -0.515125   108.922215
	   18 B(2,4,7)        =    109.467262     0.000481     0.865943   110.333206
	   19 B(3,4,7)        =    109.480971     0.000142     0.245537   109.726508
	   20 B(4,7,5)        =    109.431343    -0.000209    -0.325660   109.105683
	   21 B(4,7,6)        =    109.528316    -0.000256    -0.429144   109.099173
	   22 B(4,7,10)       =    109.501062     0.000712     1.168912   110.669974
	   23 B(5,7,6)        =    109.469614    -0.000054    -0.280642   109.188971
	   24 B(5,7,10)       =    109.437654    -0.000152    -0.185825   109.251830
	   25 B(6,7,10)       =    109.459295    -0.000040     0.043444   109.502739
	   26 B(7,10,8)       =    109.460375    -0.000042     0.038342   109.498717
	   27 B(7,10,9)       =    109.500917    -0.000160    -0.203146   109.297771
	   28 B(7,10,14)      =    109.517096     0.000715     1.173958   110.691053
	   29 B(8,10,9)       =    109.425439    -0.000052    -0.275433   109.150006
	   30 B(8,10,14)      =    109.491145    -0.000254    -0.422645   109.068500
	   31 B(9,10,14)      =    109.432317    -0.000208    -0.321004   109.111313
	   32 B(10,14,11)     =    109.545355     0.000472     0.849535   110.394890
	   33 B(10,14,12)     =    109.500363     0.000141     0.243010   109.743373
	   34 B(10,14,13)     =    109.563987     0.000130     0.223614   109.787601
	   35 B(11,14,12)     =    109.413283    -0.000279    -0.485108   108.928175
	   36 B(11,14,13)     =    109.453239    -0.000288    -0.511182   108.942057
	   37 B(12,14,13)     =    109.350812    -0.000179    -0.334029   109.016783
	   38 D(1,4,7,5)      =    179.965873     0.000032     0.323671   180.289544
	   39 D(1,4,7,6)      =    -60.025575    -0.000049    -0.472263   -60.497838
	   40 D(1,4,7,10)     =     60.013132     0.000004     0.035825    60.048957
	   41 D(2,4,7,5)      =    -60.028143     0.000039     0.402050   -59.626092
	   42 D(2,4,7,6)      =     59.980409    -0.000041    -0.393884    59.586525
	   43 D(2,4,7,10)     =   -179.980883     0.000012     0.114204  -179.866679
	   44 D(3,4,7,5)      =     59.933911     0.000045     0.457959    60.391870
	   45 D(3,4,7,6)      =    179.942463    -0.000036    -0.337975   179.604487
	   46 D(3,4,7,10)     =    -60.018830     0.000017     0.170113   -59.848717
	   47 D(4,7,10,8)     =   -129.967857     0.000015     0.151488  -129.816369
	   48 D(4,7,10,9)     =    -10.012389    -0.000028    -0.285530   -10.297919
	   49 D(4,7,10,14)    =    109.986272    -0.000009    -0.081429   109.904843
	   50 D(5,7,10,8)     =    110.083268    -0.000005    -0.052873   110.030395
	   51 D(5,7,10,9)     =   -129.961265    -0.000048    -0.489890  -130.451155
	   52 D(5,7,10,14)    =     -9.962604    -0.000028    -0.285789   -10.248393
	   53 D(6,7,10,8)     =     -9.886931     0.000037     0.376713    -9.510218
	   54 D(6,7,10,9)     =    110.068536    -0.000006    -0.060304   110.008232
	   55 D(6,7,10,14)    =   -129.932803     0.000014     0.143797  -129.789006
	   56 D(7,10,14,11)   =    179.953559     0.000013     0.125848   180.079407
	   57 D(7,10,14,12)   =     59.961226     0.000005     0.043299    60.004526
	   58 D(7,10,14,13)   =    -59.965961     0.000017     0.165675   -59.800287
	   59 D(8,10,14,11)   =     59.926507    -0.000040    -0.382375    59.544133
	   60 D(8,10,14,12)   =    -60.065826    -0.000048    -0.464924   -60.530749
	   61 D(8,10,14,13)   =   -179.993013    -0.000036    -0.342548  -180.335561
	   62 D(9,10,14,11)   =    -60.005815     0.000039     0.399315   -59.606500
	   63 D(9,10,14,12)   =   -179.998148     0.000031     0.316766  -179.681382
	   64 D(9,10,14,13)   =     60.074665     0.000043     0.439141    60.513806
	 ---------------------------------------------------------------------------
	 Forces used to impose fixed constraints are not included.
	  Forces zeroed: 49 

  ==> Convergence Check <==

  Measures of convergence in internal coordinates in au.
  Criteria marked as inactive (o), active & met (*), and active & unmet ( ).
  --------------------------------------------------------------------------------------------- ~
   Step     Total Energy     Delta E     MAX Force     RMS Force      MAX Disp      RMS Disp    ~
  --------------------------------------------------------------------------------------------- ~
    Convergence Criteria    1.00e-06 *    3.00e-04 *             o    1.20e-03 *             o  ~
  --------------------------------------------------------------------------------------------- ~
      1    -157.83311691   -1.58e+02      1.78e-02      7.27e-03 o    2.79e-02      1.25e-02 o  ~
  ---------------------------------------------------------------------------------------------

	Writing optimization data to binary file.
	Structure for next step:
	Cartesian Geometry (in Angstrom)
	    H    -2.2044246664   0.0617838370   0.7346138822
	    H    -2.0846091799   1.7131056818   0.1242978004
	    H    -1.7699754429   0.3510812371  -0.9519648076
	    C    -1.6624729738   0.7160227351   0.0626131343
	    H     0.3576169942   1.4018450814  -0.2245195954
	    H    -0.0778057658   1.1137011782   1.4639027834
	    C    -0.1741079191   0.7407599691   0.4505336836
	    H     0.9659581777  -0.9022013910   1.2813250224
	    H    -0.3573966372  -1.4022483945   0.2230477976
	    C     0.4370620758  -0.6779846669   0.3619472003
	    H     1.8420341818  -1.7700530944  -0.8765067147
	    H     2.2200670358  -0.0577537835  -0.6866622819
	    H     0.8993380692  -0.5577383593  -1.7448938748
	    C     1.4179370185  -0.7742294898  -0.8180823323
			--------------------------
			 OPTKING Finished Execution 
			--------------------------

    Structure for next step:
    Molecular point group: c1
    Full point group: C1

    Geometry (in Angstrom), charge = 0, multiplicity = 1:

    H           -2.204600019621     0.061681126923     0.734241343764
    H           -2.084784533119     1.713002971750     0.123925261948
    H           -1.770150796146     0.350978527014    -0.952337346024
    C           -1.662648327007     0.715920024993     0.062240595904
    H            0.357441640957     1.401742371374    -0.224892133849
    H           -0.077981119102     1.113598468132     1.463530244944
    C           -0.174283272310     0.740657259008     0.450161145176
    H            0.965782824452    -0.902304101019     1.280952483940
    H           -0.357571990424    -1.402351104582     0.222675259141
    C            0.436886722575    -0.678087376928     0.361574661865
    H            1.841858828557    -1.770155804500    -0.876879253117
    H            2.219891682518    -0.057856493590    -0.687034820342
    H            0.899162715973    -0.557841069395    -1.745266413253
    C            1.417761665281    -0.774332199827    -0.818454870688

gradient() will perform analytic gradient computation.
    SCF Algorithm Type (re)set to DF.

*** tstart() called on lski1497
*** at Thu Feb 16 15:19:39 2017


         ---------------------------------------------------------
                                   SCF
            by Justin Turney, Rob Parrish, and Andy Simmonett
                              RHF Reference
                        1 Threads,   1000 MiB Core
         ---------------------------------------------------------

  ==> Geometry <==

    Molecular point group: c1
    Full point group: C1

    Geometry (in Angstrom), charge = 0, multiplicity = 1:

       Center              X                  Y                   Z               Mass       
    ------------   -----------------  -----------------  -----------------  -----------------
           H         -2.204600019621     0.061681126923     0.734241343764     1.007825032070
           H         -2.084784533119     1.713002971750     0.123925261948     1.007825032070
           H         -1.770150796146     0.350978527014    -0.952337346024     1.007825032070
           C         -1.662648327007     0.715920024993     0.062240595904    12.000000000000
           H          0.357441640957     1.401742371374    -0.224892133849     1.007825032070
           H         -0.077981119102     1.113598468132     1.463530244944     1.007825032070
           C         -0.174283272310     0.740657259008     0.450161145176    12.000000000000
           H          0.965782824452    -0.902304101019     1.280952483940     1.007825032070
           H         -0.357571990424    -1.402351104582     0.222675259141     1.007825032070
           C          0.436886722575    -0.678087376928     0.361574661865    12.000000000000
           H          1.841858828557    -1.770155804500    -0.876879253117     1.007825032070
           H          2.219891682518    -0.057856493590    -0.687034820342     1.007825032070
           H          0.899162715973    -0.557841069395    -1.745266413253     1.007825032070
           C          1.417761665281    -0.774332199827    -0.818454870688    12.000000000000

  Running in c1 symmetry.

  Rotational constants: A =      0.55200  B =      0.13399  C =      0.13079 [cm^-1]
  Rotational constants: A =  16548.66211  B =   4016.89386  C =   3921.08271 [MHz]
  Nuclear repulsion =  131.856206498642592

  Charge       = 0
  Multiplicity = 1
  Electrons    = 34
  Nalpha       = 17
  Nbeta        = 17

  ==> Algorithm <==

  SCF Algorithm Type is DF.
  DIIS enabled.
  MOM disabled.
  Fractional occupation disabled.
  Guess Type is READ.
  Energy threshold   = 1.00e-10
  Density threshold  = 1.00e-10
  Integral threshold = 0.00e+00

  ==> Primary Basis <==

  Basis Set: 6-31G(D)
    Number of shells: 44
    Number of basis function: 80
    Number of Cartesian functions: 80
    Spherical Harmonics?: false
    Max angular momentum: 2

  ==> Pre-Iterations <==

   -------------------------------------------------------
    Irrep   Nso     Nmo     Nalpha   Nbeta   Ndocc  Nsocc
   -------------------------------------------------------
     A         80      80       0       0       0       0
   -------------------------------------------------------
    Total      80      80      17      17      17       0
   -------------------------------------------------------

  ==> Integral Setup <==

  ==> DFJK: Density-Fitted J/K Matrices <==

    J tasked:                  Yes
    K tasked:                  Yes
    wK tasked:                  No
    OpenMP threads:              1
    Integrals threads:           1
    Memory (MB):               715
    Algorithm:                Core
    Integral Cache:           NONE
    Schwarz Cutoff:          1E-12
    Fitting Condition:       1E-12

   => Auxiliary Basis Set <=

  Basis Set: 
    Number of shells: 186
    Number of basis function: 574
    Number of Cartesian functions: 574
    Spherical Harmonics?: false
    Max angular momentum: 3

  Minimum eigenvalue in the overlap matrix is 5.1017593105E-03.
  Using Symmetric Orthogonalization.
  SCF Guess was Projection but file not found.
  Switching over to SAD guess.

  SCF Guess: Superposition of Atomic Densities via on-the-fly atomic UHF.

  ==> Iterations <==

                           Total Energy        Delta E     RMS |[F,P]|

   @DF-RHF iter   0:  -158.87789017192964   -1.58878e+02   4.65430e-02 
   @DF-RHF iter   1:  -157.20194181418876    1.67595e+00   3.93123e-03 
   @DF-RHF iter   2:  -157.28272335492485   -8.07815e-02   1.10351e-03 DIIS
   @DF-RHF iter   3:  -157.29080548081467   -8.08213e-03   2.58057e-04 DIIS
   @DF-RHF iter   4:  -157.29118305425030   -3.77573e-04   7.72787e-05 DIIS
   @DF-RHF iter   5:  -157.29121951183842   -3.64576e-05   1.24427e-05 DIIS
   @DF-RHF iter   6:  -157.29122069348782   -1.18165e-06   1.55838e-06 DIIS
   @DF-RHF iter   7:  -157.29122071039561   -1.69078e-08   3.95764e-07 DIIS
   @DF-RHF iter   8:  -157.29122071112917   -7.33564e-10   1.11253e-07 DIIS
   @DF-RHF iter   9:  -157.29122071120739   -7.82165e-11   2.50130e-08 DIIS
   @DF-RHF iter  10:  -157.29122071121228   -4.88853e-12   5.06831e-09 DIIS
   @DF-RHF iter  11:  -157.29122071121284   -5.68434e-13   8.47189e-10 DIIS
   @DF-RHF iter  12:  -157.29122071121284    0.00000e+00   2.27631e-10 DIIS
   @DF-RHF iter  13:  -157.29122071121273    1.13687e-13   6.99763e-11 DIIS

  ==> Post-Iterations <==

    Orbital Energies (a.u.)
    -----------------------

    Doubly Occupied:                                                      

       1A    -11.211852     2A    -11.211297     3A    -11.206814  
       4A    -11.206750     5A     -1.068000     6A     -0.977323  
       7A     -0.862182     8A     -0.786859     9A     -0.631488  
      10A     -0.607188    11A     -0.579533    12A     -0.548344  
      13A     -0.514334    14A     -0.506505    15A     -0.468346  
      16A     -0.458748    17A     -0.446912  

    Virtual:                                                              

      18A      0.232040    19A      0.272414    20A      0.284017  
      21A      0.292669    22A      0.314755    23A      0.323257  
      24A      0.335272    25A      0.346071    26A      0.347691  
      27A      0.361209    28A      0.407762    29A      0.450029  
      30A      0.453954    31A      0.715863    32A      0.728376  
      33A      0.732060    34A      0.783483    35A      0.791352  
      36A      0.815738    37A      0.847152    38A      0.932281  
      39A      0.941711    40A      0.994923    41A      1.060449  
      42A      1.108201    43A      1.161255    44A      1.164471  
      45A      1.179716    46A      1.196298    47A      1.196409  
      48A      1.216796    49A      1.239229    50A      1.245274  
      51A      1.253514    52A      1.268884    53A      1.269819  
      54A      1.442896    55A      1.692482    56A      1.738071  
      57A      1.795559    58A      1.894714    59A      2.028968  
      60A      2.056523    61A      2.188851    62A      2.241289  
      63A      2.267600    64A      2.308407    65A      2.367840  
      66A      2.451138    67A      2.484719    68A      2.617408  
      69A      2.635408    70A      2.653876    71A      2.719662  
      72A      2.750354    73A      2.780897    74A      2.890951  
      75A      3.000637    76A      3.074628    77A      4.561228  
      78A      4.656541    79A      4.827465    80A      4.959347  

    Final Occupation by Irrep:
              A 
    DOCC [    17 ]

  Energy converged.

  @DF-RHF Final Energy:  -157.29122071121273

   => Energetics <=

    Nuclear Repulsion Energy =            131.8562064986425924
    One-Electron Energy =                -471.7099099817525030
    Two-Electron Energy =                 182.5624827718971801
    DFT Exchange-Correlation Energy =       0.0000000000000000
    Empirical Dispersion Energy =           0.0000000000000000
    PCM Polarization Energy =               0.0000000000000000
    EFP Energy =                            0.0000000000000000
    Total Energy =                       -157.2912207112127589


  Saving occupied orbitals to File 180.

*** tstop() called on lski1497 at Thu Feb 16 15:19:41 2017
Module time:
	user time   =       2.98 seconds =       0.05 minutes
	system time =       0.11 seconds =       0.00 minutes
	total time  =          2 seconds =       0.03 minutes
Total time:
	user time   =      17.36 seconds =       0.29 minutes
	system time =       0.64 seconds =       0.01 minutes
	total time  =         16 seconds =       0.27 minutes


Properties will be evaluated at   0.000000,   0.000000,   0.000000 Bohr

Properties computed using the SCF density matrix

  Nuclear Dipole Moment: (a.u.)
     X:    -0.1978      Y:    -0.0464      Z:    -0.6197

  Electronic Dipole Moment: (a.u.)
     X:     0.2083      Y:     0.0487      Z:     0.6520

  Dipole Moment: (a.u.)
     X:     0.0105      Y:     0.0022      Z:     0.0322     Total:     0.0340

  Dipole Moment: (Debye)
     X:     0.0267      Y:     0.0057      Z:     0.0820     Total:     0.0864


  //>>>>>>>>>>>>>>>>>>>>>>>>>>>>>>>>>>>//
  //               DFMP2               //
  //<<<<<<<<<<<<<<<<<<<<<<<<<<<<<<<<<<<//


*** tstart() called on lski1497
*** at Thu Feb 16 15:19:41 2017


*** tstop() called on lski1497 at Thu Feb 16 15:19:42 2017
Module time:
	user time   =       0.27 seconds =       0.00 minutes
	system time =       0.00 seconds =       0.00 minutes
	total time  =          1 seconds =       0.02 minutes
Total time:
	user time   =      17.64 seconds =       0.29 minutes
	system time =       0.64 seconds =       0.01 minutes
	total time  =         17 seconds =       0.28 minutes
	 --------------------------------------------------------
	                          DF-MP2                         
	      2nd-Order Density-Fitted Moller-Plesset Theory     
	              RMP2 Wavefunction,   1 Threads             
	                                                         
	        Rob Parrish, Justin Turney, Andy Simmonett,      
	           Ed Hohenstein, and C. David Sherrill          
	 --------------------------------------------------------

   => Auxiliary Basis Set <=

  Basis Set: 
    Number of shells: 132
    Number of basis function: 364
    Number of Cartesian functions: 414
    Spherical Harmonics?: true
    Max angular momentum: 3

	 --------------------------------------------------------
	                 NBF =    80, NAUX =   364
	 --------------------------------------------------------
	   CLASS    FOCC     OCC    AOCC    AVIR     VIR    FVIR
	   PAIRS       0      17      17      63      63       0
	 --------------------------------------------------------

DGAS Warning! /src/lib/libfock/apps.cc:80 is not currently checking restricted

         ------------------------------------------------------------
                                     CPHF                           
                                  Rob Parrish                       
         ------------------------------------------------------------

  ==> Geometry <==

    Molecular point group: c1
    Full point group: C1

    Geometry (in Angstrom), charge = 0, multiplicity = 1:

       Center              X                  Y                   Z               Mass       
    ------------   -----------------  -----------------  -----------------  -----------------
           H         -2.204600019621     0.061681126923     0.734241343764     1.007825032070
           H         -2.084784533119     1.713002971750     0.123925261948     1.007825032070
           H         -1.770150796146     0.350978527014    -0.952337346024     1.007825032070
           C         -1.662648327007     0.715920024993     0.062240595904    12.000000000000
           H          0.357441640957     1.401742371374    -0.224892133849     1.007825032070
           H         -0.077981119102     1.113598468132     1.463530244944     1.007825032070
           C         -0.174283272310     0.740657259008     0.450161145176    12.000000000000
           H          0.965782824452    -0.902304101019     1.280952483940     1.007825032070
           H         -0.357571990424    -1.402351104582     0.222675259141     1.007825032070
           C          0.436886722575    -0.678087376928     0.361574661865    12.000000000000
           H          1.841858828557    -1.770155804500    -0.876879253117     1.007825032070
           H          2.219891682518    -0.057856493590    -0.687034820342     1.007825032070
           H          0.899162715973    -0.557841069395    -1.745266413253     1.007825032070
           C          1.417761665281    -0.774332199827    -0.818454870688    12.000000000000

  Nuclear repulsion =  131.856206498642592
  Reference energy  = -157.291220711212731

  ==> Basis Set <==

  Basis Set: 6-31G(D)
    Number of shells: 44
    Number of basis function: 80
    Number of Cartesian functions: 80
    Spherical Harmonics?: false
    Max angular momentum: 2

  ==> CGRSolver (by Rob Parrish) <==

   Number of roots    =         1
   Preconditioning    =    JACOBI
   Convergence cutoff =     1E-06
   Maximum iterations =       100

  ==> CPHFRHamiltonian (by Rob Parrish) <== 

  ==> DFJK: Density-Fitted J/K Matrices <==

    J tasked:                  Yes
    K tasked:                  Yes
    wK tasked:                  No
    OpenMP threads:              1
    Integrals threads:           1
    Memory (MB):               715
    Algorithm:                Core
    Integral Cache:           NONE
    Schwarz Cutoff:          1E-12
    Fitting Condition:       1E-12

   => Auxiliary Basis Set <=

  Basis Set: 
    Number of shells: 186
    Number of basis function: 574
    Number of Cartesian functions: 574
    Spherical Harmonics?: false
    Max angular momentum: 3

  ==> CPHF Iterations <==

  => Iterations <=

             Iter  Converged  Remaining    Residual
  CGR           1          0          1   7.399E-02
  CGR           2          0          1   8.932E-03
  CGR           3          0          1   2.623E-03
  CGR           4          0          1   4.297E-04
  CGR           5          0          1   8.333E-05
  CGR           6          0          1   1.928E-05
  CGR           7          0          1   3.387E-06
  CGR           8          1          0   6.133E-07

    CGRSolver converged.

  ==> DFCorrGrad: Density-Fitted Correlated Gradients <==

    OpenMP threads:              1
    Integrals threads:           1
    Memory (MB):               715
    Schwarz Cutoff:          0E+00
    Fitting Condition:       1E-12

   => Auxiliary Basis Set <=

  Basis Set: 
    Number of shells: 186
    Number of basis function: 510
    Number of Cartesian functions: 574
    Spherical Harmonics?: true
    Max angular momentum: 3

	-----------------------------------------------------------
	 ==================> DF-MP2 Energies <==================== 
	-----------------------------------------------------------
	 Reference Energy          =    -157.2912207112127305 [Eh]
	 Singles Energy            =      -0.0000000000000000 [Eh]
	 Same-Spin Energy          =      -0.1242986224450166 [Eh]
	 Opposite-Spin Energy      =      -0.4216992291926652 [Eh]
	 Correlation Energy        =      -0.5459978516376818 [Eh]
	 Total Energy              =    -157.8372185628504099 [Eh]
	-----------------------------------------------------------
	 ================> DF-SCS-MP2 Energies <================== 
	-----------------------------------------------------------
	 SCS Same-Spin Scale       =       0.3333333333333333 [-]
	 SCS Opposite-Spin Scale   =       1.2000000000000000 [-]
	 SCS Same-Spin Energy      =      -0.0414328741483389 [Eh]
	 SCS Opposite-Spin Energy  =      -0.5060390750311982 [Eh]
	 SCS Correlation Energy    =      -0.5474719491795370 [Eh]
	 SCS Total Energy          =    -157.8386926603922689 [Eh]
	-----------------------------------------------------------


  -Total Gradient:
     Atom            X                  Y                   Z
    ------   -----------------  -----------------  -----------------
       1        0.005078800711     0.003601337589    -0.002967810515
       2        0.005090764783    -0.004784169998     0.000767234915
       3        0.002866972663     0.002501759029     0.006133354839
       4       -0.016082483761    -0.005350342510    -0.004415173010
       5       -0.004295413143    -0.006913658276     0.000951642756
       6       -0.001569873188    -0.005978625557    -0.004898483074
       7        0.013801320077     0.018012436901     0.002801992518
       8       -0.001846662961     0.005140546106    -0.005711941921
       9        0.003902418276     0.006813603897    -0.002652371729
      10       -0.008743754221    -0.016796438601     0.012421488894
      11       -0.003961899662     0.005476668540     0.002923603606
      12       -0.005543936382    -0.003626090810     0.000978002313
      13        0.001373210012    -0.001343943812     0.006726851961
      14        0.009930536796     0.003246917503    -0.013058391552


			-----------------------------------------
			 OPTKING 2.0: for geometry optimizations 
			  - R.A. King,  Bethel University        
			-----------------------------------------

	Previous internal coordinate definitions found.
	---Fragment 1 Geometry and Gradient---
	 H          -4.1660902696        0.1165604375        1.3875150552
	 H          -3.9396718137        3.2371064814        0.2341848060
	 H          -3.3451002186        0.6632532946       -1.7996567701
	 C          -3.1419499933        1.3528927803        0.1176176806
	 H           0.6754668099        2.6489091908       -0.4249845424
	 H          -0.1473629586        2.1043961268        2.7656713501
	 C          -0.3293476542        1.3996393779        0.8506812800
	 H           1.8250650421       -1.7051076395        2.4206493839
	 H          -0.6757131347       -2.6500595298        0.4207952563
	 C           0.8255962568       -1.2813994366        0.6832770875
	 H           3.4806087614       -3.3451096830       -1.6570616400
	 H           4.1949873246       -0.1093329279       -1.2983076542
	 H           1.6991712821       -1.0541668468       -3.2980755500
	 C           2.6791812691       -1.4632757935       -1.5466555577
	             0.0050788007        0.0036013376       -0.0029678105
	             0.0050907648       -0.0047841700        0.0007672349
	             0.0028669727        0.0025017590        0.0061333548
	            -0.0160824838       -0.0053503425       -0.0044151730
	            -0.0042954131       -0.0069136583        0.0009516428
	            -0.0015698732       -0.0059786256       -0.0048984831
	             0.0138013201        0.0180124369        0.0028019925
	            -0.0018466630        0.0051405461       -0.0057119419
	             0.0039024183        0.0068136039       -0.0026523717
	            -0.0087437542       -0.0167964386        0.0124214889
	            -0.0039618997        0.0054766685        0.0029236036
	            -0.0055439364       -0.0036260908        0.0009780023
	             0.0013732100       -0.0013439438        0.0067268520
	             0.0099305368        0.0032469175       -0.0130583916

	---Fragment 1 Intrafragment Coordinates---
	 - Coordinate -           - BOHR/RAD -       - ANG/DEG -
	 R(1,4)           =         2.046954	       1.083201
	 R(2,4)           =         2.049441	       1.084518
	 R(3,4)           =         2.047636	       1.083562
	 R(4,7)           =         2.906940	       1.538286
	 R(5,7)           =         2.048817	       1.084187
	 R(6,7)           =         2.048655	       1.084102
	 R(7,10)          =         2.924019	       1.547324
	 R(8,10)          =         2.048641	       1.084094
	 R(9,10)          =         2.048428	       1.083981
	 R(10,14)         =         2.905418	       1.537481
	 R(11,14)         =         2.048359	       1.083945
	 R(12,14)         =         2.047561	       1.083523
	 R(13,14)         =         2.048234	       1.083879
	 B(1,4,2)         =         1.902084	     108.981400
	 B(1,4,3)         =         1.904800	     109.136997
	 B(1,4,7)         =         1.914900	     109.715710
	 B(2,4,3)         =         1.901051	     108.922215
	 B(2,4,7)         =         1.925678	     110.333206
	 B(3,4,7)         =         1.915089	     109.726508
	 B(4,7,5)         =         1.904253	     109.105683
	 B(4,7,6)         =         1.904140	     109.099173
	 B(4,7,10)        =         1.931555	     110.669974
	 B(5,7,6)         =         1.905707	     109.188971
	 B(5,7,10)        =         1.906804	     109.251830
	 B(6,7,10)        =         1.911183	     109.502739
	 B(7,10,8)        =         1.911113	     109.498717
	 B(7,10,9)        =         1.907606	     109.297771
	 B(7,10,14)       =         1.931923	     110.691053
	 B(8,10,9)        =         1.905027	     109.150006
	 B(8,10,14)       =         1.903604	     109.068500
	 B(9,10,14)       =         1.904352	     109.111313
	 B(10,14,11)      =         1.926754	     110.394890
	 B(10,14,12)      =         1.915383	     109.743373
	 B(10,14,13)      =         1.916155	     109.787601
	 B(11,14,12)      =         1.901155	     108.928175
	 B(11,14,13)      =         1.901398	     108.942057
	 B(12,14,13)      =         1.902702	     109.016783
	 D(1,4,7,5)       =        -3.136539	    -179.710456
	 D(1,4,7,6)       =        -1.055886	     -60.497838
	 D(1,4,7,10)      =         1.048052	      60.048957
	 D(2,4,7,5)       =        -1.040672	     -59.626092
	 D(2,4,7,6)       =         1.039981	      59.586525
	 D(2,4,7,10)      =        -3.139266	    -179.866679
	 D(3,4,7,5)       =         1.054037	      60.391870
	 D(3,4,7,6)       =         3.134690	     179.604487
	 D(3,4,7,10)      =        -1.044557	     -59.848717
	 D(4,7,10,8)      =        -2.265723	    -129.816369
	 D(4,7,10,9)      =        -0.179733	     -10.297919
	 D(4,7,10,14)     =         1.918201	     109.904843
	 D(5,7,10,8)      =         1.920393	     110.030395
	 D(5,7,10,9)      =        -2.276802	    -130.451155
	 D(5,7,10,14)     =        -0.178868	     -10.248393
	 D(6,7,10,8)      =        -0.165985	      -9.510218
	 D(6,7,10,9)      =         1.920006	     110.008232
	 D(6,7,10,14)     =        -2.265245	    -129.789006
	 D(7,10,14,11)    =        -3.140207	    -179.920593
	 D(7,10,14,12)    =         1.047277	      60.004526
	 D(7,10,14,13)    =        -1.043712	     -59.800287
	 D(8,10,14,11)    =         1.039241	      59.544133
	 D(8,10,14,12)    =        -1.056461	     -60.530749
	 D(8,10,14,13)    =         3.135736	     179.664439
	 D(9,10,14,11)    =        -1.040330	     -59.606500
	 D(9,10,14,12)    =        -3.136032	    -179.681382
	 D(9,10,14,13)    =         1.056165	      60.513806

	Current energy   :      -157.8372185629

	Energy change for the previous step:
		Projected    :        -0.0054960952
		Actual       :        -0.0041016492

	Performing BFGS update.
	Previous computed or guess Hessian on step 1.
	Steps to be used in Hessian update: 1
	Adding user-defined constraint: Fragment 1; Coordinate 49:
		Value =     1.918201; Fixed value    =     1.919860
		Force =     0.000871; Force constant =     0.525000
	Removing off-diagonal coupling between coordinate 49 and others.
	Taking RFO optimization step.
	Going to follow RFO solution 1.
	Using RFO vector 1.

	Determining step-restricting scale parameter for RS-RFO.
	Maximum step size allowed    0.10000

	 Iter      |step|        alpha        rfo_root  
	------------------------------------------------
	    0     0.19372       1.00000           1
	    1     0.15584       4.14836           1
	    2     0.12328      12.98658           1
	    3     0.10594      22.91213           1
	    4     0.10056      27.40737           1
	    5     0.10001      27.91951           1
	------------------------------------------------
	Norm of target step-size    0.10001
	Projected energy change by RFO approximation:        -0.0026719237

	Back-transformation to cartesian coordinates...
	Could not converge backtransformation.
	Using first guess instead.

	--- Internal Coordinate Step in ANG or DEG, aJ/ANG or AJ/DEG ---
	 ---------------------------------------------------------------------------
	   Coordinate                Previous        Force       Change         New 
	   ----------                --------       ------       ------       ------
	    1 R(1,4)          =      1.083201     0.054025     0.008312     1.091513
	    2 R(2,4)          =      1.084518     0.052203     0.007704     1.092221
	    3 R(3,4)          =      1.083562     0.056599     0.008729     1.092292
	    4 R(4,7)          =      1.538286    -0.025817    -0.006661     1.531626
	    5 R(5,7)          =      1.084187     0.056969     0.008928     1.093115
	    6 R(6,7)          =      1.084102     0.055818     0.008361     1.092462
	    7 R(7,10)         =      1.547324     0.008456    -0.000584     1.546740
	    8 R(8,10)         =      1.084094     0.056091     0.008395     1.092489
	    9 R(9,10)         =      1.083981     0.058271     0.009092     1.093073
	   10 R(10,14)        =      1.537481    -0.022879    -0.006069     1.531412
	   11 R(11,14)        =      1.083945     0.055522     0.008142     1.092087
	   12 R(12,14)        =      1.083523     0.052590     0.008101     1.091623
	   13 R(13,14)        =      1.083879     0.055014     0.008497     1.092376
	   14 B(1,4,2)        =    108.981400    -0.000195    -0.683848   108.297552
	   15 B(1,4,3)        =    109.136997    -0.000176    -0.772045   108.364952
	   16 B(1,4,7)        =    109.715710     0.000144     0.585792   110.301502
	   17 B(2,4,3)        =    108.922215    -0.000200    -0.714874   108.207342
	   18 B(2,4,7)        =    110.333206     0.000272     0.909354   111.242560
	   19 B(3,4,7)        =    109.726508     0.000147     0.612808   110.339316
	   20 B(4,7,5)        =    109.105683    -0.000082    -0.078088   109.027596
	   21 B(4,7,6)        =    109.099173    -0.000121    -0.272910   108.826262
	   22 B(4,7,10)       =    110.669974     0.000364     1.176805   111.846779
	   23 B(5,7,6)        =    109.188971    -0.000112    -1.117184   108.071788
	   24 B(5,7,10)       =    109.251830    -0.000063    -0.028877   109.222953
	   25 B(6,7,10)       =    109.502739     0.000009     0.262989   109.765728
	   26 B(7,10,8)       =    109.498717     0.000008     0.265147   109.763863
	   27 B(7,10,9)       =    109.297771    -0.000067    -0.051881   109.245890
	   28 B(7,10,14)      =    110.691053     0.000363     1.163775   111.854828
	   29 B(8,10,9)       =    109.150006    -0.000111    -1.104550   108.045456
	   30 B(8,10,14)      =    109.068500    -0.000119    -0.257883   108.810618
	   31 B(9,10,14)      =    109.111313    -0.000080    -0.072186   109.039127
	   32 B(10,14,11)     =    110.394890     0.000264     0.872760   111.267650
	   33 B(10,14,12)     =    109.743373     0.000136     0.563271   110.306643
	   34 B(10,14,13)     =    109.787601     0.000138     0.578910   110.366511
	   35 B(11,14,12)     =    108.928175    -0.000187    -0.651856   108.276319
	   36 B(11,14,13)     =    108.942057    -0.000197    -0.715324   108.226733
	   37 B(12,14,13)     =    109.016783    -0.000163    -0.710306   108.306477
	   38 D(1,4,7,5)      =   -179.710456     0.000025     0.737553  -178.972903
	   39 D(1,4,7,6)      =    -60.497838    -0.000034    -0.812538   -61.310376
	   40 D(1,4,7,10)     =     60.048957     0.000003     0.081892    60.130849
	   41 D(2,4,7,5)      =    -59.626092     0.000030     0.848929   -58.777164
	   42 D(2,4,7,6)      =     59.586525    -0.000029    -0.701162    58.885363
	   43 D(2,4,7,10)     =   -179.866679     0.000008     0.193268  -179.673411
	   44 D(3,4,7,5)      =     60.391870     0.000033     0.938486    61.330356
	   45 D(3,4,7,6)      =    179.604487    -0.000025    -0.611604   178.992883
	   46 D(3,4,7,10)     =    -59.848717     0.000011     0.282826   -59.565891
	   47 D(4,7,10,8)     =   -129.816369     0.000015     0.477556  -129.338812
	   48 D(4,7,10,9)     =    -10.297919    -0.000024    -0.740549   -11.038468
	   49 D(4,7,10,14)    =    109.904843    -0.000005    -0.125375   109.779468
	   50 D(5,7,10,8)     =    110.030395    -0.000004    -0.151989   109.878406
	   51 D(5,7,10,9)     =   -130.451155    -0.000044    -1.370095  -131.821250
	   52 D(5,7,10,14)    =    -10.248393    -0.000024    -0.754920   -11.003314
	   53 D(6,7,10,8)     =     -9.510218     0.000034     1.068851    -8.441367
	   54 D(6,7,10,9)     =    110.008232    -0.000005    -0.149255   109.858977
	   55 D(6,7,10,14)    =   -129.789006     0.000015     0.465920  -129.323087
	   56 D(7,10,14,11)   =   -179.920593     0.000009     0.220075  -179.700518
	   57 D(7,10,14,12)   =     60.004526     0.000004     0.106063    60.110589
	   58 D(7,10,14,13)   =    -59.800287     0.000011     0.266179   -59.534107
	   59 D(8,10,14,11)   =     59.544133    -0.000028    -0.678112    58.866021
	   60 D(8,10,14,12)   =    -60.530749    -0.000033    -0.792123   -61.322873
	   61 D(8,10,14,13)   =    179.664439    -0.000026    -0.632007   179.032431
	   62 D(9,10,14,11)   =    -59.606500     0.000029     0.843942   -58.762558
	   63 D(9,10,14,12)   =   -179.681382     0.000024     0.729931  -178.951451
	   64 D(9,10,14,13)   =     60.513806     0.000032     0.890047    61.403853
	 ---------------------------------------------------------------------------
	 Forces used to impose fixed constraints are not included.
	  Forces zeroed: 49 

  ==> Convergence Check <==

  Measures of convergence in internal coordinates in au.
  Criteria marked as inactive (o), active & met (*), and active & unmet ( ).
  ---------------------------------------------------------------------------------------------
   Step     Total Energy     Delta E     MAX Force     RMS Force      MAX Disp      RMS Disp   
  ---------------------------------------------------------------------------------------------
    Convergence Criteria    1.00e-06 *    3.00e-04 *             o    1.20e-03 *             o
  ---------------------------------------------------------------------------------------------
      2    -157.83721856   -4.10e-03      7.07e-03      3.20e-03 o    2.39e-02      1.25e-02 o  ~
  ---------------------------------------------------------------------------------------------

	Writing optimization data to binary file.
	Structure for next step:
	Cartesian Geometry (in Angstrom)
	    H    -2.2257242735   0.0673554768   0.7365107701
	    H    -2.0998500272   1.7265276662   0.1330024937
	    H    -1.7939923278   0.3647450164  -0.9549238518
	    C    -1.6675467745   0.7255935938   0.0682579143
	    H     0.3510979708   1.4144526689  -0.2198583245
	    H    -0.0848118177   1.1171192417   1.4685862468
	    C    -0.1841839212   0.7360474931   0.4495750670
	    H     0.9743267016  -0.9053064630   1.2817644610
	    H    -0.3492155323  -1.4143027669   0.2247207511
	    C     0.4444222299  -0.6740160205   0.3548129172
	    H     1.8599884184  -1.7833950346  -0.8766891475
	    H     2.2387661437  -0.0640617058  -0.6966030428
	    H     0.9174338420  -0.5730201470  -1.7591812393
	    C     1.4260553904  -0.7830864198  -0.8155388559
			--------------------------
			 OPTKING Finished Execution 
			--------------------------

    Structure for next step:
    Molecular point group: c1
    Full point group: C1

    Geometry (in Angstrom), charge = 0, multiplicity = 1:

    H           -2.225919242144     0.067283378286     0.736210688610
    H           -2.100044995801     1.726455567757     0.132702412259
    H           -1.794187296447     0.364672917898    -0.955223933280
    C           -1.667741743076     0.725521495370     0.067957832796
    H            0.350903002142     1.414380570422    -0.220158405938
    H           -0.085006786341     1.117047143191     1.468286165329
    C           -0.184378889793     0.735975394636     0.449274985558
    H            0.974131732945    -0.905378561469     1.281464379521
    H           -0.349410500923    -1.414374865358     0.224420669590
    C            0.444227261243    -0.674088118928     0.354512835719
    H            1.859793449800    -1.783467133046    -0.876989229019
    H            2.238571175093    -0.064133804281    -0.696903124309
    H            0.917238873363    -0.573092245462    -1.759481320774
    C            1.425860421796    -0.783158518268    -0.815838937373

gradient() will perform analytic gradient computation.
    SCF Algorithm Type (re)set to DF.

*** tstart() called on lski1497
*** at Thu Feb 16 15:19:52 2017


         ---------------------------------------------------------
                                   SCF
            by Justin Turney, Rob Parrish, and Andy Simmonett
                              RHF Reference
                        1 Threads,   1000 MiB Core
         ---------------------------------------------------------

  ==> Geometry <==

    Molecular point group: c1
    Full point group: C1

    Geometry (in Angstrom), charge = 0, multiplicity = 1:

       Center              X                  Y                   Z               Mass       
    ------------   -----------------  -----------------  -----------------  -----------------
           H         -2.225919242144     0.067283378286     0.736210688610     1.007825032070
           H         -2.100044995801     1.726455567757     0.132702412259     1.007825032070
           H         -1.794187296447     0.364672917898    -0.955223933280     1.007825032070
           C         -1.667741743076     0.725521495370     0.067957832796    12.000000000000
           H          0.350903002142     1.414380570422    -0.220158405938     1.007825032070
           H         -0.085006786341     1.117047143191     1.468286165329     1.007825032070
           C         -0.184378889793     0.735975394636     0.449274985558    12.000000000000
           H          0.974131732945    -0.905378561469     1.281464379521     1.007825032070
           H         -0.349410500923    -1.414374865358     0.224420669590     1.007825032070
           C          0.444227261243    -0.674088118928     0.354512835719    12.000000000000
           H          1.859793449800    -1.783467133046    -0.876989229019     1.007825032070
           H          2.238571175093    -0.064133804281    -0.696903124309     1.007825032070
           H          0.917238873363    -0.573092245462    -1.759481320774     1.007825032070
           C          1.425860421796    -0.783158518268    -0.815838937373    12.000000000000

  Running in c1 symmetry.

  Rotational constants: A =      0.55681  B =      0.13240  C =      0.12923 [cm^-1]
  Rotational constants: A =  16692.67225  B =   3969.13186  C =   3874.28050 [MHz]
  Nuclear repulsion =  131.393249534815538

  Charge       = 0
  Multiplicity = 1
  Electrons    = 34
  Nalpha       = 17
  Nbeta        = 17

  ==> Algorithm <==

  SCF Algorithm Type is DF.
  DIIS enabled.
  MOM disabled.
  Fractional occupation disabled.
  Guess Type is READ.
  Energy threshold   = 1.00e-10
  Density threshold  = 1.00e-10
  Integral threshold = 0.00e+00

  ==> Primary Basis <==

  Basis Set: 6-31G(D)
    Number of shells: 44
    Number of basis function: 80
    Number of Cartesian functions: 80
    Spherical Harmonics?: false
    Max angular momentum: 2

  ==> Pre-Iterations <==

   -------------------------------------------------------
    Irrep   Nso     Nmo     Nalpha   Nbeta   Ndocc  Nsocc
   -------------------------------------------------------
     A         80      80       0       0       0       0
   -------------------------------------------------------
    Total      80      80      17      17      17       0
   -------------------------------------------------------

  ==> Integral Setup <==

  ==> DFJK: Density-Fitted J/K Matrices <==

    J tasked:                  Yes
    K tasked:                  Yes
    wK tasked:                  No
    OpenMP threads:              1
    Integrals threads:           1
    Memory (MB):               715
    Algorithm:                Core
    Integral Cache:           NONE
    Schwarz Cutoff:          1E-12
    Fitting Condition:       1E-12

   => Auxiliary Basis Set <=

  Basis Set: 
    Number of shells: 186
    Number of basis function: 574
    Number of Cartesian functions: 574
    Spherical Harmonics?: false
    Max angular momentum: 3

  Minimum eigenvalue in the overlap matrix is 5.1710146107E-03.
  Using Symmetric Orthogonalization.
  SCF Guess was Projection but file not found.
  Switching over to SAD guess.

  SCF Guess: Superposition of Atomic Densities via on-the-fly atomic UHF.

  ==> Iterations <==

                           Total Energy        Delta E     RMS |[F,P]|

   @DF-RHF iter   0:  -158.83938885576509   -1.58839e+02   4.61919e-02 
   @DF-RHF iter   1:  -157.20226325569814    1.63713e+00   3.92290e-03 
   @DF-RHF iter   2:  -157.28342913040268   -8.11659e-02   1.11392e-03 DIIS
   @DF-RHF iter   3:  -157.29161364755379   -8.18452e-03   2.77302e-04 DIIS
   @DF-RHF iter   4:  -157.29203651151323   -4.22864e-04   7.94558e-05 DIIS
   @DF-RHF iter   5:  -157.29207665887185   -4.01474e-05   1.26653e-05 DIIS
   @DF-RHF iter   6:  -157.29207789560797   -1.23674e-06   1.71602e-06 DIIS
   @DF-RHF iter   7:  -157.29207791477108   -1.91631e-08   5.52981e-07 DIIS
   @DF-RHF iter   8:  -157.29207791609741   -1.32633e-09   1.15343e-07 DIIS
   @DF-RHF iter   9:  -157.29207791618632   -8.89031e-11   2.66888e-08 DIIS
   @DF-RHF iter  10:  -157.29207791619189   -5.57066e-12   5.50086e-09 DIIS
   @DF-RHF iter  11:  -157.29207791619234   -4.54747e-13   8.56872e-10 DIIS
   @DF-RHF iter  12:  -157.29207791619251   -1.70530e-13   2.14911e-10 DIIS
   @DF-RHF iter  13:  -157.29207791619257   -5.68434e-14   6.43398e-11 DIIS

  ==> Post-Iterations <==

    Orbital Energies (a.u.)
    -----------------------

    Doubly Occupied:                                                      

       1A    -11.214896     2A    -11.214347     3A    -11.209872  
       4A    -11.209860     5A     -1.067147     6A     -0.977298  
       7A     -0.860763     8A     -0.784381     9A     -0.628500  
      10A     -0.605315    11A     -0.577889    12A     -0.546900  
      13A     -0.512275    14A     -0.505781    15A     -0.466689  
      16A     -0.456137    17A     -0.450780  

    Virtual:                                                              

      18A      0.230986    19A      0.271227    20A      0.281802  
      21A      0.290186    22A      0.313376    23A      0.321503  
      24A      0.332507    25A      0.342440    26A      0.345445  
      27A      0.358850    28A      0.407589    29A      0.453222  
      30A      0.456970    31A      0.715390    32A      0.727018  
      33A      0.731081    34A      0.783033    35A      0.792076  
      36A      0.817237    37A      0.852894    38A      0.933171  
      39A      0.945610    40A      0.994874    41A      1.063887  
      42A      1.108356    43A      1.151806    44A      1.155576  
      45A      1.170899    46A      1.187947    47A      1.189711  
      48A      1.210612    49A      1.235305    50A      1.237062  
      51A      1.247840    52A      1.259237    53A      1.261004  
      54A      1.440534    55A      1.695613    56A      1.739935  
      57A      1.793434    58A      1.890729    59A      2.013988  
      60A      2.049103    61A      2.192655    62A      2.234623  
      63A      2.266947    64A      2.306235    65A      2.358982  
      66A      2.441264    67A      2.469966    68A      2.605708  
      69A      2.629037    70A      2.645976    71A      2.715820  
      72A      2.744549    73A      2.780534    74A      2.896635  
      75A      3.004958    76A      3.068681    77A      4.555528  
      78A      4.651921    79A      4.824070    80A      4.955552  

    Final Occupation by Irrep:
              A 
    DOCC [    17 ]

  Energy converged.

  @DF-RHF Final Energy:  -157.29207791619257

   => Energetics <=

    Nuclear Repulsion Energy =            131.3932495348155385
    One-Electron Energy =                -470.7929986512459664
    Two-Electron Energy =                 182.1076712002376894
    DFT Exchange-Correlation Energy =       0.0000000000000000
    Empirical Dispersion Energy =           0.0000000000000000
    PCM Polarization Energy =               0.0000000000000000
    EFP Energy =                            0.0000000000000000
    Total Energy =                       -157.2920779161927385


  Saving occupied orbitals to File 180.

*** tstop() called on lski1497 at Thu Feb 16 15:19:55 2017
Module time:
	user time   =       3.01 seconds =       0.05 minutes
	system time =       0.12 seconds =       0.00 minutes
	total time  =          3 seconds =       0.05 minutes
Total time:
	user time   =      31.28 seconds =       0.52 minutes
	system time =       1.11 seconds =       0.02 minutes
	total time  =         30 seconds =       0.50 minutes


Properties will be evaluated at   0.000000,   0.000000,   0.000000 Bohr

Properties computed using the SCF density matrix

  Nuclear Dipole Moment: (a.u.)
     X:    -0.2006      Y:    -0.0474      Z:    -0.6240

  Electronic Dipole Moment: (a.u.)
     X:     0.2103      Y:     0.0497      Z:     0.6541

  Dipole Moment: (a.u.)
     X:     0.0097      Y:     0.0023      Z:     0.0301     Total:     0.0317

  Dipole Moment: (Debye)
     X:     0.0248      Y:     0.0058      Z:     0.0764     Total:     0.0805


  //>>>>>>>>>>>>>>>>>>>>>>>>>>>>>>>>>>>//
  //               DFMP2               //
  //<<<<<<<<<<<<<<<<<<<<<<<<<<<<<<<<<<<//


*** tstart() called on lski1497
*** at Thu Feb 16 15:19:55 2017


*** tstop() called on lski1497 at Thu Feb 16 15:19:55 2017
Module time:
	user time   =       0.27 seconds =       0.00 minutes
	system time =       0.00 seconds =       0.00 minutes
	total time  =          0 seconds =       0.00 minutes
Total time:
	user time   =      31.56 seconds =       0.53 minutes
	system time =       1.11 seconds =       0.02 minutes
	total time  =         30 seconds =       0.50 minutes
	 --------------------------------------------------------
	                          DF-MP2                         
	      2nd-Order Density-Fitted Moller-Plesset Theory     
	              RMP2 Wavefunction,   1 Threads             
	                                                         
	        Rob Parrish, Justin Turney, Andy Simmonett,      
	           Ed Hohenstein, and C. David Sherrill          
	 --------------------------------------------------------

   => Auxiliary Basis Set <=

  Basis Set: 
    Number of shells: 132
    Number of basis function: 364
    Number of Cartesian functions: 414
    Spherical Harmonics?: true
    Max angular momentum: 3

	 --------------------------------------------------------
	                 NBF =    80, NAUX =   364
	 --------------------------------------------------------
	   CLASS    FOCC     OCC    AOCC    AVIR     VIR    FVIR
	   PAIRS       0      17      17      63      63       0
	 --------------------------------------------------------

DGAS Warning! /src/lib/libfock/apps.cc:80 is not currently checking restricted

         ------------------------------------------------------------
                                     CPHF                           
                                  Rob Parrish                       
         ------------------------------------------------------------

  ==> Geometry <==

    Molecular point group: c1
    Full point group: C1

    Geometry (in Angstrom), charge = 0, multiplicity = 1:

       Center              X                  Y                   Z               Mass       
    ------------   -----------------  -----------------  -----------------  -----------------
           H         -2.225919242144     0.067283378286     0.736210688610     1.007825032070
           H         -2.100044995801     1.726455567757     0.132702412259     1.007825032070
           H         -1.794187296447     0.364672917898    -0.955223933280     1.007825032070
           C         -1.667741743076     0.725521495370     0.067957832796    12.000000000000
           H          0.350903002142     1.414380570422    -0.220158405938     1.007825032070
           H         -0.085006786341     1.117047143191     1.468286165329     1.007825032070
           C         -0.184378889793     0.735975394636     0.449274985558    12.000000000000
           H          0.974131732945    -0.905378561469     1.281464379521     1.007825032070
           H         -0.349410500923    -1.414374865358     0.224420669590     1.007825032070
           C          0.444227261243    -0.674088118928     0.354512835719    12.000000000000
           H          1.859793449800    -1.783467133046    -0.876989229019     1.007825032070
           H          2.238571175093    -0.064133804281    -0.696903124309     1.007825032070
           H          0.917238873363    -0.573092245462    -1.759481320774     1.007825032070
           C          1.425860421796    -0.783158518268    -0.815838937373    12.000000000000

  Nuclear repulsion =  131.393249534815538
  Reference energy  = -157.292077916192568

  ==> Basis Set <==

  Basis Set: 6-31G(D)
    Number of shells: 44
    Number of basis function: 80
    Number of Cartesian functions: 80
    Spherical Harmonics?: false
    Max angular momentum: 2

  ==> CGRSolver (by Rob Parrish) <==

   Number of roots    =         1
   Preconditioning    =    JACOBI
   Convergence cutoff =     1E-06
   Maximum iterations =       100

  ==> CPHFRHamiltonian (by Rob Parrish) <== 

  ==> DFJK: Density-Fitted J/K Matrices <==

    J tasked:                  Yes
    K tasked:                  Yes
    wK tasked:                  No
    OpenMP threads:              1
    Integrals threads:           1
    Memory (MB):               715
    Algorithm:                Core
    Integral Cache:           NONE
    Schwarz Cutoff:          1E-12
    Fitting Condition:       1E-12

   => Auxiliary Basis Set <=

  Basis Set: 
    Number of shells: 186
    Number of basis function: 574
    Number of Cartesian functions: 574
    Spherical Harmonics?: false
    Max angular momentum: 3

  ==> CPHF Iterations <==

  => Iterations <=

             Iter  Converged  Remaining    Residual
  CGR           1          0          1   7.471E-02
  CGR           2          0          1   9.103E-03
