 Entering Gaussian System, Link 0=g09
 Initial command:
 /softlib/exe/x86_64/pkg/gaussian/09revB.01/dist/g09/l1.exe /zenodotus/hwlab/hwlab_store011/chs2057/Weinsteinlab/parameters/Pyrrol/torsion-scan/Gau-16117.inp -scrdir=/zenodotus/hwlab/hwlab_store011/chs2057/Weinsteinlab/parameters/Pyrrol/torsion-scan/
 Entering Link 1 = /softlib/exe/x86_64/pkg/gaussian/09revB.01/dist/g09/l1.exe PID=     16118.
  
 Copyright (c) 1988,1990,1992,1993,1995,1998,2003,2009,2010,
            Gaussian, Inc.  All Rights Reserved.
  
 This is part of the Gaussian(R) 09 program.  It is based on
 the Gaussian(R) 03 system (copyright 2003, Gaussian, Inc.),
 the Gaussian(R) 98 system (copyright 1998, Gaussian, Inc.),
 the Gaussian(R) 94 system (copyright 1995, Gaussian, Inc.),
 the Gaussian 92(TM) system (copyright 1992, Gaussian, Inc.),
 the Gaussian 90(TM) system (copyright 1990, Gaussian, Inc.),
 the Gaussian 88(TM) system (copyright 1988, Gaussian, Inc.),
 the Gaussian 86(TM) system (copyright 1986, Carnegie Mellon
 University), and the Gaussian 82(TM) system (copyright 1983,
 Carnegie Mellon University). Gaussian is a federally registered
 trademark of Gaussian, Inc.
  
 This software contains proprietary and confidential information,
 including trade secrets, belonging to Gaussian, Inc.
  
 This software is provided under written license and may be
 used, copied, transmitted, or stored only in accord with that
 written license.
  
 The following legend is applicable only to US Government
 contracts under FAR:
  
                    RESTRICTED RIGHTS LEGEND
  
 Use, reproduction and disclosure by the US Government is
 subject to restrictions as set forth in subparagraphs (a)
 and (c) of the Commercial Computer Software - Restricted
 Rights clause in FAR 52.227-19.
  
 Gaussian, Inc.
 340 Quinnipiac St., Bldg. 40, Wallingford CT 06492
  
  
 ---------------------------------------------------------------
 Warning -- This program may not be used in any manner that
 competes with the business of Gaussian, Inc. or will provide
 assistance to any competitor of Gaussian, Inc.  The licensee
 of this program is prohibited from giving any competitor of
 Gaussian, Inc. access to this program.  By using this program,
 the user acknowledges that Gaussian, Inc. is engaged in the
 business of creating and licensing software in the field of
 computational chemistry and represents and warrants to the
 licensee that it is not a competitor of Gaussian, Inc. and that
 it will not use this program in any manner prohibited above.
 ---------------------------------------------------------------
  

 Cite this work as:
 Gaussian 09, Revision B.01,
 M. J. Frisch, G. W. Trucks, H. B. Schlegel, G. E. Scuseria, 
 M. A. Robb, J. R. Cheeseman, G. Scalmani, V. Barone, B. Mennucci, 
 G. A. Petersson, H. Nakatsuji, M. Caricato, X. Li, H. P. Hratchian, 
 A. F. Izmaylov, J. Bloino, G. Zheng, J. L. Sonnenberg, M. Hada, 
 M. Ehara, K. Toyota, R. Fukuda, J. Hasegawa, M. Ishida, T. Nakajima, 
 Y. Honda, O. Kitao, H. Nakai, T. Vreven, J. A. Montgomery, Jr., 
 J. E. Peralta, F. Ogliaro, M. Bearpark, J. J. Heyd, E. Brothers, 
 K. N. Kudin, V. N. Staroverov, T. Keith, R. Kobayashi, J. Normand, 
 K. Raghavachari, A. Rendell, J. C. Burant, S. S. Iyengar, J. Tomasi, 
 M. Cossi, N. Rega, J. M. Millam, M. Klene, J. E. Knox, J. B. Cross, 
 V. Bakken, C. Adamo, J. Jaramillo, R. Gomperts, R. E. Stratmann, 
 O. Yazyev, A. J. Austin, R. Cammi, C. Pomelli, J. W. Ochterski, 
 R. L. Martin, K. Morokuma, V. G. Zakrzewski, G. A. Voth, 
 P. Salvador, J. J. Dannenberg, S. Dapprich, A. D. Daniels, 
 O. Farkas, J. B. Foresman, J. V. Ortiz, J. Cioslowski, 
 and D. J. Fox, Gaussian, Inc., Wallingford CT, 2010.
 
 ******************************************
 Gaussian 09:  EM64L-G09RevB.01 12-Aug-2010
                22-Mar-2015 
 ******************************************
 %chk=PRL.scan2.pos.chk
 %nproc=16
 Will use up to   16 processors via shared memory.
 %mem=32GB
 ------------------------------------------------------
 # opt=modredundant B3LYP/cc-pVDZ Geom=PrintInputOrient
 ------------------------------------------------------
 1/14=-1,18=120,19=15,26=3,38=1/1,3;
 2/9=2110,12=2,17=6,18=5,40=1/2;
 3/5=16,11=2,16=1,25=1,30=1,71=1,74=-5/1,2,3;
 4//1;
 5/5=2,38=5/2;
 6/7=2,8=2,9=2,10=2,28=1/1;
 7//1,2,3,16;
 1/14=-1,18=20,19=15/3(2);
 2/9=2110/2;
 99//99;
 2/9=2110/2;
 3/5=16,11=2,16=1,25=1,30=1,71=1,74=-5/1,2,3;
 4/5=5,16=3/1;
 5/5=2,38=5/2;
 7//1,2,3,16;
 1/14=-1,18=20,19=15/3(-5);
 2/9=2110/2;
 6/7=2,8=2,9=2,10=2,19=2,28=1/1;
 99/9=1/99;
 -------------------------------
 PRL Dihedral Scan at MP2/6-31G*
 -------------------------------
 Symbolic Z-matrix:
 Charge =  0 Multiplicity = 1
 C1                    0.779     0.587    -0.13 
 C2                   -0.41     -0.337     0.142 
 N3                   -1.469     0.488     0.542 
 C4                   -1.064     1.829     0.518 
 C5                    0.218     1.966     0.144 
 C6                   -2.808     0.033     0.853 
 C7                   -3.702    -0.196    -0.375 
 C8                   -5.092    -0.707     0.007 
 C9                   -0.439    -1.679     0.026 
 H10                   1.14      0.471    -1.167 
 H11                   1.631     0.338     0.527 
 H12                  -1.783     2.599     0.799 
 H13                   0.769     2.9       0.063 
 H14                  -2.73     -0.9       1.439 
 H15                  -3.273     0.78      1.519 
 H16                  -3.787     0.753    -0.934 
 H17                  -3.207    -0.912    -1.051 
 H18                  -5.72     -0.864    -0.884 
 H19                  -5.033    -1.669     0.545 
 H20                  -5.62      0.006     0.664 
 H21                  -1.336    -2.266     0.226 
 H22                   0.46     -2.217    -0.275 
 
 The following ModRedundant input section has been read:
 D       3       6       7       8 S   6 15.000                                

 GradGradGradGradGradGradGradGradGradGradGradGradGradGradGradGradGradGrad
 Berny optimization.
 Initialization pass.
                           ----------------------------
                           !    Initial Parameters    !
                           ! (Angstroms and Degrees)  !
 --------------------------                            --------------------------
 ! Name  Definition              Value          Derivative Info.                !
 --------------------------------------------------------------------------------
 ! R1    R(1,2)                  1.5302         estimate D2E/DX2                !
 ! R2    R(1,5)                  1.5137         estimate D2E/DX2                !
 ! R3    R(1,10)                 1.1041         estimate D2E/DX2                !
 ! R4    R(1,11)                 1.1043         estimate D2E/DX2                !
 ! R5    R(2,3)                  1.4008         estimate D2E/DX2                !
 ! R6    R(2,9)                  1.3473         estimate D2E/DX2                !
 ! R7    R(3,4)                  1.401          estimate D2E/DX2                !
 ! R8    R(3,6)                  1.448          estimate D2E/DX2                !
 ! R9    R(4,5)                  1.3424         estimate D2E/DX2                !
 ! R10   R(4,12)                 1.0903         estimate D2E/DX2                !
 ! R11   R(5,13)                 1.0874         estimate D2E/DX2                !
 ! R12   R(6,7)                  1.5361         estimate D2E/DX2                !
 ! R13   R(6,14)                 1.1045         estimate D2E/DX2                !
 ! R14   R(6,15)                 1.1035         estimate D2E/DX2                !
 ! R15   R(7,8)                  1.5294         estimate D2E/DX2                !
 ! R16   R(7,16)                 1.1047         estimate D2E/DX2                !
 ! R17   R(7,17)                 1.1021         estimate D2E/DX2                !
 ! R18   R(8,18)                 1.1013         estimate D2E/DX2                !
 ! R19   R(8,19)                 1.1038         estimate D2E/DX2                !
 ! R20   R(8,20)                 1.104          estimate D2E/DX2                !
 ! R21   R(9,21)                 1.0905         estimate D2E/DX2                !
 ! R22   R(9,22)                 1.0901         estimate D2E/DX2                !
 ! A1    A(2,1,5)              103.2941         estimate D2E/DX2                !
 ! A2    A(2,1,10)             110.9501         estimate D2E/DX2                !
 ! A3    A(2,1,11)             110.9515         estimate D2E/DX2                !
 ! A4    A(5,1,10)             112.7601         estimate D2E/DX2                !
 ! A5    A(5,1,11)             112.5593         estimate D2E/DX2                !
 ! A6    A(10,1,11)            106.4284         estimate D2E/DX2                !
 ! A7    A(1,2,3)              106.4133         estimate D2E/DX2                !
 ! A8    A(1,2,9)              127.0768         estimate D2E/DX2                !
 ! A9    A(3,2,9)              126.5097         estimate D2E/DX2                !
 ! A10   A(2,3,4)              109.8949         estimate D2E/DX2                !
 ! A11   A(2,3,6)              125.1262         estimate D2E/DX2                !
 ! A12   A(4,3,6)              124.8731         estimate D2E/DX2                !
 ! A13   A(3,4,5)              112.2413         estimate D2E/DX2                !
 ! A14   A(3,4,12)             118.7448         estimate D2E/DX2                !
 ! A15   A(5,4,12)             129.0109         estimate D2E/DX2                !
 ! A16   A(1,5,4)              108.1421         estimate D2E/DX2                !
 ! A17   A(1,5,13)             125.5334         estimate D2E/DX2                !
 ! A18   A(4,5,13)             126.3193         estimate D2E/DX2                !
 ! A19   A(3,6,7)              114.4139         estimate D2E/DX2                !
 ! A20   A(3,6,14)             108.3053         estimate D2E/DX2                !
 ! A21   A(3,6,15)             107.8529         estimate D2E/DX2                !
 ! A22   A(7,6,14)             109.8343         estimate D2E/DX2                !
 ! A23   A(7,6,15)             109.7636         estimate D2E/DX2                !
 ! A24   A(14,6,15)            106.3414         estimate D2E/DX2                !
 ! A25   A(6,7,8)              112.2762         estimate D2E/DX2                !
 ! A26   A(6,7,16)             108.7381         estimate D2E/DX2                !
 ! A27   A(6,7,17)             109.0137         estimate D2E/DX2                !
 ! A28   A(8,7,16)             110.0894         estimate D2E/DX2                !
 ! A29   A(8,7,17)             110.141          estimate D2E/DX2                !
 ! A30   A(16,7,17)            106.3966         estimate D2E/DX2                !
 ! A31   A(7,8,18)             111.3338         estimate D2E/DX2                !
 ! A32   A(7,8,19)             111.3676         estimate D2E/DX2                !
 ! A33   A(7,8,20)             111.5628         estimate D2E/DX2                !
 ! A34   A(18,8,19)            107.4914         estimate D2E/DX2                !
 ! A35   A(18,8,20)            107.5064         estimate D2E/DX2                !
 ! A36   A(19,8,20)            107.3599         estimate D2E/DX2                !
 ! A37   A(2,9,21)             122.5529         estimate D2E/DX2                !
 ! A38   A(2,9,22)             119.8428         estimate D2E/DX2                !
 ! A39   A(21,9,22)            117.6039         estimate D2E/DX2                !
 ! D1    D(5,1,2,3)             -1.0401         estimate D2E/DX2                !
 ! D2    D(5,1,2,9)            179.1459         estimate D2E/DX2                !
 ! D3    D(10,1,2,3)          -122.1131         estimate D2E/DX2                !
 ! D4    D(10,1,2,9)            58.0729         estimate D2E/DX2                !
 ! D5    D(11,1,2,3)           119.7959         estimate D2E/DX2                !
 ! D6    D(11,1,2,9)           -60.0181         estimate D2E/DX2                !
 ! D7    D(2,1,5,4)              0.5057         estimate D2E/DX2                !
 ! D8    D(2,1,5,13)           179.7239         estimate D2E/DX2                !
 ! D9    D(10,1,5,4)           120.3441         estimate D2E/DX2                !
 ! D10   D(10,1,5,13)          -60.4378         estimate D2E/DX2                !
 ! D11   D(11,1,5,4)          -119.2316         estimate D2E/DX2                !
 ! D12   D(11,1,5,13)           59.9866         estimate D2E/DX2                !
 ! D13   D(1,2,3,4)              1.2262         estimate D2E/DX2                !
 ! D14   D(1,2,3,6)            177.6311         estimate D2E/DX2                !
 ! D15   D(9,2,3,4)           -178.9584         estimate D2E/DX2                !
 ! D16   D(9,2,3,6)             -2.5534         estimate D2E/DX2                !
 ! D17   D(1,2,9,21)          -179.0825         estimate D2E/DX2                !
 ! D18   D(1,2,9,22)             1.1326         estimate D2E/DX2                !
 ! D19   D(3,2,9,21)             1.1395         estimate D2E/DX2                !
 ! D20   D(3,2,9,22)          -178.6455         estimate D2E/DX2                !
 ! D21   D(2,3,4,5)             -0.9558         estimate D2E/DX2                !
 ! D22   D(2,3,4,12)           179.6059         estimate D2E/DX2                !
 ! D23   D(6,3,4,5)           -177.3719         estimate D2E/DX2                !
 ! D24   D(6,3,4,12)             3.1898         estimate D2E/DX2                !
 ! D25   D(2,3,6,7)            -81.2022         estimate D2E/DX2                !
 ! D26   D(2,3,6,14)            41.6616         estimate D2E/DX2                !
 ! D27   D(2,3,6,15)           156.3638         estimate D2E/DX2                !
 ! D28   D(4,3,6,7)             94.6766         estimate D2E/DX2                !
 ! D29   D(4,3,6,14)          -142.4596         estimate D2E/DX2                !
 ! D30   D(4,3,6,15)           -27.7574         estimate D2E/DX2                !
 ! D31   D(3,4,5,1)              0.2261         estimate D2E/DX2                !
 ! D32   D(3,4,5,13)          -178.9842         estimate D2E/DX2                !
 ! D33   D(12,4,5,1)           179.5924         estimate D2E/DX2                !
 ! D34   D(12,4,5,13)            0.382          estimate D2E/DX2                !
 ! D35   D(3,6,7,8)            178.6324         Scan                            !
 ! D36   D(3,6,7,16)           -59.2996         estimate D2E/DX2                !
 ! D37   D(3,6,7,17)            56.3064         estimate D2E/DX2                !
 ! D38   D(14,6,7,8)            56.6            estimate D2E/DX2                !
 ! D39   D(14,6,7,16)          178.668          estimate D2E/DX2                !
 ! D40   D(14,6,7,17)          -65.726          estimate D2E/DX2                !
 ! D41   D(15,6,7,8)           -59.9786         estimate D2E/DX2                !
 ! D42   D(15,6,7,16)           62.0894         estimate D2E/DX2                !
 ! D43   D(15,6,7,17)          177.6953         estimate D2E/DX2                !
 ! D44   D(6,7,8,18)           179.8977         estimate D2E/DX2                !
 ! D45   D(6,7,8,19)           -60.1488         estimate D2E/DX2                !
 ! D46   D(6,7,8,20)            59.7927         estimate D2E/DX2                !
 ! D47   D(16,7,8,18)           58.6013         estimate D2E/DX2                !
 ! D48   D(16,7,8,19)          178.5548         estimate D2E/DX2                !
 ! D49   D(16,7,8,20)          -61.5036         estimate D2E/DX2                !
 ! D50   D(17,7,8,18)          -58.4178         estimate D2E/DX2                !
 ! D51   D(17,7,8,19)           61.5357         estimate D2E/DX2                !
 ! D52   D(17,7,8,20)         -178.5227         estimate D2E/DX2                !
 --------------------------------------------------------------------------------
 Trust Radius=3.00D-01 FncErr=1.00D-07 GrdErr=1.00D-06
 Number of optimizations in scan=   7
 Number of steps in this run=    123 maximum allowed number of steps=    132.
 GradGradGradGradGradGradGradGradGradGradGradGradGradGradGradGradGradGrad

                          Input orientation:                          
 ---------------------------------------------------------------------
 Center     Atomic      Atomic             Coordinates (Angstroms)
 Number     Number       Type             X           Y           Z
 ---------------------------------------------------------------------
      1          6           0        0.779000    0.587000   -0.130000
      2          6           0       -0.410000   -0.337000    0.142000
      3          7           0       -1.469000    0.488000    0.542000
      4          6           0       -1.064000    1.829000    0.518000
      5          6           0        0.218000    1.966000    0.144000
      6          6           0       -2.808000    0.033000    0.853000
      7          6           0       -3.702000   -0.196000   -0.375000
      8          6           0       -5.092000   -0.707000    0.007000
      9          6           0       -0.439000   -1.679000    0.026000
     10          1           0        1.140000    0.471000   -1.167000
     11          1           0        1.631000    0.338000    0.527000
     12          1           0       -1.783000    2.599000    0.799000
     13          1           0        0.769000    2.900000    0.063000
     14          1           0       -2.730000   -0.900000    1.439000
     15          1           0       -3.273000    0.780000    1.519000
     16          1           0       -3.787000    0.753000   -0.934000
     17          1           0       -3.207000   -0.912000   -1.051000
     18          1           0       -5.720000   -0.864000   -0.884000
     19          1           0       -5.033000   -1.669000    0.545000
     20          1           0       -5.620000    0.006000    0.664000
     21          1           0       -1.336000   -2.266000    0.226000
     22          1           0        0.460000   -2.217000   -0.275000
 ---------------------------------------------------------------------
                    Distance matrix (angstroms):
                    1          2          3          4          5
     1  C    0.000000
     2  C    1.530190   0.000000
     3  N    2.348380   1.400752   0.000000
     4  C    2.314977   2.293610   1.401029   0.000000
     5  C    1.513750   2.387090   2.277906   1.342449   0.000000
     6  C    3.760289   2.528404   1.447987   2.525743   3.660034
     7  C    4.555488   3.335331   2.508991   3.443417   4.506662
     8  C    6.013472   4.698537   3.852321   4.787191   5.946411
     9  C    2.577327   1.347316   2.454189   3.597048   3.705617
    10  H    1.104150   2.183769   3.118950   3.088852   2.191764
    11  H    1.104334   2.183926   3.103663   3.079965   2.189439
    12  H    3.387481   3.307094   2.149643   1.090331   2.198571
    13  H    2.321060   3.445933   3.325031   2.171164   1.087437
    14  H    4.121409   2.716906   2.078767   3.327347   4.310648
    15  H    4.378944   3.367579   2.072247   2.642363   3.935010
    16  H    4.639216   3.708100   2.760783   3.268151   4.321282
    17  H    4.356999   3.094686   2.741951   3.816712   4.630500
    18  H    6.701561   5.433829   4.683202   5.558434   6.657742
    19  H    6.270925   4.827915   4.165904   5.290529   6.398986
    20  H    6.474195   5.247307   4.180671   4.909356   6.180149
    21  H    3.569253   2.141395   2.775259   4.114398   4.509042
    22  H    2.825810   2.113099   3.421338   4.395627   4.210892
                    6          7          8          9         10
     6  C    0.000000
     7  C    1.536119   0.000000
     8  C    2.545579   1.529426   0.000000
     9  C    3.037603   3.606558   4.753478   0.000000
    10  H    4.456338   4.951476   6.450100   2.922155   0.000000
    11  H    4.461393   5.435039   6.823573   2.933290   1.768730
    12  H    2.763675   3.587877   4.744089   4.550291   4.115516
    13  H    4.651744   5.455905   6.882217   4.735808   2.747832
    14  H    1.104522   2.175085   2.768920   2.802158   4.862898
    15  H    1.103535   2.173443   2.793935   4.038228   5.175389
    16  H    2.161067   1.104675   2.172581   4.247979   4.940561
    17  H    2.162739   1.102115   2.171316   3.067579   4.563174
    18  H    3.507352   2.185779   1.101324   5.420451   6.994420
    19  H    2.818207   2.188079   1.103798   4.623234   6.753997
    20  H    2.818473   2.190673   1.103994   5.485347   7.019002
    21  H    2.800949   3.200634   4.072589   1.090494   3.944895
    22  H    4.124889   4.627816   5.760584   1.090067   2.912629
                   11         12         13         14         15
    11  H    0.000000
    12  H    4.103840   0.000000
    13  H    2.742660   2.673013   0.000000
    14  H    4.624144   3.680952   5.345688   0.000000
    15  H    5.022812   2.459118   4.790835   1.767385   0.000000
    16  H    5.626853   3.229090   5.134272   3.079089   2.506419
    17  H    5.240117   4.216325   5.619690   2.535305   3.077681
    18  H    7.581090   5.506798   7.561192   3.786519   3.803282
    19  H    6.959689   5.370553   7.400763   2.587355   3.169208
    20  H    7.259889   4.632973   7.039585   3.126269   2.615054
    21  H    3.959104   4.918980   5.580784   2.297947   3.834310
    22  H    2.922750   5.420183   5.137452   3.853360   5.112312
                   16         17         18         19         20
    16  H    0.000000
    17  H    1.767007   0.000000
    18  H    2.520650   2.519000   0.000000
    19  H    3.099361   2.540579   1.778211   0.000000
    20  H    2.543915   3.099438   1.778540   1.778863   0.000000
    21  H    4.058000   2.639069   4.734676   3.758454   4.868930
    22  H    5.224193   3.968890   6.355619   5.580838   6.541395
                   21         22
    21  H    0.000000
    22  H    1.865213   0.000000
 Stoichiometry    C8H13N
 Framework group  C1[X(C8H13N)]
 Deg. of freedom    60
 Full point group                 C1      NOp   1
 Largest Abelian subgroup         C1      NOp   1
 Largest concise Abelian subgroup C1      NOp   1
                         Standard orientation:                         
 ---------------------------------------------------------------------
 Center     Atomic      Atomic             Coordinates (Angstroms)
 Number     Number       Type             X           Y           Z
 ---------------------------------------------------------------------
      1          6           0        2.471965    0.316529    0.287968
      2          6           0        1.075144    0.834374   -0.061614
      3          7           0        0.288424   -0.294688   -0.323138
      4          6           0        1.048871   -1.457616   -0.143692
      5          6           0        2.316474   -1.186967    0.205739
      6          6           0       -1.122393   -0.269979   -0.648178
      7          6           0       -2.051929   -0.140102    0.567863
      8          6           0       -3.526851   -0.085219    0.166941
      9          6           0        0.674892    2.119812   -0.113672
     10          1           0        2.780708    0.659823    1.290951
     11          1           0        3.225444    0.703901   -0.420386
     12          1           0        0.572920   -2.425340   -0.304329
     13          1           0        3.104143   -1.914612    0.386374
     14          1           0       -1.302486    0.564998   -1.348426
     15          1           0       -1.358431   -1.195350   -1.201138
     16          1           0       -1.873974   -0.995723    1.243550
     17          1           0       -1.778537    0.765283    1.133717
     18          1           0       -4.178907    0.005983    1.049787
     19          1           0       -3.733511    0.778326   -0.488765
     20          1           0       -3.832893   -0.994392   -0.379453
     21          1           0       -0.348430    2.406280   -0.358467
     22          1           0        1.387943    2.918657    0.090415
 ---------------------------------------------------------------------
 Rotational constants (GHZ):      3.1441629      1.0197759      0.8267813
 Standard basis: CC-pVDZ (5D, 7F)
 There are   191 symmetry adapted basis functions of A   symmetry.
 Integral buffers will be    131072 words long.
 Raffenetti 2 integral format.
 Two-electron integral symmetry is turned on.
   191 basis functions,   388 primitive gaussians,   200 cartesian basis functions
    34 alpha electrons       34 beta electrons
       nuclear repulsion energy       442.5730450962 Hartrees.
 NAtoms=   22 NActive=   22 NUniq=   22 SFac= 1.00D+00 NAtFMM=   50 NAOKFM=F Big=F
 One-electron integrals computed using PRISM.
 NBasis=   191 RedAO= T  NBF=   191
 NBsUse=   191 1.00D-06 NBFU=   191
 Harris functional with IExCor=  402 diagonalized for initial guess.
 ExpMin= 1.22D-01 ExpMax= 9.05D+03 ExpMxC= 3.09D+02 IAcc=1 IRadAn=         1 AccDes= 0.00D+00
 HarFok:  IExCor=  402 AccDes= 0.00D+00 IRadAn=         1 IDoV= 1
 ScaDFX=  1.000000  1.000000  1.000000  1.000000
 FoFCou: FMM=F IPFlag=           0 FMFlag=      100000 FMFlg1=           0
         NFxFlg=           0 DoJE=T BraDBF=F KetDBF=T FulRan=T
         Omega=  0.000000  0.000000  1.000000  0.000000  0.000000 ICntrl=     500 IOpCl=  0
         NMat0=    1 NMatS0=    1 NMatT0=    0 NMatD0=    1 NMtDS0=    0 NMtDT0=    0
         I1Cent=           4 NGrid=           0.
 Petite list used in FoFCou.
 Initial guess orbital symmetries:
       Occupied  (A) (A) (A) (A) (A) (A) (A) (A) (A) (A) (A) (A)
                 (A) (A) (A) (A) (A) (A) (A) (A) (A) (A) (A) (A)
                 (A) (A) (A) (A) (A) (A) (A) (A) (A) (A)
       Virtual   (A) (A) (A) (A) (A) (A) (A) (A) (A) (A) (A) (A)
                 (A) (A) (A) (A) (A) (A) (A) (A) (A) (A) (A) (A)
                 (A) (A) (A) (A) (A) (A) (A) (A) (A) (A) (A) (A)
                 (A) (A) (A) (A) (A) (A) (A) (A) (A) (A) (A) (A)
                 (A) (A) (A) (A) (A) (A) (A) (A) (A) (A) (A) (A)
                 (A) (A) (A) (A) (A) (A) (A) (A) (A) (A) (A) (A)
                 (A) (A) (A) (A) (A) (A) (A) (A) (A) (A) (A) (A)
                 (A) (A) (A) (A) (A) (A) (A) (A) (A) (A) (A) (A)
                 (A) (A) (A) (A) (A) (A) (A) (A) (A) (A) (A) (A)
                 (A) (A) (A) (A) (A) (A) (A) (A) (A) (A) (A) (A)
                 (A) (A) (A) (A) (A) (A) (A) (A) (A) (A) (A) (A)
                 (A) (A) (A) (A) (A) (A) (A) (A) (A) (A) (A) (A)
                 (A) (A) (A) (A) (A) (A) (A) (A) (A) (A) (A) (A)
                 (A)
 The electronic state of the initial guess is 1-A.
 Requested convergence on RMS density matrix=1.00D-08 within 128 cycles.
 Requested convergence on MAX density matrix=1.00D-06.
 Requested convergence on             energy=1.00D-06.
 No special actions if energy rises.
 Keep R1 ints in memory in canonical form, NReq=206404496.
 Integral accuracy reduced to 1.0D-05 until final iterations.
 Initial convergence to 1.0D-05 achieved.  Increase integral accuracy.
 SCF Done:  E(RB3LYP) =  -367.407838485     A.U. after   14 cycles
             Convg  =    0.6428D-08             -V/T =  2.0079

 **********************************************************************

            Population analysis using the SCF density.

 **********************************************************************

 Orbital symmetries:
       Occupied  (A) (A) (A) (A) (A) (A) (A) (A) (A) (A) (A) (A)
                 (A) (A) (A) (A) (A) (A) (A) (A) (A) (A) (A) (A)
                 (A) (A) (A) (A) (A) (A) (A) (A) (A) (A)
       Virtual   (A) (A) (A) (A) (A) (A) (A) (A) (A) (A) (A) (A)
                 (A) (A) (A) (A) (A) (A) (A) (A) (A) (A) (A) (A)
                 (A) (A) (A) (A) (A) (A) (A) (A) (A) (A) (A) (A)
                 (A) (A) (A) (A) (A) (A) (A) (A) (A) (A) (A) (A)
                 (A) (A) (A) (A) (A) (A) (A) (A) (A) (A) (A) (A)
                 (A) (A) (A) (A) (A) (A) (A) (A) (A) (A) (A) (A)
                 (A) (A) (A) (A) (A) (A) (A) (A) (A) (A) (A) (A)
                 (A) (A) (A) (A) (A) (A) (A) (A) (A) (A) (A) (A)
                 (A) (A) (A) (A) (A) (A) (A) (A) (A) (A) (A) (A)
                 (A) (A) (A) (A) (A) (A) (A) (A) (A) (A) (A) (A)
                 (A) (A) (A) (A) (A) (A) (A) (A) (A) (A) (A) (A)
                 (A) (A) (A) (A) (A) (A) (A) (A) (A) (A) (A) (A)
                 (A) (A) (A) (A) (A) (A) (A) (A) (A) (A) (A) (A)
                 (A)
 The electronic state is 1-A.
 Alpha  occ. eigenvalues --  -14.35092 -10.22426 -10.21762 -10.21459 -10.19171
 Alpha  occ. eigenvalues --  -10.18778 -10.18486 -10.16860 -10.15253  -0.96580
 Alpha  occ. eigenvalues --   -0.81033  -0.76087  -0.75543  -0.68218  -0.65177
 Alpha  occ. eigenvalues --   -0.60267  -0.57916  -0.52812  -0.49634  -0.47079
 Alpha  occ. eigenvalues --   -0.44639  -0.43549  -0.42538  -0.41679  -0.39718
 Alpha  occ. eigenvalues --   -0.38849  -0.37276  -0.36753  -0.35771  -0.34206
 Alpha  occ. eigenvalues --   -0.33389  -0.32115  -0.26065  -0.17147
 Alpha virt. eigenvalues --    0.01150   0.05047   0.06714   0.07416   0.08286
 Alpha virt. eigenvalues --    0.09655   0.10734   0.11023   0.13082   0.13635
 Alpha virt. eigenvalues --    0.14153   0.14933   0.15174   0.15477   0.16437
 Alpha virt. eigenvalues --    0.19607   0.20734   0.22221   0.23739   0.24927
 Alpha virt. eigenvalues --    0.26962   0.34616   0.35798   0.38939   0.39895
 Alpha virt. eigenvalues --    0.41023   0.42002   0.43007   0.45287   0.46782
 Alpha virt. eigenvalues --    0.48299   0.48625   0.49691   0.50978   0.52615
 Alpha virt. eigenvalues --    0.54302   0.56206   0.56785   0.57014   0.59217
 Alpha virt. eigenvalues --    0.60760   0.61998   0.63005   0.63843   0.64445
 Alpha virt. eigenvalues --    0.65061   0.65382   0.65819   0.66319   0.67197
 Alpha virt. eigenvalues --    0.68001   0.69633   0.70496   0.71593   0.72020
 Alpha virt. eigenvalues --    0.73118   0.78650   0.81492   0.82470   0.84579
 Alpha virt. eigenvalues --    0.86461   0.90061   0.90965   0.94979   0.97195
 Alpha virt. eigenvalues --    1.00456   1.01118   1.03539   1.04713   1.08502
 Alpha virt. eigenvalues --    1.09221   1.12124   1.13055   1.13920   1.20365
 Alpha virt. eigenvalues --    1.20821   1.22361   1.26830   1.33061   1.34172
 Alpha virt. eigenvalues --    1.35473   1.36843   1.38816   1.41850   1.41901
 Alpha virt. eigenvalues --    1.46940   1.49419   1.49585   1.50945   1.53280
 Alpha virt. eigenvalues --    1.54033   1.56234   1.59095   1.60425   1.61054
 Alpha virt. eigenvalues --    1.62097   1.63110   1.63571   1.64921   1.66062
 Alpha virt. eigenvalues --    1.67742   1.67903   1.68595   1.69786   1.71026
 Alpha virt. eigenvalues --    1.71427   1.72347   1.72564   1.75725   1.76597
 Alpha virt. eigenvalues --    1.78087   1.80478   1.82360   1.83742   1.84498
 Alpha virt. eigenvalues --    1.87997   1.88232   1.92163   1.93579   1.94330
 Alpha virt. eigenvalues --    1.97857   1.98626   1.99698   2.03961   2.04395
 Alpha virt. eigenvalues --    2.05799   2.09627   2.10342   2.13866   2.15595
 Alpha virt. eigenvalues --    2.17587   2.18102   2.21818   2.24309   2.27859
 Alpha virt. eigenvalues --    2.29871   2.31314   2.33145   2.38568   2.39614
 Alpha virt. eigenvalues --    2.41401   2.43130   2.45514   2.46410   2.47707
 Alpha virt. eigenvalues --    2.51825   2.54322   2.56167   2.58102   2.62390
 Alpha virt. eigenvalues --    2.63591   2.67587   2.70212   2.78244   2.87290
 Alpha virt. eigenvalues --    3.05637   3.21415
          Condensed to atoms (all electrons):
              1          2          3          4          5          6
     1  C    4.671288   0.371316  -0.067557  -0.054229   0.382297   0.011347
     2  C    0.371316   4.703106   0.424729  -0.087635  -0.036330  -0.055918
     3  N   -0.067557   0.424729   6.311934   0.391808  -0.040441   0.376913
     4  C   -0.054229  -0.087635   0.391808   4.679588   0.614946  -0.053134
     5  C    0.382297  -0.036330  -0.040441   0.614946   4.887466   0.004859
     6  C    0.011347  -0.055918   0.376913  -0.053134   0.004859   4.560571
     7  C   -0.000674  -0.005074  -0.046288  -0.001447   0.000003   0.441404
     8  C    0.000005   0.000003   0.004049  -0.000103  -0.000002  -0.041161
     9  C   -0.074820   0.682684  -0.058415   0.006584   0.006274  -0.007731
    10  H    0.353184  -0.008066   0.002116  -0.001169  -0.016499  -0.000170
    11  H    0.351277  -0.006716   0.001964  -0.001897  -0.016036  -0.000153
    12  H    0.010378   0.001230  -0.034507   0.393335  -0.049840  -0.001766
    13  H   -0.039861   0.005498   0.004516  -0.035391   0.398063  -0.000143
    14  H    0.000513  -0.009655  -0.018316   0.006490  -0.000835   0.357758
    15  H   -0.000901   0.007463  -0.015435  -0.006890   0.002071   0.358283
    16  H    0.000146  -0.000458  -0.000606   0.003357  -0.000647  -0.025408
    17  H   -0.000436   0.005123  -0.005891  -0.000654   0.000326  -0.025173
    18  H    0.000000  -0.000011  -0.000191  -0.000001   0.000000   0.004534
    19  H    0.000001  -0.000015   0.000184   0.000014  -0.000001  -0.005321
    20  H   -0.000001   0.000017   0.000217  -0.000011   0.000001  -0.004689
    21  H    0.008768   0.023807  -0.013748  -0.000182  -0.000472   0.006034
    22  H   -0.016164   0.013799   0.005265  -0.000027   0.000636  -0.000537
              7          8          9         10         11         12
     1  C   -0.000674   0.000005  -0.074820   0.353184   0.351277   0.010378
     2  C   -0.005074   0.000003   0.682684  -0.008066  -0.006716   0.001230
     3  N   -0.046288   0.004049  -0.058415   0.002116   0.001964  -0.034507
     4  C   -0.001447  -0.000103   0.006584  -0.001169  -0.001897   0.393335
     5  C    0.000003  -0.000002   0.006274  -0.016499  -0.016036  -0.049840
     6  C    0.441404  -0.041161  -0.007731  -0.000170  -0.000153  -0.001766
     7  C    4.619472   0.426625  -0.001085   0.000037   0.000009  -0.000777
     8  C    0.426625   4.526194  -0.000285   0.000000   0.000000  -0.000052
     9  C   -0.001085  -0.000285   4.774731  -0.003722  -0.003299  -0.000735
    10  H    0.000037   0.000000  -0.003722   0.668353  -0.038363  -0.000240
    11  H    0.000009   0.000000  -0.003299  -0.038363   0.668640  -0.000263
    12  H   -0.000777  -0.000052  -0.000735  -0.000240  -0.000263   0.700133
    13  H    0.000011   0.000000  -0.000241  -0.000346  -0.000383  -0.007162
    14  H   -0.044447  -0.000338   0.008504   0.000033  -0.000110   0.000385
    15  H   -0.035917  -0.002522   0.000304   0.000022   0.000011   0.002699
    16  H    0.366848  -0.022536  -0.000040  -0.000016   0.000002   0.001101
    17  H    0.378515  -0.023599   0.004967  -0.000063   0.000024  -0.000071
    18  H   -0.006954   0.376703   0.000015   0.000000   0.000000   0.000001
    19  H   -0.025591   0.389330   0.000020   0.000000   0.000000   0.000005
    20  H   -0.027581   0.389001  -0.000007   0.000000   0.000000  -0.000020
    21  H   -0.002394  -0.000018   0.338380  -0.000055  -0.000109  -0.000025
    22  H    0.000222   0.000001   0.360396   0.001572   0.001499   0.000019
             13         14         15         16         17         18
     1  C   -0.039861   0.000513  -0.000901   0.000146  -0.000436   0.000000
     2  C    0.005498  -0.009655   0.007463  -0.000458   0.005123  -0.000011
     3  N    0.004516  -0.018316  -0.015435  -0.000606  -0.005891  -0.000191
     4  C   -0.035391   0.006490  -0.006890   0.003357  -0.000654  -0.000001
     5  C    0.398063  -0.000835   0.002071  -0.000647   0.000326   0.000000
     6  C   -0.000143   0.357758   0.358283  -0.025408  -0.025173   0.004534
     7  C    0.000011  -0.044447  -0.035917   0.366848   0.378515  -0.006954
     8  C    0.000000  -0.000338  -0.002522  -0.022536  -0.023599   0.376703
     9  C   -0.000241   0.008504   0.000304  -0.000040   0.004967   0.000015
    10  H   -0.000346   0.000033   0.000022  -0.000016  -0.000063   0.000000
    11  H   -0.000383  -0.000110   0.000011   0.000002   0.000024   0.000000
    12  H   -0.007162   0.000385   0.002699   0.001101  -0.000071   0.000001
    13  H    0.709070   0.000016  -0.000003   0.000003   0.000001   0.000000
    14  H    0.000016   0.710573  -0.032723   0.010404  -0.013615  -0.000268
    15  H   -0.000003  -0.032723   0.714064  -0.011844   0.009675  -0.000240
    16  H    0.000003   0.010404  -0.011844   0.717495  -0.041444  -0.005180
    17  H    0.000001  -0.013615   0.009675  -0.041444   0.692318  -0.004724
    18  H    0.000000  -0.000268  -0.000240  -0.005180  -0.004724   0.677610
    19  H    0.000000   0.007848  -0.001798   0.008754  -0.008275  -0.029630
    20  H    0.000000  -0.001491   0.007620  -0.008651   0.008296  -0.030560
    21  H    0.000013   0.002752  -0.000101  -0.000083   0.002047  -0.000020
    22  H   -0.000006  -0.000007  -0.000002   0.000001  -0.000104   0.000000
             19         20         21         22
     1  C    0.000001  -0.000001   0.008768  -0.016164
     2  C   -0.000015   0.000017   0.023807   0.013799
     3  N    0.000184   0.000217  -0.013748   0.005265
     4  C    0.000014  -0.000011  -0.000182  -0.000027
     5  C   -0.000001   0.000001  -0.000472   0.000636
     6  C   -0.005321  -0.004689   0.006034  -0.000537
     7  C   -0.025591  -0.027581  -0.002394   0.000222
     8  C    0.389330   0.389001  -0.000018   0.000001
     9  C    0.000020  -0.000007   0.338380   0.360396
    10  H    0.000000   0.000000  -0.000055   0.001572
    11  H    0.000000   0.000000  -0.000109   0.001499
    12  H    0.000005  -0.000020  -0.000025   0.000019
    13  H    0.000000   0.000000   0.000013  -0.000006
    14  H    0.007848  -0.001491   0.002752  -0.000007
    15  H   -0.001798   0.007620  -0.000101  -0.000002
    16  H    0.008754  -0.008651  -0.000083   0.000001
    17  H   -0.008275   0.008296   0.002047  -0.000104
    18  H   -0.029630  -0.030560  -0.000020   0.000000
    19  H    0.676515  -0.032596  -0.000016   0.000000
    20  H   -0.032596   0.683729   0.000000   0.000000
    21  H   -0.000016   0.000000   0.697952  -0.056751
    22  H    0.000000   0.000000  -0.056751   0.699323
 Mulliken atomic charges:
              1
     1  C    0.094121
     2  C   -0.028898
     3  N   -0.222301
     4  C    0.146648
     5  C   -0.135839
     6  C    0.099600
     7  C   -0.034920
     8  C   -0.021295
     9  C   -0.032479
    10  H    0.043393
    11  H    0.043902
    12  H   -0.013828
    13  H   -0.033656
    14  H    0.016529
    15  H    0.006164
    16  H    0.008802
    17  H    0.022755
    18  H    0.018916
    19  H    0.020572
    20  H    0.016725
    21  H   -0.005779
    22  H   -0.009135
 Sum of Mulliken atomic charges =   0.00000
 Mulliken charges with hydrogens summed into heavy atoms:
              1
     1  C    0.181417
     2  C   -0.028898
     3  N   -0.222301
     4  C    0.132820
     5  C   -0.169495
     6  C    0.122292
     7  C   -0.003362
     8  C    0.034919
     9  C   -0.047393
 Sum of Mulliken charges with hydrogens summed into heavy atoms =   0.00000
 Electronic spatial extent (au):  <R**2>=           1480.2413
 Charge=              0.0000 electrons
 Dipole moment (field-independent basis, Debye):
    X=             -0.7955    Y=             -1.0350    Z=             -0.0615  Tot=              1.3068
 Quadrupole moment (field-independent basis, Debye-Ang):
   XX=            -53.2135   YY=            -55.9437   ZZ=            -58.4904
   XY=              0.4812   XZ=              1.3765   YZ=              0.6751
 Traceless Quadrupole moment (field-independent basis, Debye-Ang):
   XX=              2.6691   YY=             -0.0612   ZZ=             -2.6079
   XY=              0.4812   XZ=              1.3765   YZ=              0.6751
 Octapole moment (field-independent basis, Debye-Ang**2):
  XXX=              7.4502  YYY=            -10.0189  ZZZ=              0.5672  XYY=             -1.1278
  XXY=              1.8325  XXZ=              3.4908  XZZ=             -3.8549  YZZ=             -1.0555
  YYZ=             -0.8416  XYZ=              0.4380
 Hexadecapole moment (field-independent basis, Debye-Ang**3):
 XXXX=          -1431.0392 YYYY=           -465.7220 ZZZZ=           -140.0776 XXXY=              0.3078
 XXXZ=              0.8464 YYYX=             -2.3004 YYYZ=              4.7294 ZZZX=              0.9590
 ZZZY=              2.6908 XXYY=           -312.3899 XXZZ=           -263.8486 YYZZ=           -110.8440
 XXYZ=             -1.4650 YYXZ=              5.8304 ZZXY=              2.4817
 N-N= 4.425730450962D+02 E-N=-1.735929689389D+03  KE= 3.645397719444D+02
 Calling FoFJK, ICntrl=      2127 FMM=F ISym2X=0 I1Cent= 0 IOpClX= 0 NMat=1 NMatS=1 NMatT=0.
 ***** Axes restored to original set *****
 -------------------------------------------------------------------
 Center     Atomic                   Forces (Hartrees/Bohr)
 Number     Number              X              Y              Z
 -------------------------------------------------------------------
      1        6          -0.000219942   -0.000315975   -0.000096047
      2        6           0.000451881    0.000027586   -0.000045448
      3        7          -0.000707552    0.000336913    0.000111585
      4        6          -0.000873543    0.000168132    0.000328812
      5        6           0.000798151    0.000567492   -0.000193269
      6        6           0.000523157    0.000253222    0.000236481
      7        6          -0.000424846    0.000667872    0.000011836
      8        6          -0.000206470   -0.000216482    0.000106604
      9        6          -0.000125007   -0.000583628   -0.000081017
     10        1           0.000064964   -0.000005292   -0.000137077
     11        1           0.000160974   -0.000024900    0.000143344
     12        1           0.000195196   -0.000208703   -0.000077095
     13        1          -0.000227206   -0.000289706    0.000051969
     14        1          -0.000017629   -0.000126609    0.000109405
     15        1           0.000014224   -0.000097886   -0.000074287
     16        1           0.000063203   -0.000175306    0.000036994
     17        1           0.000240965   -0.000320954   -0.000312804
     18        1          -0.000006223    0.000007017   -0.000026980
     19        1           0.000002719    0.000112599   -0.000032935
     20        1           0.000125198   -0.000026934   -0.000041861
     21        1           0.000217755    0.000195217   -0.000028216
     22        1          -0.000049969    0.000056328    0.000010005
 -------------------------------------------------------------------
 Cartesian Forces:  Max     0.000873543 RMS     0.000278810

 GradGradGradGradGradGradGradGradGradGradGradGradGradGradGradGradGradGrad
 Berny optimization.
 Internal  Forces:  Max     0.000652233 RMS     0.000134242
 Search for a local minimum.
 Step number   1 out of a maximum of  123 on scan point     1 out of     7
 All quantities printed in internal units (Hartrees-Bohrs-Radians)
 Mixed Optimization -- En-DIIS/RFO-DIIS
 Second derivative matrix not updated -- first step.
 ITU=  0
     Eigenvalues ---    0.00377   0.00696   0.01057   0.01340   0.01437
     Eigenvalues ---    0.01509   0.01558   0.01814   0.02379   0.02786
     Eigenvalues ---    0.02786   0.03743   0.04810   0.05091   0.05358
     Eigenvalues ---    0.05443   0.05464   0.06980   0.08269   0.08520
     Eigenvalues ---    0.09565   0.09839   0.11208   0.12870   0.15997
     Eigenvalues ---    0.15999   0.16000   0.16000   0.16000   0.16000
     Eigenvalues ---    0.16000   0.21891   0.21966   0.22150   0.24089
     Eigenvalues ---    0.24922   0.25000   0.28729   0.28866   0.29476
     Eigenvalues ---    0.30184   0.33170   0.33187   0.33207   0.33227
     Eigenvalues ---    0.33244   0.33266   0.33294   0.33449   0.33536
     Eigenvalues ---    0.34756   0.34774   0.34805   0.35111   0.38510
     Eigenvalues ---    0.42965   0.43909   0.54197   0.555961000.00000
     Eigenvalues --- 1000.000001000.000001000.000001000.000001000.00000
     Eigenvalues --- 1000.000001000.000001000.000001000.000001000.00000
     Eigenvalues --- 1000.000001000.000001000.000001000.000001000.00000
     Eigenvalues --- 1000.000001000.000001000.000001000.000001000.00000
     Eigenvalues --- 1000.000001000.000001000.000001000.000001000.00000
     Eigenvalues --- 1000.000001000.000001000.000001000.000001000.00000
     Eigenvalues --- 1000.000001000.000001000.000001000.000001000.00000
     Eigenvalues --- 1000.000001000.000001000.000001000.000001000.00000
     Eigenvalues --- 1000.000001000.000001000.000001000.000001000.00000
     Eigenvalues --- 1000.000001000.000001000.000001000.000001000.00000
     Eigenvalues --- 1000.000001000.000001000.00000
 RFO step:  Lambda=-5.67936310D-06 EMin= 3.76691707D-03
 Linear search not attempted -- first point.
 Iteration  1 RMS(Cart)=  0.00058543 RMS(Int)=  0.00000025
 Iteration  2 RMS(Cart)=  0.00000028 RMS(Int)=  0.00000007
 Iteration  1 RMS(Cart)=  0.00000001 RMS(Int)=  0.00000000
 Variable       Old X    -DE/DX   Delta X   Delta X   Delta X     New X
                                 (Linear)    (Quad)   (Total)
    R1        2.89164  -0.00007   0.00000  -0.00032  -0.00032   2.89132
    R2        2.86057   0.00028   0.00000   0.00090   0.00090   2.86147
    R3        2.08654   0.00015   0.00000   0.00045   0.00045   2.08699
    R4        2.08689   0.00022   0.00000   0.00065   0.00065   2.08754
    R5        2.64704   0.00060   0.00000   0.00130   0.00130   2.64834
    R6        2.54606   0.00034   0.00000   0.00060   0.00060   2.54666
    R7        2.64756  -0.00005   0.00000  -0.00008  -0.00008   2.64748
    R8        2.73630  -0.00031   0.00000  -0.00082  -0.00082   2.73548
    R9        2.53686   0.00065   0.00000   0.00118   0.00118   2.53804
   R10        2.06043  -0.00030   0.00000  -0.00085  -0.00085   2.05958
   R11        2.05496  -0.00037   0.00000  -0.00105  -0.00105   2.05391
   R12        2.90284   0.00033   0.00000   0.00115   0.00115   2.90399
   R13        2.08724   0.00016   0.00000   0.00049   0.00049   2.08773
   R14        2.08538  -0.00012   0.00000  -0.00035  -0.00035   2.08503
   R15        2.89020   0.00012   0.00000   0.00040   0.00040   2.89060
   R16        2.08753  -0.00018   0.00000  -0.00053  -0.00053   2.08701
   R17        2.08270   0.00051   0.00000   0.00153   0.00153   2.08422
   R18        2.08120   0.00003   0.00000   0.00008   0.00008   2.08128
   R19        2.08588  -0.00011   0.00000  -0.00034  -0.00034   2.08553
   R20        2.08625  -0.00011   0.00000  -0.00032  -0.00032   2.08593
   R21        2.06074  -0.00029   0.00000  -0.00083  -0.00083   2.05990
   R22        2.05993  -0.00007   0.00000  -0.00021  -0.00021   2.05972
    A1        1.80282   0.00004   0.00000   0.00005   0.00005   1.80287
    A2        1.93644   0.00001   0.00000   0.00029   0.00029   1.93673
    A3        1.93647  -0.00001   0.00000  -0.00005  -0.00005   1.93642
    A4        1.96804  -0.00001   0.00000   0.00011   0.00011   1.96814
    A5        1.96453  -0.00004   0.00000  -0.00041  -0.00041   1.96412
    A6        1.85753   0.00001   0.00000   0.00003   0.00003   1.85755
    A7        1.85726   0.00004   0.00000   0.00007   0.00007   1.85734
    A8        2.21791  -0.00008   0.00000  -0.00025  -0.00025   2.21765
    A9        2.20801   0.00003   0.00000   0.00018   0.00018   2.20819
   A10        1.91803   0.00002   0.00000   0.00014   0.00014   1.91817
   A11        2.18386  -0.00004   0.00000  -0.00016  -0.00016   2.18370
   A12        2.17945   0.00002   0.00000   0.00005   0.00005   2.17949
   A13        1.95898  -0.00009   0.00000  -0.00026  -0.00026   1.95873
   A14        2.07249   0.00005   0.00000   0.00014   0.00014   2.07263
   A15        2.25167   0.00004   0.00000   0.00012   0.00012   2.25179
   A16        1.88744  -0.00001   0.00000   0.00001   0.00001   1.88745
   A17        2.19097   0.00006   0.00000   0.00034   0.00034   2.19131
   A18        2.20469  -0.00005   0.00000  -0.00035  -0.00035   2.20433
   A19        1.99690  -0.00010   0.00000  -0.00044  -0.00044   1.99646
   A20        1.89028   0.00005   0.00000   0.00049   0.00049   1.89077
   A21        1.88239   0.00006   0.00000   0.00023   0.00023   1.88262
   A22        1.91697   0.00003   0.00000   0.00025   0.00025   1.91722
   A23        1.91574  -0.00001   0.00000  -0.00034  -0.00034   1.91539
   A24        1.85601  -0.00002   0.00000  -0.00017  -0.00017   1.85584
   A25        1.95959   0.00000   0.00000   0.00009   0.00009   1.95968
   A26        1.89784   0.00001   0.00000   0.00042   0.00042   1.89826
   A27        1.90265  -0.00002   0.00000  -0.00050  -0.00050   1.90215
   A28        1.92142   0.00003   0.00000   0.00068   0.00068   1.92210
   A29        1.92232   0.00000   0.00000  -0.00028  -0.00028   1.92205
   A30        1.85697  -0.00002   0.00000  -0.00044  -0.00044   1.85653
   A31        1.94314   0.00001   0.00000   0.00018   0.00018   1.94332
   A32        1.94373   0.00001   0.00000   0.00009   0.00009   1.94382
   A33        1.94714  -0.00012   0.00000  -0.00091  -0.00091   1.94623
   A34        1.87608   0.00002   0.00000   0.00036   0.00036   1.87644
   A35        1.87634   0.00006   0.00000   0.00034   0.00034   1.87668
   A36        1.87378   0.00004   0.00000  -0.00001  -0.00001   1.87377
   A37        2.13895  -0.00005   0.00000  -0.00033  -0.00033   2.13862
   A38        2.09165   0.00000   0.00000   0.00001   0.00001   2.09167
   A39        2.05258   0.00005   0.00000   0.00032   0.00032   2.05289
    D1       -0.01815   0.00001   0.00000   0.00037   0.00037  -0.01778
    D2        3.12669   0.00000   0.00000  -0.00029  -0.00029   3.12639
    D3       -2.13128   0.00000   0.00000   0.00007   0.00007  -2.13120
    D4        1.01356  -0.00001   0.00000  -0.00059  -0.00059   1.01297
    D5        2.09083  -0.00001   0.00000  -0.00012  -0.00012   2.09072
    D6       -1.04751  -0.00002   0.00000  -0.00078  -0.00078  -1.04829
    D7        0.00883  -0.00001   0.00000   0.00003   0.00003   0.00886
    D8        3.13677  -0.00001   0.00000  -0.00028  -0.00028   3.13649
    D9        2.10040   0.00002   0.00000   0.00046   0.00046   2.10086
   D10       -1.05484   0.00002   0.00000   0.00015   0.00015  -1.05469
   D11       -2.08098   0.00000   0.00000   0.00027   0.00027  -2.08071
   D12        1.04696  -0.00001   0.00000  -0.00004  -0.00004   1.04692
   D13        0.02140  -0.00001   0.00000  -0.00063  -0.00063   0.02077
   D14        3.10025  -0.00001   0.00000  -0.00026  -0.00026   3.09999
   D15       -3.12341   0.00000   0.00000   0.00003   0.00003  -3.12339
   D16       -0.04457   0.00000   0.00000   0.00039   0.00039  -0.04417
   D17       -3.12558  -0.00001   0.00000  -0.00029  -0.00029  -3.12587
   D18        0.01977   0.00001   0.00000   0.00043   0.00043   0.02020
   D19        0.01989  -0.00003   0.00000  -0.00108  -0.00108   0.01880
   D20       -3.11795  -0.00001   0.00000  -0.00036  -0.00036  -3.11831
   D21       -0.01668   0.00001   0.00000   0.00070   0.00070  -0.01598
   D22        3.13471   0.00001   0.00000   0.00023   0.00023   3.13495
   D23       -3.09572   0.00001   0.00000   0.00034   0.00034  -3.09538
   D24        0.05567   0.00000   0.00000  -0.00012  -0.00012   0.05555
   D25       -1.41725  -0.00002   0.00000  -0.00054  -0.00054  -1.41778
   D26        0.72713  -0.00001   0.00000  -0.00014  -0.00014   0.72699
   D27        2.72906   0.00002   0.00000   0.00003   0.00003   2.72909
   D28        1.65242  -0.00001   0.00000  -0.00011  -0.00011   1.65230
   D29       -2.48639   0.00000   0.00000   0.00028   0.00028  -2.48611
   D30       -0.48446   0.00003   0.00000   0.00045   0.00045  -0.48401
   D31        0.00395   0.00000   0.00000  -0.00043  -0.00043   0.00352
   D32       -3.12386   0.00000   0.00000  -0.00012  -0.00012  -3.12398
   D33        3.13448   0.00001   0.00000   0.00010   0.00010   3.13458
   D34        0.00667   0.00001   0.00000   0.00041   0.00041   0.00707
   D35        3.11772  -0.00001   0.00000   0.00000   0.00000   3.11772
   D36       -1.03497   0.00004   0.00000   0.00120   0.00120  -1.03377
   D37        0.98273   0.00000   0.00000   0.00064   0.00064   0.98337
   D38        0.98786  -0.00003   0.00000  -0.00052  -0.00052   0.98734
   D39        3.11834   0.00002   0.00000   0.00069   0.00069   3.11903
   D40       -1.14714  -0.00001   0.00000   0.00012   0.00012  -1.14701
   D41       -1.04682  -0.00002   0.00000  -0.00027  -0.00027  -1.04709
   D42        1.08366   0.00003   0.00000   0.00094   0.00094   1.08460
   D43        3.10137   0.00000   0.00000   0.00037   0.00037   3.10174
   D44        3.13981   0.00001   0.00000   0.00052   0.00052   3.14032
   D45       -1.04980   0.00004   0.00000   0.00115   0.00115  -1.04865
   D46        1.04358   0.00001   0.00000   0.00058   0.00058   1.04416
   D47        1.02279  -0.00003   0.00000  -0.00055  -0.00055   1.02223
   D48        3.11637   0.00001   0.00000   0.00008   0.00008   3.11645
   D49       -1.07344  -0.00002   0.00000  -0.00049  -0.00049  -1.07393
   D50       -1.01958  -0.00002   0.00000  -0.00025  -0.00025  -1.01983
   D51        1.07400   0.00002   0.00000   0.00038   0.00038   1.07438
   D52       -3.11581  -0.00001   0.00000  -0.00019  -0.00019  -3.11600
         Item               Value     Threshold  Converged?
 Maximum Force            0.000652     0.000450     NO 
 RMS     Force            0.000135     0.000300     YES
 Maximum Displacement     0.001611     0.001800     YES
 RMS     Displacement     0.000585     0.001200     YES
 Predicted change in Energy=-2.839724D-06
 GradGradGradGradGradGradGradGradGradGradGradGradGradGradGradGradGradGrad

                          Input orientation:                          
 ---------------------------------------------------------------------
 Center     Atomic      Atomic             Coordinates (Angstroms)
 Number     Number       Type             X           Y           Z
 ---------------------------------------------------------------------
      1          6           0        0.778808    0.586745   -0.130532
      2          6           0       -0.409877   -0.337157    0.142223
      3          7           0       -1.469394    0.488225    0.542482
      4          6           0       -1.064559    1.829236    0.518692
      5          6           0        0.217814    1.966222    0.143717
      6          6           0       -2.807830    0.033075    0.853680
      7          6           0       -3.702066   -0.195494   -0.374989
      8          6           0       -5.092267   -0.706907    0.006571
      9          6           0       -0.438677   -1.679458    0.025955
     10          1           0        1.139707    0.470618   -1.167804
     11          1           0        1.631260    0.338041    0.526573
     12          1           0       -1.783191    2.598885    0.799852
     13          1           0        0.768270    2.899894    0.062668
     14          1           0       -2.730020   -0.900154    1.439826
     15          1           0       -3.273040    0.779800    1.519535
     16          1           0       -3.786362    0.753020   -0.934369
     17          1           0       -3.206456   -0.912168   -1.051148
     18          1           0       -5.720105   -0.864061   -0.884567
     19          1           0       -5.033293   -1.668453    0.545014
     20          1           0       -5.619806    0.006467    0.663254
     21          1           0       -1.335147   -2.266177    0.226754
     22          1           0        0.460230   -2.217198   -0.275386
 ---------------------------------------------------------------------
                    Distance matrix (angstroms):
                    1          2          3          4          5
     1  C    0.000000
     2  C    1.530020   0.000000
     3  N    2.348844   1.401441   0.000000
     4  C    2.315875   2.294252   1.400988   0.000000
     5  C    1.514227   2.387373   2.278192   1.343075   0.000000
     6  C    3.760212   2.528521   1.447555   2.525352   3.660003
     7  C    4.555204   3.335578   2.508793   3.443056   4.506387
     8  C    6.013472   4.698924   3.852369   4.787141   5.946544
     9  C    2.577292   1.347636   2.455204   3.597979   3.706188
    10  H    1.104386   2.184006   3.119743   3.090130   2.192443
    11  H    1.104679   2.184001   3.104330   3.080774   2.189836
    12  H    3.387943   3.307387   2.149324   1.089882   2.198817
    13  H    2.321227   3.445701   3.324682   2.171067   1.086883
    14  H    4.121743   2.717316   2.078942   3.327434   4.311118
    15  H    4.379208   3.367830   2.071904   2.642043   3.935293
    16  H    4.638380   3.707854   2.760352   3.267696   4.320596
    17  H    4.356214   3.094450   2.741922   3.816728   4.630167
    18  H    6.701438   5.434192   4.683341   5.558515   6.657834
    19  H    6.270789   4.828101   4.165650   5.290120   6.398908
    20  H    6.473722   5.247181   4.180023   4.908529   6.179673
    21  H    3.568700   2.141119   2.775686   4.114711   4.509078
    22  H    2.825698   2.113301   3.422231   4.396495   4.211343
                    6          7          8          9         10
     6  C    0.000000
     7  C    1.536726   0.000000
     8  C    2.546334   1.529638   0.000000
     9  C    3.038220   3.607300   4.754169   0.000000
    10  H    4.456556   4.951265   6.450056   2.922188   0.000000
    11  H    4.461561   5.435240   6.824085   2.933524   1.769214
    12  H    2.763361   3.587601   4.744211   4.550918   4.116373
    13  H    4.651112   5.454986   6.881719   4.735877   2.748347
    14  H    1.104780   2.175999   2.769796   2.802963   4.863491
    15  H    1.103350   2.173588   2.794449   4.038854   5.175879
    16  H    2.161704   1.104396   2.173049   4.248078   4.939676
    17  H    2.163505   1.102924   2.171908   3.067488   4.562328
    18  H    3.508233   2.186123   1.101365   5.421015   6.994184
    19  H    2.818361   2.188191   1.103617   4.623855   6.753910
    20  H    2.818542   2.190083   1.103826   5.485671   7.018492
    21  H    2.801498   3.201894   4.073788   1.090054   3.944584
    22  H    4.125376   4.628381   5.761137   1.089956   2.912465
                   11         12         13         14         15
    11  H    0.000000
    12  H    4.104214   0.000000
    13  H    2.742818   2.672827   0.000000
    14  H    4.624708   3.680941   5.345556   0.000000
    15  H    5.023274   2.458997   4.790558   1.767334   0.000000
    16  H    5.626472   3.229153   5.133013   3.079877   2.507162
    17  H    5.239821   4.216560   5.618794   2.536155   3.078246
    18  H    7.581487   5.507137   7.560663   3.787441   3.803960
    19  H    6.960074   5.370128   7.400040   2.587670   3.168931
    20  H    7.259930   4.632375   7.038475   3.126641   2.615066
    21  H    3.958714   4.919147   5.580285   2.298528   3.834669
    22  H    2.922960   5.420676   5.137489   3.854121   5.112831
                   16         17         18         19         20
    16  H    0.000000
    17  H    1.767139   0.000000
    18  H    2.521268   2.519622   0.000000
    19  H    3.099507   2.541070   1.778331   0.000000
    20  H    2.543866   3.099568   1.778659   1.778577   0.000000
    21  H    4.058597   2.639729   4.735907   3.759633   4.869676
    22  H    5.223982   3.968563   6.355991   5.581484   6.541602
                   21         22
    21  H    0.000000
    22  H    1.864919   0.000000
 Stoichiometry    C8H13N
 Framework group  C1[X(C8H13N)]
 Deg. of freedom    60
 Full point group                 C1      NOp   1
 Largest Abelian subgroup         C1      NOp   1
 Largest concise Abelian subgroup C1      NOp   1
                         Standard orientation:                         
 ---------------------------------------------------------------------
 Center     Atomic      Atomic             Coordinates (Angstroms)
 Number     Number       Type             X           Y           Z
 ---------------------------------------------------------------------
      1          6           0        2.471813    0.316582    0.288502
      2          6           0        1.075390    0.834461   -0.061873
      3          7           0        0.288143   -0.295068   -0.323491
      4          6           0        1.048295   -1.458155   -0.144143
      5          6           0        2.316279   -1.187387    0.206219
      6          6           0       -1.122168   -0.269945   -0.648767
      7          6           0       -2.051801   -0.140237    0.567986
      8          6           0       -3.527026   -0.084815    0.167447
      9          6           0        0.675401    2.120320   -0.113824
     10          1           0        2.780463    0.660056    1.291711
     11          1           0        3.225857    0.703629   -0.419967
     12          1           0        0.572484   -2.425420   -0.304909
     13          1           0        3.103246   -1.914942    0.386943
     14          1           0       -1.302406    0.565140   -1.349258
     15          1           0       -1.358597   -1.195112   -1.201531
     16          1           0       -1.873411   -0.995113    1.244042
     17          1           0       -1.777901    0.765996    1.133814
     18          1           0       -4.178961    0.006753    1.050398
     19          1           0       -3.733477    0.778201   -0.488717
     20          1           0       -3.832633   -0.994188   -0.378519
     21          1           0       -0.347295    2.406665   -0.359419
     22          1           0        1.388529    2.918866    0.090567
 ---------------------------------------------------------------------
 Rotational constants (GHZ):      3.1422535      1.0197686      0.8267332
 Standard basis: CC-pVDZ (5D, 7F)
 There are   191 symmetry adapted basis functions of A   symmetry.
 Integral buffers will be    131072 words long.
 Raffenetti 2 integral format.
 Two-electron integral symmetry is turned on.
   191 basis functions,   388 primitive gaussians,   200 cartesian basis functions
    34 alpha electrons       34 beta electrons
       nuclear repulsion energy       442.5272374209 Hartrees.
 NAtoms=   22 NActive=   22 NUniq=   22 SFac= 1.00D+00 NAtFMM=   50 NAOKFM=F Big=F
 One-electron integrals computed using PRISM.
 NBasis=   191 RedAO= T  NBF=   191
 NBsUse=   191 1.00D-06 NBFU=   191
 Initial guess read from the read-write file.
 B after Tr=     0.000000    0.000000    0.000000
         Rot=    1.000000    0.000000    0.000000    0.000000 Ang=   0.00 deg.
 Initial guess orbital symmetries:
       Occupied  (A) (A) (A) (A) (A) (A) (A) (A) (A) (A) (A) (A)
                 (A) (A) (A) (A) (A) (A) (A) (A) (A) (A) (A) (A)
                 (A) (A) (A) (A) (A) (A) (A) (A) (A) (A)
       Virtual   (A) (A) (A) (A) (A) (A) (A) (A) (A) (A) (A) (A)
                 (A) (A) (A) (A) (A) (A) (A) (A) (A) (A) (A) (A)
                 (A) (A) (A) (A) (A) (A) (A) (A) (A) (A) (A) (A)
                 (A) (A) (A) (A) (A) (A) (A) (A) (A) (A) (A) (A)
                 (A) (A) (A) (A) (A) (A) (A) (A) (A) (A) (A) (A)
                 (A) (A) (A) (A) (A) (A) (A) (A) (A) (A) (A) (A)
                 (A) (A) (A) (A) (A) (A) (A) (A) (A) (A) (A) (A)
                 (A) (A) (A) (A) (A) (A) (A) (A) (A) (A) (A) (A)
                 (A) (A) (A) (A) (A) (A) (A) (A) (A) (A) (A) (A)
                 (A) (A) (A) (A) (A) (A) (A) (A) (A) (A) (A) (A)
                 (A) (A) (A) (A) (A) (A) (A) (A) (A) (A) (A) (A)
                 (A) (A) (A) (A) (A) (A) (A) (A) (A) (A) (A) (A)
                 (A) (A) (A) (A) (A) (A) (A) (A) (A) (A) (A) (A)
                 (A)
 Requested convergence on RMS density matrix=1.00D-08 within 128 cycles.
 Requested convergence on MAX density matrix=1.00D-06.
 Requested convergence on             energy=1.00D-06.
 No special actions if energy rises.
 Keep R1 ints in memory in canonical form, NReq=206404496.
 SCF Done:  E(RB3LYP) =  -367.407841382     A.U. after    7 cycles
             Convg  =    0.9434D-08             -V/T =  2.0079
 Calling FoFJK, ICntrl=      2127 FMM=F ISym2X=0 I1Cent= 0 IOpClX= 0 NMat=1 NMatS=1 NMatT=0.
 ***** Axes restored to original set *****
 -------------------------------------------------------------------
 Center     Atomic                   Forces (Hartrees/Bohr)
 Number     Number              X              Y              Z
 -------------------------------------------------------------------
      1        6          -0.000116755   -0.000066022    0.000001901
      2        6           0.000160667   -0.000042464   -0.000065027
      3        7          -0.000163483    0.000067473    0.000038700
      4        6           0.000035419   -0.000124014   -0.000019304
      5        6           0.000049851    0.000024590   -0.000009383
      6        6           0.000183162    0.000035755    0.000033914
      7        6          -0.000089270   -0.000003726   -0.000032269
      8        6          -0.000039764   -0.000030648    0.000005344
      9        6          -0.000034167    0.000017689   -0.000003246
     10        1           0.000002916    0.000014680    0.000007825
     11        1           0.000003084    0.000015490    0.000005471
     12        1           0.000004403    0.000006973    0.000006731
     13        1          -0.000004725    0.000026224    0.000014587
     14        1          -0.000031088   -0.000008305   -0.000016853
     15        1          -0.000029587   -0.000009663    0.000007455
     16        1           0.000020104   -0.000012613    0.000024074
     17        1           0.000026885   -0.000000601   -0.000009124
     18        1           0.000014086    0.000013153    0.000005164
     19        1           0.000017433    0.000014136   -0.000006933
     20        1           0.000004809    0.000014794    0.000012024
     21        1          -0.000026679    0.000014700    0.000006284
     22        1           0.000012698    0.000032402   -0.000007337
 -------------------------------------------------------------------
 Cartesian Forces:  Max     0.000183162 RMS     0.000049437

 GradGradGradGradGradGradGradGradGradGradGradGradGradGradGradGradGradGrad
 Berny optimization.
 Using GEDIIS/GDIIS optimizer.
 Internal  Forces:  Max     0.000072730 RMS     0.000021441
 Search for a local minimum.
 Step number   2 out of a maximum of  123 on scan point     1 out of     7
 All quantities printed in internal units (Hartrees-Bohrs-Radians)
 Mixed Optimization -- En-DIIS/RFO-DIIS
 Swaping is turned off.
 Update second derivatives using D2CorX and points    1    2
 DE= -2.90D-06 DEPred=-2.84D-06 R= 1.02D+00
 SS=  1.41D+00  RLast= 5.35D-03 DXNew= 5.0454D-01 1.6062D-02
 Trust test= 1.02D+00 RLast= 5.35D-03 DXMaxT set to 3.00D-01
 ITU=  1  0
     Eigenvalues ---    0.00377   0.00696   0.01057   0.01339   0.01435
     Eigenvalues ---    0.01507   0.01560   0.01823   0.02379   0.02779
     Eigenvalues ---    0.02786   0.03765   0.04803   0.05071   0.05348
     Eigenvalues ---    0.05447   0.05461   0.06980   0.08218   0.08488
     Eigenvalues ---    0.09563   0.09736   0.11210   0.12874   0.15581
     Eigenvalues ---    0.15998   0.15999   0.16000   0.16000   0.16000
     Eigenvalues ---    0.16080   0.21817   0.21891   0.22235   0.24108
     Eigenvalues ---    0.24727   0.25052   0.28023   0.28919   0.29496
     Eigenvalues ---    0.30319   0.32885   0.33193   0.33208   0.33236
     Eigenvalues ---    0.33246   0.33272   0.33314   0.33480   0.33652
     Eigenvalues ---    0.34759   0.34800   0.34907   0.35891   0.38009
     Eigenvalues ---    0.42943   0.43670   0.54112   0.572431000.00000
     Eigenvalues --- 1000.000001000.000001000.000001000.000001000.00000
     Eigenvalues --- 1000.000001000.000001000.000001000.000001000.00000
     Eigenvalues --- 1000.000001000.000001000.000001000.000001000.00000
     Eigenvalues --- 1000.000001000.000001000.000001000.000001000.00000
     Eigenvalues --- 1000.000001000.000001000.000001000.000001000.00000
     Eigenvalues --- 1000.000001000.000001000.000001000.000001000.00000
     Eigenvalues --- 1000.000001000.000001000.000001000.000001000.00000
     Eigenvalues --- 1000.000001000.000001000.000001000.000001000.00000
     Eigenvalues --- 1000.000001000.000001000.000001000.000001000.00000
     Eigenvalues --- 1000.000001000.000001000.000001000.000001000.00000
     Eigenvalues --- 1000.000001000.000001000.00000
 En-DIIS/RFO-DIIS IScMMF=        0 using points:     2    1
 RFO step:  Lambda=-1.10979140D-07.
 DidBck=F Rises=F RFO-DIIS coefs:    1.03727   -0.03727
 Iteration  1 RMS(Cart)=  0.00024050 RMS(Int)=  0.00000004
 Iteration  2 RMS(Cart)=  0.00000004 RMS(Int)=  0.00000002
 Iteration  1 RMS(Cart)=  0.00000001 RMS(Int)=  0.00000000
 Variable       Old X    -DE/DX   Delta X   Delta X   Delta X     New X
                                  (DIIS)     (GDIIS)  (Total)
    R1        2.89132  -0.00007  -0.00001  -0.00024  -0.00025   2.89107
    R2        2.86147  -0.00001   0.00003  -0.00002   0.00001   2.86148
    R3        2.08699  -0.00001   0.00002  -0.00003  -0.00001   2.08697
    R4        2.08754   0.00000   0.00002   0.00002   0.00004   2.08758
    R5        2.64834   0.00005   0.00005   0.00012   0.00017   2.64851
    R6        2.54666  -0.00007   0.00002  -0.00012  -0.00010   2.54657
    R7        2.64748  -0.00006   0.00000  -0.00013  -0.00014   2.64735
    R8        2.73548  -0.00007  -0.00003  -0.00020  -0.00023   2.73525
    R9        2.53804   0.00000   0.00004   0.00001   0.00005   2.53810
   R10        2.05958   0.00000  -0.00003   0.00001  -0.00002   2.05955
   R11        2.05391   0.00002  -0.00004   0.00005   0.00001   2.05392
   R12        2.90399   0.00004   0.00004   0.00016   0.00020   2.90419
   R13        2.08773  -0.00001   0.00002  -0.00002   0.00000   2.08773
   R14        2.08503   0.00001  -0.00001   0.00003   0.00002   2.08505
   R15        2.89060   0.00000   0.00001   0.00001   0.00002   2.89062
   R16        2.08701  -0.00003  -0.00002  -0.00008  -0.00010   2.08690
   R17        2.08422   0.00002   0.00006   0.00008   0.00014   2.08436
   R18        2.08128  -0.00001   0.00000  -0.00004  -0.00003   2.08124
   R19        2.08553  -0.00001  -0.00001  -0.00005  -0.00006   2.08547
   R20        2.08593   0.00001  -0.00001   0.00003   0.00002   2.08595
   R21        2.05990   0.00002  -0.00003   0.00004   0.00001   2.05991
   R22        2.05972   0.00000  -0.00001  -0.00002  -0.00002   2.05969
    A1        1.80287   0.00002   0.00000   0.00012   0.00012   1.80299
    A2        1.93673   0.00000   0.00001   0.00015   0.00016   1.93689
    A3        1.93642   0.00000   0.00000   0.00004   0.00004   1.93646
    A4        1.96814  -0.00001   0.00000  -0.00006  -0.00005   1.96809
    A5        1.96412  -0.00002  -0.00002  -0.00025  -0.00026   1.96386
    A6        1.85755   0.00000   0.00000   0.00000   0.00000   1.85756
    A7        1.85734   0.00001   0.00000   0.00003   0.00003   1.85737
    A8        2.21765   0.00005  -0.00001   0.00021   0.00020   2.21786
    A9        2.20819  -0.00006   0.00001  -0.00024  -0.00023   2.20796
   A10        1.91817  -0.00004   0.00001  -0.00016  -0.00015   1.91802
   A11        2.18370  -0.00002  -0.00001  -0.00006  -0.00007   2.18364
   A12        2.17949   0.00005   0.00000   0.00022   0.00022   2.17971
   A13        1.95873   0.00005  -0.00001   0.00020   0.00019   1.95891
   A14        2.07263  -0.00001   0.00001  -0.00005  -0.00004   2.07259
   A15        2.25179  -0.00003   0.00000  -0.00015  -0.00015   2.25164
   A16        1.88745  -0.00004   0.00000  -0.00019  -0.00019   1.88726
   A17        2.19131   0.00004   0.00001   0.00024   0.00025   2.19156
   A18        2.20433   0.00000  -0.00001  -0.00005  -0.00007   2.20427
   A19        1.99646   0.00000  -0.00002   0.00000  -0.00002   1.99644
   A20        1.89077   0.00002   0.00002   0.00023   0.00025   1.89102
   A21        1.88262   0.00002   0.00001   0.00029   0.00030   1.88291
   A22        1.91722  -0.00003   0.00001  -0.00030  -0.00029   1.91693
   A23        1.91539  -0.00002  -0.00001  -0.00015  -0.00017   1.91523
   A24        1.85584   0.00000  -0.00001  -0.00005  -0.00006   1.85578
   A25        1.95968   0.00001   0.00000   0.00003   0.00003   1.95971
   A26        1.89826  -0.00001   0.00002  -0.00018  -0.00017   1.89809
   A27        1.90215  -0.00001  -0.00002  -0.00014  -0.00016   1.90199
   A28        1.92210   0.00001   0.00003   0.00014   0.00016   1.92226
   A29        1.92205   0.00001  -0.00001   0.00018   0.00017   1.92222
   A30        1.85653   0.00000  -0.00002  -0.00004  -0.00005   1.85648
   A31        1.94332  -0.00001   0.00001  -0.00007  -0.00006   1.94326
   A32        1.94382  -0.00002   0.00000  -0.00014  -0.00013   1.94369
   A33        1.94623  -0.00001  -0.00003  -0.00008  -0.00011   1.94612
   A34        1.87644   0.00002   0.00001   0.00013   0.00014   1.87657
   A35        1.87668   0.00001   0.00001   0.00009   0.00010   1.87678
   A36        1.87377   0.00002   0.00000   0.00009   0.00009   1.87386
   A37        2.13862  -0.00002  -0.00001  -0.00010  -0.00011   2.13851
   A38        2.09167  -0.00003   0.00000  -0.00018  -0.00018   2.09148
   A39        2.05289   0.00004   0.00001   0.00029   0.00030   2.05319
    D1       -0.01778   0.00000   0.00001  -0.00024  -0.00022  -0.01801
    D2        3.12639   0.00000  -0.00001   0.00003   0.00001   3.12641
    D3       -2.13120   0.00000   0.00000  -0.00032  -0.00031  -2.13152
    D4        1.01297   0.00000  -0.00002  -0.00005  -0.00008   1.01290
    D5        2.09072  -0.00001   0.00000  -0.00044  -0.00044   2.09027
    D6       -1.04829  -0.00001  -0.00003  -0.00018  -0.00021  -1.04850
    D7        0.00886   0.00000   0.00000   0.00013   0.00013   0.00899
    D8        3.13649   0.00000  -0.00001  -0.00011  -0.00012   3.13637
    D9        2.10086   0.00001   0.00002   0.00036   0.00037   2.10123
   D10       -1.05469   0.00001   0.00001   0.00011   0.00012  -1.05457
   D11       -2.08071  -0.00001   0.00001   0.00014   0.00015  -2.08056
   D12        1.04692  -0.00001   0.00000  -0.00010  -0.00010   1.04682
   D13        0.02077   0.00000  -0.00002   0.00026   0.00023   0.02101
   D14        3.09999   0.00001  -0.00001   0.00035   0.00034   3.10032
   D15       -3.12339   0.00000   0.00000   0.00000   0.00000  -3.12339
   D16       -0.04417   0.00000   0.00001   0.00009   0.00010  -0.04407
   D17       -3.12587  -0.00001  -0.00001  -0.00032  -0.00033  -3.12620
   D18        0.02020   0.00000   0.00002  -0.00004  -0.00002   0.02018
   D19        0.01880   0.00000  -0.00004  -0.00001  -0.00005   0.01876
   D20       -3.11831   0.00001  -0.00001   0.00027   0.00026  -3.11805
   D21       -0.01598   0.00000   0.00003  -0.00018  -0.00016  -0.01614
   D22        3.13495   0.00000   0.00001  -0.00003  -0.00003   3.13492
   D23       -3.09538   0.00000   0.00001  -0.00026  -0.00025  -3.09563
   D24        0.05555   0.00000   0.00000  -0.00011  -0.00011   0.05543
   D25       -1.41778   0.00000  -0.00002   0.00000  -0.00002  -1.41780
   D26        0.72699  -0.00002  -0.00001  -0.00021  -0.00022   0.72677
   D27        2.72909   0.00001   0.00000  -0.00001  -0.00001   2.72908
   D28        1.65230   0.00000   0.00000   0.00009   0.00008   1.65239
   D29       -2.48611  -0.00001   0.00001  -0.00013  -0.00012  -2.48623
   D30       -0.48401   0.00001   0.00002   0.00007   0.00009  -0.48392
   D31        0.00352   0.00000  -0.00002   0.00002   0.00000   0.00352
   D32       -3.12398   0.00001   0.00000   0.00026   0.00026  -3.12372
   D33        3.13458   0.00000   0.00000  -0.00015  -0.00014   3.13443
   D34        0.00707   0.00000   0.00002   0.00010   0.00011   0.00718
   D35        3.11772   0.00000   0.00000   0.00000   0.00000   3.11772
   D36       -1.03377   0.00001   0.00004   0.00007   0.00011  -1.03366
   D37        0.98337  -0.00001   0.00002  -0.00015  -0.00013   0.98324
   D38        0.98734  -0.00001  -0.00002  -0.00007  -0.00009   0.98725
   D39        3.11903   0.00000   0.00003   0.00000   0.00002   3.11905
   D40       -1.14701  -0.00002   0.00000  -0.00023  -0.00022  -1.14723
   D41       -1.04709   0.00001  -0.00001   0.00026   0.00025  -1.04684
   D42        1.08460   0.00002   0.00003   0.00033   0.00036   1.08496
   D43        3.10174   0.00000   0.00001   0.00011   0.00012   3.10186
   D44        3.14032   0.00000   0.00002  -0.00010  -0.00008   3.14024
   D45       -1.04865   0.00000   0.00004  -0.00008  -0.00004  -1.04869
   D46        1.04416   0.00000   0.00002  -0.00012  -0.00009   1.04407
   D47        1.02223   0.00001  -0.00002   0.00001  -0.00001   1.02223
   D48        3.11645   0.00001   0.00000   0.00003   0.00004   3.11649
   D49       -1.07393   0.00001  -0.00002   0.00000  -0.00002  -1.07395
   D50       -1.01983  -0.00001  -0.00001  -0.00014  -0.00015  -1.01998
   D51        1.07438  -0.00001   0.00001  -0.00011  -0.00010   1.07428
   D52       -3.11600  -0.00001  -0.00001  -0.00015  -0.00016  -3.11615
         Item               Value     Threshold  Converged?
 Maximum Force            0.000073     0.000450     YES
 RMS     Force            0.000022     0.000300     YES
 Maximum Displacement     0.000972     0.001800     YES
 RMS     Displacement     0.000240     0.001200     YES
 Predicted change in Energy=-1.333596D-07
 Optimization completed.
    -- Stationary point found.
                           ----------------------------
                           !   Optimized Parameters   !
                           ! (Angstroms and Degrees)  !
 --------------------------                            --------------------------
 ! Name  Definition              Value          Derivative Info.                !
 --------------------------------------------------------------------------------
 ! R1    R(1,2)                  1.53           -DE/DX =   -0.0001              !
 ! R2    R(1,5)                  1.5142         -DE/DX =    0.0                 !
 ! R3    R(1,10)                 1.1044         -DE/DX =    0.0                 !
 ! R4    R(1,11)                 1.1047         -DE/DX =    0.0                 !
 ! R5    R(2,3)                  1.4014         -DE/DX =    0.0                 !
 ! R6    R(2,9)                  1.3476         -DE/DX =   -0.0001              !
 ! R7    R(3,4)                  1.401          -DE/DX =   -0.0001              !
 ! R8    R(3,6)                  1.4476         -DE/DX =   -0.0001              !
 ! R9    R(4,5)                  1.3431         -DE/DX =    0.0                 !
 ! R10   R(4,12)                 1.0899         -DE/DX =    0.0                 !
 ! R11   R(5,13)                 1.0869         -DE/DX =    0.0                 !
 ! R12   R(6,7)                  1.5367         -DE/DX =    0.0                 !
 ! R13   R(6,14)                 1.1048         -DE/DX =    0.0                 !
 ! R14   R(6,15)                 1.1034         -DE/DX =    0.0                 !
 ! R15   R(7,8)                  1.5296         -DE/DX =    0.0                 !
 ! R16   R(7,16)                 1.1044         -DE/DX =    0.0                 !
 ! R17   R(7,17)                 1.1029         -DE/DX =    0.0                 !
 ! R18   R(8,18)                 1.1014         -DE/DX =    0.0                 !
 ! R19   R(8,19)                 1.1036         -DE/DX =    0.0                 !
 ! R20   R(8,20)                 1.1038         -DE/DX =    0.0                 !
 ! R21   R(9,21)                 1.0901         -DE/DX =    0.0                 !
 ! R22   R(9,22)                 1.09           -DE/DX =    0.0                 !
 ! A1    A(2,1,5)              103.2968         -DE/DX =    0.0                 !
 ! A2    A(2,1,10)             110.9666         -DE/DX =    0.0                 !
 ! A3    A(2,1,11)             110.9486         -DE/DX =    0.0                 !
 ! A4    A(5,1,10)             112.7661         -DE/DX =    0.0                 !
 ! A5    A(5,1,11)             112.5357         -DE/DX =    0.0                 !
 ! A6    A(10,1,11)            106.43           -DE/DX =    0.0                 !
[...]
    19  H    6.050709   5.059022   3.861561   4.269557   5.530648
    20  H    4.948317   4.251882   3.189479   3.329101   4.377857
    21  H    3.569418   2.141554   2.772983   4.112877   4.508889
    22  H    2.827161   2.113157   3.420569   4.395732   4.212148
                    6          7          8          9         10
     6  C    0.000000
     7  C    1.544695   0.000000
     8  C    2.571728   1.530515   0.000000
     9  C    3.023127   3.530654   4.885269   0.000000
    10  H    4.457910   4.975521   5.716339   2.933098   0.000000
    11  H    4.455803   5.438005   6.356343   2.925381   1.769212
    12  H    2.777370   3.697779   3.687304   4.549246   4.108019
    13  H    4.658942   5.547987   5.808574   4.736598   2.748141
    14  H    1.104542   2.180669   3.450736   2.800688   4.851240
    15  H    1.102151   2.186667   2.642094   4.038579   5.167183
    16  H    2.167253   1.101882   2.181456   3.014146   4.372180
    17  H    2.163585   1.104919   2.157107   3.945236   5.853727
    18  H    3.530288   2.188538   1.101939   5.491002   6.334604
    19  H    2.847295   2.185415   1.103538   5.577897   6.514967
    20  H    2.843592   2.190269   1.103646   4.979697   5.214206
    21  H    2.782094   3.077319   4.566484   1.089934   3.951040
    22  H    4.110355   4.556557   5.890770   1.090018   2.933419
                   11         12         13         14         15
    11  H    0.000000
    12  H    4.112165   0.000000
    13  H    2.744090   2.672814   0.000000
    14  H    4.571571   3.648591   5.298183   0.000000
    15  H    5.033134   2.449620   4.784324   1.769083   0.000000
    16  H    5.090769   4.073726   5.434276   2.695168   3.051723
    17  H    6.200583   4.653520   6.562676   2.315758   2.711328
    18  H    7.161704   4.703009   6.661381   4.303444   3.708688
    19  H    6.948804   3.842136   6.269753   3.629733   2.507710
    20  H    5.970572   3.055350   5.035383   3.891277   2.848601
    21  H    3.954267   4.916445   5.580258   2.325697   3.835019
    22  H    2.905766   5.419338   5.138792   3.843519   5.111681
                   16         17         18         19         20
    16  H    0.000000
    17  H    1.765288   0.000000
    18  H    2.521390   2.512654   0.000000
    19  H    3.101669   2.508733   1.780021   0.000000
    20  H    2.565857   3.089357   1.776907   1.781799   0.000000
    21  H    2.661812   3.208312   5.099516   5.194616   4.900856
    22  H    3.918256   4.932066   6.425744   6.634065   5.938493
                   21         22
    21  H    0.000000
    22  H    1.865123   0.000000
 Stoichiometry    C8H13N
 Framework group  C1[X(C8H13N)]
 Deg. of freedom    60
 Full point group                 C1      NOp   1
 Largest Abelian subgroup         C1      NOp   1
 Largest concise Abelian subgroup C1      NOp   1
                         Standard orientation:                         
 ---------------------------------------------------------------------
 Center     Atomic      Atomic             Coordinates (Angstroms)
 Number     Number       Type             X           Y           Z
 ---------------------------------------------------------------------
      1          6           0       -2.362243   -0.055819   -0.440031
      2          6           0       -1.137619    0.767324   -0.037073
      3          7           0       -0.175208   -0.146285    0.412029
      4          6           0       -0.684890   -1.449393    0.338892
      5          6           0       -1.938820   -1.478760   -0.141619
      6          6           0        1.133744    0.220178    0.913995
      7          6           0        2.166932    0.554155   -0.184670
      8          6           0        2.990612   -0.654490   -0.635450
      9          6           0       -1.002428    2.107324   -0.093351
     10          1           0       -2.608521    0.099999   -1.505503
     11          1           0       -3.253302    0.252787    0.134930
     12          1           0       -0.055012   -2.277375    0.663253
     13          1           0       -2.549761   -2.364998   -0.291989
     14          1           0        1.002275    1.092576    1.578564
     15          1           0        1.501253   -0.604373    1.546283
     16          1           0        1.641882    1.012043   -1.038371
     17          1           0        2.853154    1.326696    0.206642
     18          1           0        3.707296   -0.381074   -1.426573
     19          1           0        3.566421   -1.078505    0.205057
     20          1           0        2.346304   -1.455225   -1.037603
     21          1           0       -0.084260    2.616969    0.198516
     22          1           0       -1.832997    2.721362   -0.441566
 ---------------------------------------------------------------------
 Rotational constants (GHZ):      2.6790512      1.1686549      0.9137571

 **********************************************************************

            Population analysis using the SCF density.

 **********************************************************************

 Orbital symmetries:
       Occupied  (A) (A) (A) (A) (A) (A) (A) (A) (A) (A) (A) (A)
                 (A) (A) (A) (A) (A) (A) (A) (A) (A) (A) (A) (A)
                 (A) (A) (A) (A) (A) (A) (A) (A) (A) (A)
       Virtual   (A) (A) (A) (A) (A) (A) (A) (A) (A) (A) (A) (A)
                 (A) (A) (A) (A) (A) (A) (A) (A) (A) (A) (A) (A)
                 (A) (A) (A) (A) (A) (A) (A) (A) (A) (A) (A) (A)
                 (A) (A) (A) (A) (A) (A) (A) (A) (A) (A) (A) (A)
                 (A) (A) (A) (A) (A) (A) (A) (A) (A) (A) (A) (A)
                 (A) (A) (A) (A) (A) (A) (A) (A) (A) (A) (A) (A)
                 (A) (A) (A) (A) (A) (A) (A) (A) (A) (A) (A) (A)
                 (A) (A) (A) (A) (A) (A) (A) (A) (A) (A) (A) (A)
                 (A) (A) (A) (A) (A) (A) (A) (A) (A) (A) (A) (A)
                 (A) (A) (A) (A) (A) (A) (A) (A) (A) (A) (A) (A)
                 (A) (A) (A) (A) (A) (A) (A) (A) (A) (A) (A) (A)
                 (A) (A) (A) (A) (A) (A) (A) (A) (A) (A) (A) (A)
                 (A) (A) (A) (A) (A) (A) (A) (A) (A) (A) (A) (A)
                 (A)
 The electronic state is 1-A.
 Alpha  occ. eigenvalues --  -14.35151 -10.22416 -10.21788 -10.21484 -10.19210
 Alpha  occ. eigenvalues --  -10.18764 -10.18309 -10.16852 -10.15338  -0.96596
 Alpha  occ. eigenvalues --   -0.80952  -0.75860  -0.75582  -0.68333  -0.65227
 Alpha  occ. eigenvalues --   -0.60488  -0.57642  -0.52669  -0.49702  -0.46563
 Alpha  occ. eigenvalues --   -0.44829  -0.43857  -0.42778  -0.40974  -0.39922
 Alpha  occ. eigenvalues --   -0.39396  -0.37444  -0.36812  -0.34964  -0.33954
 Alpha  occ. eigenvalues --   -0.33658  -0.32003  -0.26081  -0.17203
 Alpha virt. eigenvalues --    0.01067   0.05278   0.06650   0.07860   0.08295
 Alpha virt. eigenvalues --    0.09435   0.10716   0.11595   0.12726   0.13146
 Alpha virt. eigenvalues --    0.13882   0.14629   0.14944   0.15240   0.15823
 Alpha virt. eigenvalues --    0.20192   0.20609   0.21570   0.23899   0.25792
 Alpha virt. eigenvalues --    0.27365   0.34488   0.36290   0.38570   0.40087
 Alpha virt. eigenvalues --    0.40185   0.42021   0.44527   0.45110   0.47370
 Alpha virt. eigenvalues --    0.47967   0.49077   0.49932   0.50802   0.52107
 Alpha virt. eigenvalues --    0.55070   0.55794   0.56350   0.57955   0.59291
 Alpha virt. eigenvalues --    0.60784   0.62516   0.62914   0.62954   0.64194
 Alpha virt. eigenvalues --    0.64871   0.65421   0.66431   0.66741   0.67666
 Alpha virt. eigenvalues --    0.67775   0.69181   0.70858   0.71083   0.72430
 Alpha virt. eigenvalues --    0.73446   0.77781   0.80375   0.82916   0.84129
 Alpha virt. eigenvalues --    0.85268   0.90108   0.91181   0.94989   0.98036
 Alpha virt. eigenvalues --    1.00428   1.01450   1.01723   1.04011   1.06506
 Alpha virt. eigenvalues --    1.08517   1.11464   1.12264   1.13907   1.20286
 Alpha virt. eigenvalues --    1.21685   1.23880   1.25801   1.33219   1.35657
 Alpha virt. eigenvalues --    1.36148   1.37874   1.39971   1.41098   1.41958
 Alpha virt. eigenvalues --    1.44731   1.48764   1.50255   1.51176   1.51579
 Alpha virt. eigenvalues --    1.53681   1.54528   1.59034   1.60389   1.61101
 Alpha virt. eigenvalues --    1.61991   1.63303   1.64005   1.64985   1.65806
 Alpha virt. eigenvalues --    1.66900   1.68012   1.69090   1.69516   1.71210
 Alpha virt. eigenvalues --    1.71936   1.72565   1.74463   1.76542   1.77540
 Alpha virt. eigenvalues --    1.78409   1.78732   1.80944   1.83156   1.86143
 Alpha virt. eigenvalues --    1.87952   1.89064   1.91559   1.93419   1.94105
 Alpha virt. eigenvalues --    1.97180   1.98790   2.01145   2.02660   2.04933
 Alpha virt. eigenvalues --    2.08332   2.09341   2.10913   2.14054   2.14652
 Alpha virt. eigenvalues --    2.15907   2.18632   2.21954   2.23453   2.27039
 Alpha virt. eigenvalues --    2.30268   2.31142   2.34153   2.38730   2.40089
 Alpha virt. eigenvalues --    2.40683   2.42210   2.46016   2.47248   2.49232
 Alpha virt. eigenvalues --    2.51107   2.53791   2.56154   2.56984   2.59948
 Alpha virt. eigenvalues --    2.64367   2.65850   2.72993   2.77474   2.87210
 Alpha virt. eigenvalues --    3.04701   3.21076
          Condensed to atoms (all electrons):
              1          2          3          4          5          6
     1  C    4.669625   0.372624  -0.067759  -0.054816   0.383270   0.010747
     2  C    0.372624   4.705433   0.425303  -0.088255  -0.037042  -0.054791
     3  N   -0.067759   0.425303   6.309313   0.391720  -0.040637   0.389268
     4  C   -0.054816  -0.088255   0.391720   4.681314   0.613801  -0.053186
     5  C    0.383270  -0.037042  -0.040637   0.613801   4.889681   0.005125
     6  C    0.010747  -0.054791   0.389268  -0.053186   0.005125   4.548142
     7  C   -0.000442  -0.007195  -0.048689   0.000668  -0.000286   0.434289
     8  C    0.000029   0.000245  -0.001259   0.000263  -0.000071  -0.042128
     9  C   -0.074693   0.682175  -0.059172   0.006588   0.006253  -0.007853
    10  H    0.352440  -0.007876   0.001905  -0.001307  -0.016958  -0.000181
    11  H    0.351615  -0.006915   0.002209  -0.001606  -0.015724  -0.000118
    12  H    0.010308   0.001348  -0.033805   0.392932  -0.049087  -0.003072
    13  H   -0.039734   0.005481   0.004486  -0.035269   0.398243  -0.000132
    14  H    0.000561  -0.009515  -0.022558   0.006660  -0.000742   0.350347
    15  H   -0.000859   0.007277  -0.016975  -0.007967   0.001839   0.365692
    16  H   -0.000554   0.004031  -0.009124  -0.000163   0.000077  -0.027750
    17  H    0.000009   0.000099   0.004746  -0.000151   0.000022  -0.015914
    18  H   -0.000003   0.000005  -0.000156  -0.000022   0.000011   0.005436
    19  H    0.000002  -0.000022  -0.000088  -0.000129  -0.000017  -0.007316
    20  H    0.000018  -0.000101   0.002858   0.002046   0.000086  -0.003569
    21  H    0.008747   0.024386  -0.013720  -0.000202  -0.000462   0.005278
    22  H   -0.016148   0.013885   0.005260  -0.000016   0.000615  -0.000495
              7          8          9         10         11         12
     1  C   -0.000442   0.000029  -0.074693   0.352440   0.351615   0.010308
     2  C   -0.007195   0.000245   0.682175  -0.007876  -0.006915   0.001348
     3  N   -0.048689  -0.001259  -0.059172   0.001905   0.002209  -0.033805
     4  C    0.000668   0.000263   0.006588  -0.001307  -0.001606   0.392932
     5  C   -0.000286  -0.000071   0.006253  -0.016958  -0.015724  -0.049087
     6  C    0.434289  -0.042128  -0.007853  -0.000181  -0.000118  -0.003072
     7  C    4.616429   0.447151   0.000025   0.000027   0.000005  -0.000587
     8  C    0.447151   4.521141   0.000091  -0.000003   0.000000   0.000301
     9  C    0.000025   0.000091   4.772162  -0.003497  -0.003534  -0.000729
    10  H    0.000027  -0.000003  -0.003497   0.669314  -0.038421  -0.000232
    11  H    0.000005   0.000000  -0.003534  -0.038421   0.668050  -0.000276
    12  H   -0.000587   0.000301  -0.000729  -0.000232  -0.000276   0.697616
    13  H    0.000012  -0.000002  -0.000244  -0.000357  -0.000368  -0.007100
    14  H   -0.036406   0.005908   0.009828   0.000042  -0.000127   0.000356
    15  H   -0.042824  -0.008353   0.000291   0.000025   0.000012   0.003178
    16  H    0.382543  -0.024018   0.005066  -0.000074   0.000035   0.000033
    17  H    0.351965  -0.028160  -0.000864   0.000001  -0.000001  -0.000041
    18  H   -0.011663   0.380292   0.000011   0.000000   0.000000  -0.000028
    19  H   -0.024612   0.386698  -0.000007   0.000000   0.000000   0.000067
    20  H   -0.029146   0.389657  -0.000073  -0.000006   0.000001   0.000880
    21  H   -0.001546   0.000058   0.339113  -0.000054  -0.000105  -0.000025
    22  H    0.000178  -0.000003   0.360603   0.001413   0.001665   0.000019
             13         14         15         16         17         18
     1  C   -0.039734   0.000561  -0.000859  -0.000554   0.000009  -0.000003
     2  C    0.005481  -0.009515   0.007277   0.004031   0.000099   0.000005
     3  N    0.004486  -0.022558  -0.016975  -0.009124   0.004746  -0.000156
     4  C   -0.035269   0.006660  -0.007967  -0.000163  -0.000151  -0.000022
     5  C    0.398243  -0.000742   0.001839   0.000077   0.000022   0.000011
     6  C   -0.000132   0.350347   0.365692  -0.027750  -0.015914   0.005436
     7  C    0.000012  -0.036406  -0.042824   0.382543   0.351965  -0.011663
     8  C   -0.000002   0.005908  -0.008353  -0.024018  -0.028160   0.380292
     9  C   -0.000244   0.009828   0.000291   0.005066  -0.000864   0.000011
    10  H   -0.000357   0.000042   0.000025  -0.000074   0.000001   0.000000
    11  H   -0.000368  -0.000127   0.000012   0.000035  -0.000001   0.000000
    12  H   -0.007100   0.000356   0.003178   0.000033  -0.000041  -0.000028
    13  H    0.709010   0.000016  -0.000010   0.000003   0.000000   0.000000
    14  H    0.000016   0.718203  -0.028751  -0.001517  -0.007791  -0.000546
    15  H   -0.000010  -0.028751   0.706646   0.007776   0.002577   0.000318
    16  H    0.000003  -0.001517   0.007776   0.678749  -0.036563  -0.005225
    17  H    0.000000  -0.007791   0.002577  -0.036563   0.731230  -0.005318
    18  H    0.000000  -0.000546   0.000318  -0.005225  -0.005318   0.678238
    19  H    0.000000   0.000512   0.006519   0.007920  -0.008885  -0.030471
    20  H   -0.000001   0.000340  -0.000454  -0.007569   0.009300  -0.029161
    21  H    0.000012   0.001717  -0.000052   0.000281   0.000532   0.000000
    22  H   -0.000007   0.000026  -0.000002   0.000063  -0.000006   0.000000
             19         20         21         22
     1  C    0.000002   0.000018   0.008747  -0.016148
     2  C   -0.000022  -0.000101   0.024386   0.013885
     3  N   -0.000088   0.002858  -0.013720   0.005260
     4  C   -0.000129   0.002046  -0.000202  -0.000016
     5  C   -0.000017   0.000086  -0.000462   0.000615
     6  C   -0.007316  -0.003569   0.005278  -0.000495
     7  C   -0.024612  -0.029146  -0.001546   0.000178
     8  C    0.386698   0.389657   0.000058  -0.000003
     9  C   -0.000007  -0.000073   0.339113   0.360603
    10  H    0.000000  -0.000006  -0.000054   0.001413
    11  H    0.000000   0.000001  -0.000105   0.001665
    12  H    0.000067   0.000880  -0.000025   0.000019
    13  H    0.000000  -0.000001   0.000012  -0.000007
    14  H    0.000512   0.000340   0.001717   0.000026
    15  H    0.006519  -0.000454  -0.000052  -0.000002
    16  H    0.007920  -0.007569   0.000281   0.000063
    17  H   -0.008885   0.009300   0.000532  -0.000006
    18  H   -0.030471  -0.029161   0.000000   0.000000
    19  H    0.684474  -0.032442   0.000002   0.000000
    20  H   -0.032442   0.671820   0.000006   0.000000
    21  H    0.000002   0.000006   0.697028  -0.056879
    22  H    0.000000   0.000000  -0.056879   0.698655
 Mulliken atomic charges:
              1
     1  C    0.095013
     2  C   -0.030580
     3  N   -0.223125
     4  C    0.147099
     5  C   -0.137997
     6  C    0.102181
     7  C   -0.029895
     8  C   -0.027838
     9  C   -0.031540
    10  H    0.043797
    11  H    0.043603
    12  H   -0.012056
    13  H   -0.034041
    14  H    0.013437
    15  H    0.004098
    16  H    0.025979
    17  H    0.003215
    18  H    0.018284
    19  H    0.017794
    20  H    0.025511
    21  H   -0.004115
    22  H   -0.008824
 Sum of Mulliken atomic charges =   0.00000
 Mulliken charges with hydrogens summed into heavy atoms:
              1
     1  C    0.182413
     2  C   -0.030580
     3  N   -0.223125
     4  C    0.135043
     5  C   -0.172037
     6  C    0.119716
     7  C   -0.000702
     8  C    0.033752
     9  C   -0.044479
 Sum of Mulliken charges with hydrogens summed into heavy atoms =   0.00000
 Electronic spatial extent (au):  <R**2>=           1383.4451
 Charge=              0.0000 electrons
 Dipole moment (field-independent basis, Debye):
    X=              0.8998    Y=             -0.8031    Z=              0.2876  Tot=              1.2399
 Quadrupole moment (field-independent basis, Debye-Ang):
   XX=            -53.4670   YY=            -56.7855   ZZ=            -57.6708
   XY=              0.5687   XZ=              2.3710   YZ=             -0.6474
 Traceless Quadrupole moment (field-independent basis, Debye-Ang):
   XX=              2.5074   YY=             -0.8111   ZZ=             -1.6964
   XY=              0.5687   XZ=              2.3710   YZ=             -0.6474
 Octapole moment (field-independent basis, Debye-Ang**2):
  XXX=             -4.9443  YYY=             -7.9628  ZZZ=              0.2333  XYY=              1.9374
  XXY=              0.9940  XXZ=             -2.9787  XZZ=              3.9461  YZZ=             -0.9033
  YYZ=              1.9904  XYZ=             -0.1358
 Hexadecapole moment (field-independent basis, Debye-Ang**3):
 XXXX=          -1206.1763 YYYY=           -520.3105 ZZZZ=           -171.5036 XXXY=              5.0610
 XXXZ=              8.2559 YYYX=              9.1215 YYYZ=             -4.5782 ZZZX=              3.8752
 ZZZY=             -0.5439 XXYY=           -290.1120 XXZZ=           -231.7569 YYZZ=           -124.0814
 XXYZ=             -1.5545 YYXZ=              8.3492 ZZXY=             -0.8728
 N-N= 4.464131684682D+02 E-N=-1.743611389894D+03  KE= 3.645345366779D+02
 1\1\GINC-NODE109\Scan\RB3LYP\CC-pVDZ\C8H13N1\CHS2057\22-Mar-2015\0\\# 
 opt=modredundant B3LYP/cc-pVDZ Geom=PrintInputOrient\\PRL Dihedral Sca
 n at MP2/6-31G*\\0,1\C,0.5400774897,0.8615174163,-0.2415549023\C,-0.41
 85227979,-0.3018355187,0.0179450893\N,-1.5534697171,0.2473492488,0.628
 6009206\C,-1.3887103202,1.6300937927,0.7837990991\C,-0.2081885371,2.05
 82175966,0.3071740501\C,-2.7021796358,-0.519376015,1.06702716\C,-3.675
 1788525,-0.9137316701,-0.066038812\C,-4.7960062771,0.1041960759,-0.289
 7449298\C,-0.2186171386,-1.6025880364,-0.273818325\H,0.7618645396,0.95
 63685719,-1.3195050352\H,1.5084535647,0.6966697999,0.2633000612\H,-2.1
 871983557,2.2034093966,1.2541567611\H,0.1542729293,3.0828533922,0.3118
 051863\H,-2.3234437656,-1.4293093015,1.565619138\H,-3.2301187189,0.065
 1559139,1.837960948\H,-3.0976187512,-1.0715547611,-0.9910573685\H,-4.1
 262712151,-1.8900852876,0.1871296936\H,-5.4620502051,-0.2041873107,-1.
 1116663571\H,-5.4149093536,0.2191011267,0.6166502302\H,-4.3930310839,1
 .0985804448,-0.5482908587\H,-0.964626594,-2.3707085228,-0.0703050205\H
 ,0.7194732024,-1.9171364404,-0.7311867286\\Version=EM64L-G09RevB.01\St
 ate=1-A\HF=-367.4078414,-367.4070751,-367.4051988,-367.4032534,-367.40
 24644,-367.4032621,-367.405189\RMSD=9.434e-09,3.719e-09,6.211e-09,5.53
 7e-09,4.489e-09,4.055e-09,8.676e-09\PG=C01 [X(C8H13N1)]\\@


 THE ONLY DIFFERENCE BETWEEN ECCENTRICS AND JOGGERS
 IS THAT JOGGERS WEAR SWEATBANDS WHEN THEY RUN IN THE RAIN.
 Job cpu time:  0 days  3 hours  9 minutes 45.5 seconds.
 File lengths (MBytes):  RWF=     94 Int=      0 D2E=      0 Chk=      5 Scr=      2
 Normal termination of Gaussian 09 at Sun Mar 22 18:04:11 2015.
