    -----------------------------------------------------------------------
          Psi4: An Open-Source Ab Initio Electronic Structure Package
                              Psi4 1.0.0 Driver

                          Git: Rev {master} 6a9a71b 

    J. M. Turney, A. C. Simmonett, R. M. Parrish, E. G. Hohenstein,
    F. A. Evangelista, J. T. Fermann, B. J. Mintz, L. A. Burns, J. J. Wilke,
    M. L. Abrams, N. J. Russ, M. L. Leininger, C. L. Janssen, E. T. Seidl,
    W. D. Allen, H. F. Schaefer, R. A. King, E. F. Valeev, C. D. Sherrill,
    and T. D. Crawford, WIREs Comput. Mol. Sci. 2, 556-565 (2012)
    (doi: 10.1002/wcms.93)

                         Additional Contributions by
    A. E. DePrince, U. Bozkaya, A. Yu. Sokolov, D. G. A. Smith, R. Di Remigio,
    R. M. Richard, J. F. Gonthier, H. R. McAlexander, M. Saitow, and
    B. P. Pritchard
    -----------------------------------------------------------------------


    Psi4 started on: Tue Feb 21 19:58:24 2017

    Process ID:  50885
    PSI4DATADIR: /Users/sternc1/anaconda/share/psi4
    Memory level set to 256.000 MB

  ==> Input File <==

--------------------------------------------------------------------------

memory 1000 mb

molecule butane {
  symmetry C1
  0 1 
  H      1.604   0.760   -8.260
  H      1.745   2.388   -8.880
  H      2.043   1.024   -9.930
  C      2.142   1.395   -8.932
  H      4.169   2.051   -9.210
  H      3.731   1.788   -7.539
  C      3.631   1.416   -8.537
  H      5.237   0.003   -8.337
  H      3.665   -0.647   -7.940
  C      4.203   -0.012   -8.612
  H      4.459   -1.539   -10.100
  H      4.599   0.087   -10.721
  H      3.027   -0.564   -10.324
  C      4.061   -0.548   -10.048
  units Angstrom
}

dih_string = "4 7 10 14 60"
set optking fixed_dihedral = $dih_string

optimize('B3LYP/cc-PVDZ')
--------------------------------------------------------------------------

  Memory set to 1000.000 MiB by Python script.
gradient() will perform analytic gradient computation.

*** tstart() called on lski1497
*** at Tue Feb 21 19:58:25 2017


         ---------------------------------------------------------
                                   SCF
            by Justin Turney, Rob Parrish, and Andy Simmonett
                              RKS Reference
                        1 Threads,   1000 MiB Core
         ---------------------------------------------------------

  ==> Geometry <==

    Molecular point group: c1
    Full point group: C1

    Geometry (in Angstrom), charge = 0, multiplicity = 1:

       Center              X                  Y                   Z               Mass       
    ------------   -----------------  -----------------  -----------------  -----------------
           H         -1.891133430388     0.202048071909     0.788188622235     1.007825032070
           H         -1.750133430388     1.830048071909     0.168188622235     1.007825032070
           H         -1.452133430388     0.466048071909    -0.881811377765     1.007825032070
           C         -1.353133430388     0.837048071909     0.116188622235    12.000000000000
           H          0.673866569612     1.493048071909    -0.161811377765     1.007825032070
           H          0.235866569612     1.230048071909     1.509188622235     1.007825032070
           C          0.135866569612     0.858048071909     0.511188622235    12.000000000000
           H          1.741866569612    -0.554951928091     0.711188622235     1.007825032070
           H          0.169866569612    -1.204951928091     1.108188622235     1.007825032070
           C          0.707866569612    -0.569951928091     0.436188622235    12.000000000000
           H          0.963866569612    -2.096951928091    -1.051811377765     1.007825032070
           H          1.103866569612    -0.470951928091    -1.672811377765     1.007825032070
           H         -0.468133430388    -1.121951928091    -1.275811377765     1.007825032070
           C          0.565866569612    -1.105951928091    -0.999811377765    12.000000000000

  Running in c1 symmetry.

  Rotational constants: A =      0.41859  B =      0.17560  C =      0.14458 [cm^-1]
  Rotational constants: A =  12548.96445  B =   5264.38149  C =   4334.52063 [MHz]
  Nuclear repulsion =  134.731788310367762

  Charge       = 0
  Multiplicity = 1
  Electrons    = 34
  Nalpha       = 17
  Nbeta        = 17

  ==> Algorithm <==

  SCF Algorithm Type is DF.
  DIIS enabled.
  MOM disabled.
  Fractional occupation disabled.
  Guess Type is SAD.
  Energy threshold   = 1.00e-08
  Density threshold  = 1.00e-08
  Integral threshold = 0.00e+00

  ==> Primary Basis <==

  Basis Set: CC-PVDZ
    Number of shells: 54
    Number of basis function: 106
    Number of Cartesian functions: 110
    Spherical Harmonics?: true
    Max angular momentum: 2

  ==> DFT Potential <==

   => B3LYP Composite Functional <= 

    B3LYP Hybrid-GGA Exchange-Correlation Functional (VWN1-RPA)

    P.J. Stephens et. al., J. Phys. Chem., 98, 11623-11627, 1994

    Points   =           5000
    Deriv    =              1
    GGA      =           TRUE
    Meta     =          FALSE

    X_LRC        =          FALSE
    X_Hybrid     =           TRUE
    X_Alpha      =   2.000000E-01
    X_Omega      =   0.000000E+00
    C_LRC        =          FALSE
    C_Hybrid     =          FALSE
    C_Alpha      =   0.000000E+00
    C_Omega      =   0.000000E+00

   => Exchange Functionals <=

    0.8000    B3_X
    0.2000      HF 

   => Correlation Functionals <=

    0.1900 VWN3RPA_C
    0.8100   LYP_C

   => Molecular Quadrature <=

    Radial Scheme    =       TREUTLER
    Pruning Scheme   =           FLAT
    Nuclear Scheme   =       TREUTLER

    BS radius alpha  =              1
    Pruning alpha    =              1
    Radial Points    =             75
    Spherical Points =            302
    Total Points     =         312725
    Total Blocks     =            271
    Max Points       =           4953
    Max Functions    =            106

  ==> Pre-Iterations <==

   -------------------------------------------------------
    Irrep   Nso     Nmo     Nalpha   Nbeta   Ndocc  Nsocc
   -------------------------------------------------------
     A        106     106       0       0       0       0
   -------------------------------------------------------
    Total     106     106      17      17      17       0
   -------------------------------------------------------

  ==> Integral Setup <==

  ==> DFJK: Density-Fitted J/K Matrices <==

    J tasked:                  Yes
    K tasked:                  Yes
    wK tasked:                  No
    OpenMP threads:              1
    Integrals threads:           1
    Memory (MB):               715
    Algorithm:                Core
    Integral Cache:           NONE
    Schwarz Cutoff:          1E-12
    Fitting Condition:       1E-12

   => Auxiliary Basis Set <=

  Basis Set: 
    Number of shells: 186
    Number of basis function: 510
    Number of Cartesian functions: 574
    Spherical Harmonics?: true
    Max angular momentum: 3

  Minimum eigenvalue in the overlap matrix is 4.8377668570E-03.
  Using Symmetric Orthogonalization.
  SCF Guess: Superposition of Atomic Densities via on-the-fly atomic UHF.

  ==> Iterations <==

                           Total Energy        Delta E     RMS |[F,P]|

   @DF-RKS iter   0:  -159.06227012580032   -1.59062e+02   3.39636e-02 
   @DF-RKS iter   1:  -158.29536414783811    7.66906e-01   4.82899e-03 
   @DF-RKS iter   2:  -158.24262021334476    5.27439e-02   5.75013e-03 DIIS
   @DF-RKS iter   3:  -158.44516975893237   -2.02550e-01   3.84186e-04 DIIS
   @DF-RKS iter   4:  -158.44599822736453   -8.28468e-04   1.02663e-04 DIIS
   @DF-RKS iter   5:  -158.44604860605955   -5.03787e-05   4.37162e-05 DIIS
   @DF-RKS iter   6:  -158.44605890771692   -1.03017e-05   6.87734e-06 DIIS
   @DF-RKS iter   7:  -158.44605919758493   -2.89868e-07   9.31634e-07 DIIS
   @DF-RKS iter   8:  -158.44605920352356   -5.93863e-09   1.06410e-07 DIIS
   @DF-RKS iter   9:  -158.44605920359535   -7.17932e-11   3.83203e-08 DIIS
   @DF-RKS iter  10:  -158.44605920360340   -8.04334e-12   1.63934e-08 DIIS
   @DF-RKS iter  11:  -158.44605920360397   -5.68434e-13   1.51573e-09 DIIS

  ==> Post-Iterations <==

    Orbital Energies (a.u.)
    -----------------------

    Doubly Occupied:                                                      

       1A    -10.170346     2A    -10.170156     3A    -10.163463  
       4A    -10.163391     5A     -0.797134     6A     -0.717330  
       7A     -0.643205     8A     -0.569159     9A     -0.460963  
      10A     -0.459752    11A     -0.418028    12A     -0.384918  
      13A     -0.378158    14A     -0.358240    15A     -0.330477  
      16A     -0.319108    17A     -0.317385  

    Virtual:                                                              

      18A      0.064687    19A      0.098375    20A      0.101158  
      21A      0.108713    22A      0.136562    23A      0.144740  
      24A      0.158628    25A      0.165638    26A      0.166484  
      27A      0.189668    28A      0.226453    29A      0.234180  
      30A      0.256278    31A      0.412901    32A      0.421834  
      33A      0.433690    34A      0.434054    35A      0.446871  
      36A      0.469346    37A      0.528928    38A      0.594623  
      39A      0.602450    40A      0.623297    41A      0.637358  
      42A      0.651639    43A      0.664286    44A      0.682385  
      45A      0.684401    46A      0.689987    47A      0.691840  
      48A      0.713172    49A      0.723706    50A      0.739659  
      51A      0.771168    52A      0.823458    53A      0.896584  
      54A      0.920817    55A      0.966360    56A      1.098753  
      57A      1.128620    58A      1.184005    59A      1.225626  
      60A      1.290850    61A      1.339167    62A      1.390540  
      63A      1.406875    64A      1.457154    65A      1.468132  
      66A      1.497810    67A      1.577730    68A      1.594817  
      69A      1.611259    70A      1.647010    71A      1.647939  
      72A      1.662393    73A      1.675034    74A      1.690277  
      75A      1.706113    76A      1.717453    77A      1.719694  
      78A      1.722856    79A      1.744046    80A      1.766463  
      81A      1.818363    82A      1.823623    83A      1.899064  
      84A      1.902365    85A      1.997972    86A      2.003351  
      87A      2.035859    88A      2.054529    89A      2.120609  
      90A      2.145854    91A      2.234952    92A      2.284575  
      93A      2.292233    94A      2.322327    95A      2.353510  
      96A      2.364887    97A      2.501007    98A      2.502998  
      99A      2.511501   100A      2.540556   101A      2.544351  
     102A      2.582571   103A      2.657981   104A      2.683005  
     105A      2.739113   106A      2.779307  

    Final Occupation by Irrep:
              A 
    DOCC [    17 ]

  Energy converged.

  @DF-RKS Final Energy:  -158.44605920360397

   => Energetics <=

    Nuclear Repulsion Energy =            134.7317883103677616
    One-Electron Energy =                -477.8457074146430159
    Two-Electron Energy =                 205.3517514835530733
    DFT Exchange-Correlation Energy =     -20.6838915828817669
    Empirical Dispersion Energy =           0.0000000000000000
    PCM Polarization Energy =               0.0000000000000000
    EFP Energy =                            0.0000000000000000
    Total Energy =                       -158.4460592036039657


  Saving occupied orbitals to File 180.

*** tstop() called on lski1497 at Tue Feb 21 20:00:42 2017
Module time:
	user time   =     121.61 seconds =       2.03 minutes
	system time =       1.52 seconds =       0.03 minutes
	total time  =        137 seconds =       2.28 minutes
Total time:
	user time   =     121.61 seconds =       2.03 minutes
	system time =       1.52 seconds =       0.03 minutes
	total time  =        137 seconds =       2.28 minutes


Properties will be evaluated at   0.000000,   0.000000,   0.000000 Bohr

Properties computed using the SCF density matrix

  Nuclear Dipole Moment: (a.u.)
     X:    -0.6303      Y:    -0.2142      Z:    -0.7116

  Electronic Dipole Moment: (a.u.)
     X:     0.6461      Y:     0.2189      Z:     0.7290

  Dipole Moment: (a.u.)
     X:     0.0158      Y:     0.0046      Z:     0.0174     Total:     0.0239

  Dipole Moment: (Debye)
     X:     0.0401      Y:     0.0118      Z:     0.0442     Total:     0.0609


*** tstart() called on lski1497
*** at Tue Feb 21 20:00:42 2017


         ------------------------------------------------------------
                                   SCF GRAD                          
                          Rob Parrish, Justin Turney,                
                       Andy Simmonett, and Alex Sokolov              
         ------------------------------------------------------------

  ==> Geometry <==

    Molecular point group: c1
    Full point group: C1

    Geometry (in Angstrom), charge = 0, multiplicity = 1:

       Center              X                  Y                   Z               Mass       
    ------------   -----------------  -----------------  -----------------  -----------------
           H         -1.891133430388     0.202048071909     0.788188622235     1.007825032070
           H         -1.750133430388     1.830048071909     0.168188622235     1.007825032070
           H         -1.452133430388     0.466048071909    -0.881811377765     1.007825032070
           C         -1.353133430388     0.837048071909     0.116188622235    12.000000000000
           H          0.673866569612     1.493048071909    -0.161811377765     1.007825032070
           H          0.235866569612     1.230048071909     1.509188622235     1.007825032070
           C          0.135866569612     0.858048071909     0.511188622235    12.000000000000
           H          1.741866569612    -0.554951928091     0.711188622235     1.007825032070
           H          0.169866569612    -1.204951928091     1.108188622235     1.007825032070
           C          0.707866569612    -0.569951928091     0.436188622235    12.000000000000
           H          0.963866569612    -2.096951928091    -1.051811377765     1.007825032070
           H          1.103866569612    -0.470951928091    -1.672811377765     1.007825032070
           H         -0.468133430388    -1.121951928091    -1.275811377765     1.007825032070
           C          0.565866569612    -1.105951928091    -0.999811377765    12.000000000000

  Nuclear repulsion =  134.731788310367733

  ==> Basis Set <==

  Basis Set: CC-PVDZ
    Number of shells: 54
    Number of basis function: 106
    Number of Cartesian functions: 110
    Spherical Harmonics?: true
    Max angular momentum: 2

  ==> DFJKGrad: Density-Fitted SCF Gradients <==

    Gradient:                    1
    J tasked:                  Yes
    K tasked:                  Yes
    wK tasked:                  No
    OpenMP threads:              1
    Integrals threads:           1
    Memory (MB):               715
    Schwarz Cutoff:          0E+00
    Fitting Condition:       1E-12

   => Auxiliary Basis Set <=

  Basis Set: 
    Number of shells: 186
    Number of basis function: 510
    Number of Cartesian functions: 574
    Spherical Harmonics?: true
    Max angular momentum: 3

  ==> DFT Potential <==

   => B3LYP Composite Functional <= 

    B3LYP Hybrid-GGA Exchange-Correlation Functional (VWN1-RPA)

    P.J. Stephens et. al., J. Phys. Chem., 98, 11623-11627, 1994

    Points   =           5000
    Deriv    =              1
    GGA      =           TRUE
    Meta     =          FALSE

    X_LRC        =          FALSE
    X_Hybrid     =           TRUE
    X_Alpha      =   2.000000E-01
    X_Omega      =   0.000000E+00
    C_LRC        =          FALSE
    C_Hybrid     =          FALSE
    C_Alpha      =   0.000000E+00
    C_Omega      =   0.000000E+00

   => Exchange Functionals <=

    0.8000    B3_X
    0.2000      HF 

   => Correlation Functionals <=

    0.1900 VWN3RPA_C
    0.8100   LYP_C

   => Molecular Quadrature <=

    Radial Scheme    =       TREUTLER
    Pruning Scheme   =           FLAT
    Nuclear Scheme   =       TREUTLER

    BS radius alpha  =              1
    Pruning alpha    =              1
    Radial Points    =             75
    Spherical Points =            302
    Total Points     =         312725
    Total Blocks     =            271
    Max Points       =           4953
    Max Functions    =            106


  -Total Gradient:
     Atom            X                  Y                   Z
    ------   -----------------  -----------------  -----------------
       1        0.014379940282     0.013119331017    -0.012912645509
       2        0.012118380626    -0.018732430372    -0.000055191034
       3        0.007361346780     0.004329142612     0.018744541950
       4       -0.028250926000    -0.009784211244    -0.008771965585
       5       -0.013029934328    -0.015278054130     0.012331972873
       6       -0.003654654381    -0.011048295540    -0.020518306451
       7        0.020411894644     0.030860320699     0.004772037001
       8       -0.021776031033     0.002229696890    -0.008244262330
       9        0.009594101261     0.014281955279    -0.016806585807
      10        0.009714180021    -0.020860631564     0.029338848515
      11       -0.007710006682     0.021451757813     0.005430895183
      12       -0.010500416762    -0.011679844687     0.016703025781
      13        0.017075629681     0.004291696679     0.009215047778
      14       -0.005750958268    -0.003186094019    -0.029246598994


*** tstop() called on lski1497 at Tue Feb 21 20:02:23 2017
Module time:
	user time   =      82.73 seconds =       1.38 minutes
	system time =       1.28 seconds =       0.02 minutes
	total time  =        101 seconds =       1.68 minutes
Total time:
	user time   =     204.40 seconds =       3.41 minutes
	system time =       2.80 seconds =       0.05 minutes
	total time  =        238 seconds =       3.97 minutes

			-----------------------------------------
			 OPTKING 2.0: for geometry optimizations 
			  - R.A. King,  Bethel University        
			-----------------------------------------

	Internal coordinates to be generated automatically.
	Detected frag 1 with atoms:  1 2 3 4 5 6 7 8 9 10 11 12 13 14
	---Fragment 1 Bond Connectivity---
	 1 : 4
	 2 : 4
	 3 : 4
	 4 : 1 2 3 7
	 5 : 7
	 6 : 7
	 7 : 4 5 6 10
	 8 : 10
	 9 : 10
	 10 : 7 8 9 14
	 11 : 14
	 12 : 14
	 13 : 14
	 14 : 10 11 12 13

	Assuming in current code that numbering for constraints corresponds to unified fragment.
	Fixed dihedral atom list: 
	     4     7    10    14
	---Fragment 1 Geometry and Gradient---
	 H          -3.5737242642        0.3818155216        1.4894606371
	 H          -3.3072728794        3.4582896659        0.3178304347
	 H          -2.7441344918        0.8807032207       -1.6663820048
	 C          -2.5570516047        1.5817916160        0.2195646758
	 H           1.2734232667        2.8214519591       -0.3057791892
	 H           0.4457232205        2.3244539862        2.8519531789
	 C           0.2567506072        1.6214758648        0.9660064983
	 H           3.2916507766       -1.0487071610        1.3439517248
	 H           0.3210012957       -2.2770291474        2.0941729996
	 C           1.3376739552       -1.0770530530        0.8242770383
	 H           1.8214438452       -3.9626648579       -1.9876354474
	 H           2.0860055038       -0.8899701658       -3.1611553760
	 H          -0.8846439771       -2.1201818784       -2.4109341012
	 C           1.0693328443       -2.0899462602       -1.8893696885
	             0.0143799403        0.0131193310       -0.0129126455
	             0.0121183806       -0.0187324304       -0.0000551910
	             0.0073613468        0.0043291426        0.0187445419
	            -0.0282509260       -0.0097842112       -0.0087719656
	            -0.0130299343       -0.0152780541        0.0123319729
	            -0.0036546544       -0.0110482955       -0.0205183065
	             0.0204118946        0.0308603207        0.0047720370
	            -0.0217760310        0.0022296969       -0.0082442623
	             0.0095941013        0.0142819553       -0.0168065858
	             0.0097141800       -0.0208606316        0.0293388485
	            -0.0077100067        0.0214517578        0.0054308952
	            -0.0105004168       -0.0116798447        0.0167030258
	             0.0170756297        0.0042916967        0.0092150478
	            -0.0057509583       -0.0031860940       -0.0292465990

	Previous optimization step data not found.  Starting new optimization.

	---Fragment 1 Intrafragment Coordinates---
	 - Coordinate -           - BOHR/RAD -       - ANG/DEG -
	 R(1,4)           =         2.021436	       1.069698
	 R(2,4)           =         2.023298	       1.070683
	 R(3,4)           =         2.020723	       1.069320
	 R(4,7)           =         2.911397	       1.540645
	 R(5,7)           =         2.022623	       1.070326
	 R(6,7)           =         2.021555	       1.069761
	 R(7,10)          =         2.910419	       1.540128
	 R(8,10)          =         2.022101	       1.070050
	 R(9,10)          =         2.021436	       1.069698
	 R(10,14)         =         2.908924	       1.539336
	 R(11,14)         =         2.020495	       1.069200
	 R(12,14)         =         2.022623	       1.070326
	 R(13,14)         =         2.022614	       1.070321
	 B(1,4,2)         =         1.910870	     109.484805
	 B(1,4,3)         =         1.911121	     109.499161
	 B(1,4,7)         =         1.910399	     109.457783
	 B(2,4,3)         =         1.910042	     109.437340
	 B(2,4,7)         =         1.910564	     109.467262
	 B(3,4,7)         =         1.910803	     109.480971
	 B(4,7,5)         =         1.909937	     109.431343
	 B(4,7,6)         =         1.911630	     109.528316
	 B(4,7,10)        =         1.911154	     109.501062
	 B(5,7,6)         =         1.910605	     109.469614
	 B(5,7,10)        =         1.910047	     109.437654
	 B(6,7,10)        =         1.910425	     109.459295
	 B(7,10,8)        =         1.910675	     109.473632
	 B(7,10,9)        =         1.910303	     109.452301
	 B(7,10,14)       =         1.911361	     109.512905
	 B(8,10,9)        =         1.910146	     109.443289
	 B(8,10,14)       =         1.911092	     109.497516
	 B(9,10,14)       =         1.910222	     109.447648
	 B(10,14,11)      =         1.911092	     109.497530
	 B(10,14,12)      =         1.910939	     109.488733
	 B(10,14,13)      =         1.912272	     109.565126
	 B(11,14,12)      =         1.909429	     109.402238
	 B(11,14,13)      =         1.910505	     109.463859
	 B(12,14,13)      =         1.909559	     109.409679
	 D(1,4,7,5)       =         3.140997	     179.965873
	 D(1,4,7,6)       =        -1.047644	     -60.025575
	 D(1,4,7,10)      =         1.047427	      60.013132
	 D(2,4,7,5)       =        -1.047689	     -60.028143
	 D(2,4,7,6)       =         1.046856	      59.980409
	 D(2,4,7,10)      =        -3.141259	    -179.980883
	 D(3,4,7,5)       =         1.046044	      59.933911
	 D(3,4,7,6)       =         3.140588	     179.942463
	 D(3,4,7,10)      =        -1.047526	     -60.018830
	 D(4,7,10,8)      =        -3.140990	    -179.965470
	 D(4,7,10,9)      =        -1.047368	     -60.009777
	 D(4,7,10,14)     =         1.046766	      59.975282
	 D(5,7,10,8)      =         1.048693	      60.085655
	 D(5,7,10,9)      =        -3.140871	    -179.958653
	 D(5,7,10,14)     =        -1.046737	     -59.973593
	 D(6,7,10,8)      =        -1.045182	     -59.884544
	 D(6,7,10,9)      =         1.048439	      60.071149
	 D(6,7,10,14)     =        -3.140612	    -179.943792
	 D(7,10,14,11)    =         3.140671	     179.947190
	 D(7,10,14,12)    =         1.047282	      60.004845
	 D(7,10,14,13)    =        -1.046989	     -59.988058
	 D(8,10,14,11)    =         1.045497	      59.902549
	 D(8,10,14,12)    =        -1.047892	     -60.039796
	 D(8,10,14,13)    =         3.141022	     179.967301
	 D(9,10,14,11)    =        -1.048330	     -60.064903
	 D(9,10,14,12)    =         3.141466	     179.992752
	 D(9,10,14,13)    =         1.047195	      59.999849

	Current energy   :      -158.4460592036

	Generating empirical Hessian (Schlegel '84) for each fragment.
	Adding user-defined constraint: Fragment 1; Coordinate 49:
		Value =     1.046766; Fixed value    =     1.047198
		Force =     0.000216; Force constant =     0.500000
	Removing off-diagonal coupling between coordinate 49 and others.
	Taking RFO optimization step.
	Going to follow RFO solution 1.
	Using RFO vector 1.

	Determining step-restricting scale parameter for RS-RFO.
	Maximum step size allowed    0.10000

	 Iter      |step|        alpha        rfo_root  
	------------------------------------------------
	    0     0.31962       1.00000           1
	    1     0.23128       4.76149           1
	    2     0.16499      15.81381           1
	    3     0.12521      35.33622           1
	    4     0.10613      54.77396           1
	    5     0.10052      62.92003           1
	    6     0.10000      63.74652           1
	------------------------------------------------
	Norm of target step-size    0.10000
	Projected energy change by RFO approximation:        -0.0081181895

	Back-transformation to cartesian coordinates...
	Could not converge backtransformation.
	Using first guess instead.

	--- Internal Coordinate Step in ANG or DEG, aJ/ANG or AJ/DEG ---
	 ---------------------------------------------------------------------------
	   Coordinate                Previous        Force       Change         New 
	   ----------                --------       ------       ------       ------
	    1 R(1,4)          =      1.069698     0.190580     0.013584     1.083282
	    2 R(2,4)          =      1.070683     0.180176     0.013091     1.083774
	    3 R(3,4)          =      1.069320     0.162133     0.012073     1.081394
	    4 R(4,7)          =      1.540645     0.037141     0.003417     1.544062
	    5 R(5,7)          =      1.070326     0.192520     0.013694     1.084020
	    6 R(6,7)          =      1.069761     0.192160     0.013756     1.083517
	    7 R(7,10)         =      1.540128     0.081054     0.006524     1.546652
	    8 R(8,10)         =      1.070050     0.190548     0.013649     1.083698
	    9 R(9,10)         =      1.069698     0.196589     0.013970     1.083668
	   10 R(10,14)        =      1.539336     0.042181     0.003810     1.543146
	   11 R(11,14)        =      1.069200     0.189630     0.013734     1.082934
	   12 R(12,14)        =      1.070326     0.187101     0.013348     1.083674
	   13 R(13,14)        =      1.070321     0.156026     0.011654     1.081975
	   14 B(1,4,2)        =    109.484805    -0.000298    -0.316175   109.168629
	   15 B(1,4,3)        =    109.499161    -0.000305    -0.346187   109.152974
	   16 B(1,4,7)        =    109.457783     0.000198     0.197921   109.655704
	   17 B(2,4,3)        =    109.437340    -0.000428    -0.458243   108.979098
	   18 B(2,4,7)        =    109.467262     0.000316     0.351598   109.818860
	   19 B(3,4,7)        =    109.480971     0.000517     0.563715   110.044686
	   20 B(4,7,5)        =    109.431343    -0.000403    -0.406321   109.025022
	   21 B(4,7,6)        =    109.528316    -0.000580    -0.556558   108.971758
	   22 B(4,7,10)       =    109.501062     0.001810     1.836849   111.337912
	   23 B(5,7,6)        =    109.469614     0.000153     0.062383   109.531996
	   24 B(5,7,10)       =    109.437654    -0.000488    -0.467646   108.970008
	   25 B(6,7,10)       =    109.459295    -0.000493    -0.475080   108.984215
	   26 B(7,10,8)       =    109.473632    -0.000497    -0.480607   108.993025
	   27 B(7,10,9)       =    109.452301    -0.000491    -0.470770   108.981530
	   28 B(7,10,14)      =    109.512905     0.001815     1.840815   111.353719
	   29 B(8,10,9)       =    109.443289     0.000155     0.064181   109.507469
	   30 B(8,10,14)      =    109.497516    -0.000578    -0.552995   108.944521
	   31 B(9,10,14)      =    109.447648    -0.000404    -0.407765   109.039883
	   32 B(10,14,11)     =    109.497530     0.000316     0.351851   109.849382
	   33 B(10,14,12)     =    109.488733     0.000191     0.191091   109.679824
	   34 B(10,14,13)     =    109.565126     0.000506     0.552867   110.117993
	   35 B(11,14,12)     =    109.402238    -0.000290    -0.307463   109.094775
	   36 B(11,14,13)     =    109.463859    -0.000429    -0.460639   109.003220
	   37 B(12,14,13)     =    109.409679    -0.000297    -0.336967   109.072712
	   38 D(1,4,7,5)      =    179.965873     0.000052     0.248750   180.214623
	   39 D(1,4,7,6)      =    -60.025575    -0.000043    -0.254456   -60.280031
	   40 D(1,4,7,10)     =     60.013132    -0.000008    -0.054397    59.958735
	   41 D(2,4,7,5)      =    -60.028143     0.000040     0.199339   -59.828803
	   42 D(2,4,7,6)      =     59.980409    -0.000055    -0.303866    59.676543
	   43 D(2,4,7,10)     =   -179.980883    -0.000020    -0.103808  -180.084691
	   44 D(3,4,7,5)      =     59.933911     0.000037     0.202962    60.136873
	   45 D(3,4,7,6)      =    179.942463    -0.000058    -0.300243   179.642219
	   46 D(3,4,7,10)     =    -60.018830    -0.000023    -0.100185   -60.119014
	   47 D(4,7,10,8)     =   -179.965470     0.000067     0.307708  -179.657762
	   48 D(4,7,10,9)     =    -60.009777    -0.000028    -0.185447   -60.195223
	   49 D(4,7,10,14)    =     59.975282     0.000044     0.153744    60.129026
	   50 D(5,7,10,8)     =     60.085655    -0.000005    -0.031753    60.053902
	   51 D(5,7,10,9)     =   -179.958653    -0.000101    -0.524907  -180.483559
	   52 D(5,7,10,14)    =    -59.973593    -0.000029    -0.185716   -60.159310
	   53 D(6,7,10,8)     =    -59.884544     0.000089     0.458198   -59.426346
	   54 D(6,7,10,9)     =     60.071149    -0.000006    -0.034956    60.036193
	   55 D(6,7,10,14)    =   -179.943792     0.000066     0.304235  -179.639557
	   56 D(7,10,14,11)   =    179.947190    -0.000019    -0.099620   179.847570
	   57 D(7,10,14,12)   =     60.004845    -0.000009    -0.056885    59.947960
	   58 D(7,10,14,13)   =    -59.988058    -0.000024    -0.103618   -60.091675
	   59 D(8,10,14,11)   =     59.902549    -0.000053    -0.296804    59.605746
	   60 D(8,10,14,12)   =    -60.039796    -0.000043    -0.254069   -60.293865
	   61 D(8,10,14,13)   =    179.967301    -0.000058    -0.300801   179.666500
	   62 D(9,10,14,11)   =    -60.064903     0.000041     0.202328   -59.862575
	   63 D(9,10,14,12)   =    179.992752     0.000051     0.245063   180.237815
	   64 D(9,10,14,13)   =     59.999849     0.000036     0.198330    60.198179
	 ---------------------------------------------------------------------------
	 Forces used to impose fixed constraints are not included.
	  Forces zeroed: 49 

  ==> Convergence Check <==

  Measures of convergence in internal coordinates in au.
  Criteria marked as inactive (o), active & met (*), and active & unmet ( ).
  --------------------------------------------------------------------------------------------- ~
   Step     Total Energy     Delta E     MAX Force     RMS Force      MAX Disp      RMS Disp    ~
  --------------------------------------------------------------------------------------------- ~
    Convergence Criteria    1.00e-06 *    3.00e-04 *             o    1.20e-03 *             o  ~
  --------------------------------------------------------------------------------------------- ~
      1    -158.44605920   -1.58e+02      2.39e-02      1.05e-02 o    3.21e-02      1.26e-02 o  ~
  ---------------------------------------------------------------------------------------------

	Writing optimization data to binary file.
	Structure for next step:
	Cartesian Geometry (in Angstrom)
	    H    -1.9286921017   0.2278493579   0.8034846297
	    H    -1.7618628781   1.8807536741   0.2042120758
	    H    -1.5017245882   0.5183467273  -0.8832014290
	    C    -1.3743579913   0.8712744693   0.1310134694
	    H     0.6656874105   1.5052748778  -0.1634949722
	    H     0.2298382025   1.2180036052   1.5282505046
	    C     0.1216793734   0.8558292665   0.5128000862
	    H     1.7571532829  -0.5393882176   0.7028326129
	    H     0.1728167377  -1.2187951714   1.1044965216
	    C     0.7109128104  -0.5713092384   0.4221843262
	    H     1.0144062201  -2.1350358488  -1.0446340596
	    H     1.1315133395  -0.5001599928  -1.6991364589
	    H    -0.4462251259  -1.1838441383  -1.3059269843
	    C     0.5929872829  -1.1381263642  -1.0082396112
			--------------------------
			 OPTKING Finished Execution 
			--------------------------

    Structure for next step:
    Molecular point group: c1
    Full point group: C1

    Geometry (in Angstrom), charge = 0, multiplicity = 1:

    H           -1.927699444472     0.228137826836     0.804619503457
    H           -1.760870220949     1.881042143085     0.205346949543
    H           -1.500731931008     0.518635196259    -0.882066555238
    C           -1.373365334154     0.871562938287     0.132148343168
    H            0.666680067655     1.505563346757    -0.162360098415
    H            0.230830859682     1.218292074152     1.529385378329
    C            0.122672030595     0.856117735451     0.513934959982
    H            1.758145940121    -0.539099748628     0.703967486684
    H            0.173809394851    -1.218506702493     1.105631395349
    C            0.711905467634    -0.571020769412     0.423319199905
    H            1.015398877324    -2.134747379892    -1.043499185906
    H            1.132505996643    -0.499871523888    -1.698001585188
    H           -0.445232468753    -1.183555669369    -1.304792110529
    C            0.593979940083    -1.137837895281    -1.007104737493

gradient() will perform analytic gradient computation.

*** tstart() called on lski1497
*** at Tue Feb 21 20:02:25 2017


         ---------------------------------------------------------
                                   SCF
            by Justin Turney, Rob Parrish, and Andy Simmonett
                              RKS Reference
                        1 Threads,   1000 MiB Core
         ---------------------------------------------------------

  ==> Geometry <==

    Molecular point group: c1
    Full point group: C1

    Geometry (in Angstrom), charge = 0, multiplicity = 1:

       Center              X                  Y                   Z               Mass       
    ------------   -----------------  -----------------  -----------------  -----------------
           H         -1.927699444472     0.228137826836     0.804619503457     1.007825032070
           H         -1.760870220949     1.881042143085     0.205346949543     1.007825032070
           H         -1.500731931008     0.518635196259    -0.882066555238     1.007825032070
           C         -1.373365334154     0.871562938287     0.132148343168    12.000000000000
           H          0.666680067655     1.505563346757    -0.162360098415     1.007825032070
           H          0.230830859682     1.218292074152     1.529385378329     1.007825032070
           C          0.122672030595     0.856117735451     0.513934959982    12.000000000000
           H          1.758145940121    -0.539099748628     0.703967486684     1.007825032070
           H          0.173809394851    -1.218506702493     1.105631395349     1.007825032070
           C          0.711905467634    -0.571020769412     0.423319199905    12.000000000000
           H          1.015398877324    -2.134747379892    -1.043499185906     1.007825032070
           H          1.132505996643    -0.499871523888    -1.698001585188     1.007825032070
           H         -0.445232468753    -1.183555669369    -1.304792110529     1.007825032070
           C          0.593979940083    -1.137837895281    -1.007104737493    12.000000000000

  Running in c1 symmetry.

  Rotational constants: A =      0.42220  B =      0.16793  C =      0.13959 [cm^-1]
  Rotational constants: A =  12657.34455  B =   5034.35692  C =   4184.94446 [MHz]
  Nuclear repulsion =  133.256738924419835

  Charge       = 0
  Multiplicity = 1
  Electrons    = 34
  Nalpha       = 17
  Nbeta        = 17

  ==> Algorithm <==

  SCF Algorithm Type is DF.
  DIIS enabled.
  MOM disabled.
  Fractional occupation disabled.
  Guess Type is READ.
  Energy threshold   = 1.00e-08
  Density threshold  = 1.00e-08
  Integral threshold = 0.00e+00

  ==> Primary Basis <==

  Basis Set: CC-PVDZ
    Number of shells: 54
    Number of basis function: 106
    Number of Cartesian functions: 110
    Spherical Harmonics?: true
    Max angular momentum: 2

  ==> DFT Potential <==

   => B3LYP Composite Functional <= 

    B3LYP Hybrid-GGA Exchange-Correlation Functional (VWN1-RPA)

    P.J. Stephens et. al., J. Phys. Chem., 98, 11623-11627, 1994

    Points   =           5000
    Deriv    =              1
    GGA      =           TRUE
    Meta     =          FALSE

    X_LRC        =          FALSE
    X_Hybrid     =           TRUE
    X_Alpha      =   2.000000E-01
    X_Omega      =   0.000000E+00
    C_LRC        =          FALSE
    C_Hybrid     =          FALSE
    C_Alpha      =   0.000000E+00
    C_Omega      =   0.000000E+00

   => Exchange Functionals <=

    0.8000    B3_X
    0.2000      HF 

   => Correlation Functionals <=

    0.1900 VWN3RPA_C
    0.8100   LYP_C

   => Molecular Quadrature <=

    Radial Scheme    =       TREUTLER
    Pruning Scheme   =           FLAT
    Nuclear Scheme   =       TREUTLER

    BS radius alpha  =              1
    Pruning alpha    =              1
    Radial Points    =             75
    Spherical Points =            302
    Total Points     =         312757
    Total Blocks     =            272
    Max Points       =           4910
    Max Functions    =            106

  ==> Pre-Iterations <==

   -------------------------------------------------------
    Irrep   Nso     Nmo     Nalpha   Nbeta   Ndocc  Nsocc
   -------------------------------------------------------
     A        106     106       0       0       0       0
   -------------------------------------------------------
    Total     106     106      17      17      17       0
   -------------------------------------------------------

  ==> Integral Setup <==

  ==> DFJK: Density-Fitted J/K Matrices <==

    J tasked:                  Yes
    K tasked:                  Yes
    wK tasked:                  No
    OpenMP threads:              1
    Integrals threads:           1
    Memory (MB):               715
    Algorithm:                Core
    Integral Cache:           NONE
    Schwarz Cutoff:          1E-12
    Fitting Condition:       1E-12

   => Auxiliary Basis Set <=

  Basis Set: 
    Number of shells: 186
    Number of basis function: 510
    Number of Cartesian functions: 574
    Spherical Harmonics?: true
    Max angular momentum: 3

  Minimum eigenvalue in the overlap matrix is 4.9444933381E-03.
  Using Symmetric Orthogonalization.
  SCF Guess was Projection but file not found.
  Switching over to SAD guess.

  SCF Guess: Superposition of Atomic Densities via on-the-fly atomic UHF.

  ==> Iterations <==

                           Total Energy        Delta E     RMS |[F,P]|

   @DF-RKS iter   0:  -158.98526715237864   -1.58985e+02   3.31262e-02 
   @DF-RKS iter   1:  -158.30684989155282    6.78417e-01   4.72932e-03 
   @DF-RKS iter   2:  -158.25255144510840    5.42984e-02   5.67674e-03 DIIS
   @DF-RKS iter   3:  -158.45176903703174   -1.99218e-01   3.74678e-04 DIIS
   @DF-RKS iter   4:  -158.45256772283693   -7.98686e-04   1.02269e-04 DIIS
   @DF-RKS iter   5:  -158.45261780650895   -5.00837e-05   4.44508e-05 DIIS
   @DF-RKS iter   6:  -158.45262851738445   -1.07109e-05   6.84612e-06 DIIS
   @DF-RKS iter   7:  -158.45262880591366   -2.88529e-07   9.25326e-07 DIIS
   @DF-RKS iter   8:  -158.45262881180690   -5.89324e-09   1.11252e-07 DIIS
   @DF-RKS iter   9:  -158.45262881188415   -7.72502e-11   4.30043e-08 DIIS
   @DF-RKS iter  10:  -158.45262881189319   -9.03810e-12   1.71695e-08 DIIS
   @DF-RKS iter  11:  -158.45262881189450   -1.30740e-12   1.60566e-09 DIIS

  ==> Post-Iterations <==

    Orbital Energies (a.u.)
    -----------------------

    Doubly Occupied:                                                      

       1A    -10.174918     2A    -10.174747     3A    -10.168604  
       4A    -10.168558     5A     -0.792381     6A     -0.716177  
       7A     -0.640012     8A     -0.565336     9A     -0.458460  
      10A     -0.454636    11A     -0.415997    12A     -0.381812  
      13A     -0.378506    14A     -0.357496    15A     -0.327605  
      16A     -0.319482    17A     -0.318136  

    Virtual:                                                              

      18A      0.061417    19A      0.096307    20A      0.099270  
      21A      0.106704    22A      0.134449    23A      0.141989  
      24A      0.154712    25A      0.161601    26A      0.162494  
      27A      0.185687    28A      0.223764    29A      0.225996  
      30A      0.258628    31A      0.409562    32A      0.412927  
      33A      0.434108    34A      0.435908    35A      0.444365  
      36A      0.472784    37A      0.527865    38A      0.588320  
      39A      0.599933    40A      0.623105    41A      0.627434  
      42A      0.648365    43A      0.657015    44A      0.675178  
      45A      0.676522    46A      0.680469    47A      0.685706  
      48A      0.705373    49A      0.710197    50A      0.726773  
      51A      0.764798    52A      0.814739    53A      0.896719  
      54A      0.911522    55A      0.965886    56A      1.096982  
      57A      1.131533    58A      1.181677    59A      1.212360  
      60A      1.273075    61A      1.334124    62A      1.386054  
      63A      1.404436    64A      1.445957    65A      1.450620  
      66A      1.489406    67A      1.575438    68A      1.586592  
      69A      1.600864    70A      1.638821    71A      1.640459  
      72A      1.650185    73A      1.664059    74A      1.682609  
      75A      1.694310    76A      1.700280    77A      1.711916  
      78A      1.712666    79A      1.734124    80A      1.742612  
      81A      1.805744    82A      1.806321    83A      1.880936  
      84A      1.887590    85A      1.983226    86A      1.988571  
      87A      2.036765    88A      2.038301    89A      2.103853  
      90A      2.130847    91A      2.216020    92A      2.262721  
      93A      2.270795    94A      2.290335    95A      2.329025  
      96A      2.329604    97A      2.461077    98A      2.475447  
      99A      2.480354   100A      2.508998   101A      2.516159  
     102A      2.548537   103A      2.632322   104A      2.651471  
     105A      2.715245   106A      2.743033  

    Final Occupation by Irrep:
              A 
    DOCC [    17 ]

  Energy converged.

  @DF-RKS Final Energy:  -158.45262881189450

   => Energetics <=

    Nuclear Repulsion Energy =            133.2567389244198353
    One-Electron Energy =                -474.9573356245450668
    Two-Electron Energy =                 203.8856807026182878
    DFT Exchange-Correlation Energy =     -20.6377128143875588
    Empirical Dispersion Energy =           0.0000000000000000
    PCM Polarization Energy =               0.0000000000000000
    EFP Energy =                            0.0000000000000000
    Total Energy =                       -158.4526288118944990


  Saving occupied orbitals to File 180.

*** tstop() called on lski1497 at Tue Feb 21 20:07:18 2017
Module time:
	user time   =     245.17 seconds =       4.09 minutes
	system time =       3.19 seconds =       0.05 minutes
	total time  =        293 seconds =       4.88 minutes
Total time:
	user time   =     451.35 seconds =       7.52 minutes
	system time =       6.06 seconds =       0.10 minutes
	total time  =        533 seconds =       8.88 minutes


Properties will be evaluated at   0.000000,   0.000000,   0.000000 Bohr

Properties computed using the SCF density matrix

  Nuclear Dipole Moment: (a.u.)
     X:    -0.6161      Y:    -0.2101      Z:    -0.6954

  Electronic Dipole Moment: (a.u.)
     X:     0.6307      Y:     0.2146      Z:     0.7115

  Dipole Moment: (a.u.)
     X:     0.0146      Y:     0.0046      Z:     0.0161     Total:     0.0222

  Dipole Moment: (Debye)
     X:     0.0371      Y:     0.0116      Z:     0.0409     Total:     0.0564


*** tstart() called on lski1497
*** at Tue Feb 21 20:07:18 2017


         ------------------------------------------------------------
                                   SCF GRAD                          
                          Rob Parrish, Justin Turney,                
                       Andy Simmonett, and Alex Sokolov              
         ------------------------------------------------------------

  ==> Geometry <==

    Molecular point group: c1
    Full point group: C1

    Geometry (in Angstrom), charge = 0, multiplicity = 1:

       Center              X                  Y                   Z               Mass       
    ------------   -----------------  -----------------  -----------------  -----------------
           H         -1.927699444472     0.228137826836     0.804619503457     1.007825032070
           H         -1.760870220949     1.881042143085     0.205346949543     1.007825032070
           H         -1.500731931008     0.518635196259    -0.882066555238     1.007825032070
           C         -1.373365334154     0.871562938287     0.132148343168    12.000000000000
           H          0.666680067655     1.505563346757    -0.162360098415     1.007825032070
           H          0.230830859682     1.218292074152     1.529385378329     1.007825032070
           C          0.122672030595     0.856117735451     0.513934959982    12.000000000000
           H          1.758145940121    -0.539099748628     0.703967486684     1.007825032070
           H          0.173809394851    -1.218506702493     1.105631395349     1.007825032070
           C          0.711905467634    -0.571020769412     0.423319199905    12.000000000000
           H          1.015398877324    -2.134747379892    -1.043499185906     1.007825032070
           H          1.132505996643    -0.499871523888    -1.698001585188     1.007825032070
           H         -0.445232468753    -1.183555669369    -1.304792110529     1.007825032070
           C          0.593979940083    -1.137837895281    -1.007104737493    12.000000000000

  Nuclear repulsion =  133.256738924419835

  ==> Basis Set <==

  Basis Set: CC-PVDZ
    Number of shells: 54
    Number of basis function: 106
    Number of Cartesian functions: 110
    Spherical Harmonics?: true
    Max angular momentum: 2

  ==> DFJKGrad: Density-Fitted SCF Gradients <==

    Gradient:                    1
    J tasked:                  Yes
    K tasked:                  Yes
    wK tasked:                  No
    OpenMP threads:              1
    Integrals threads:           1
    Memory (MB):               715
    Schwarz Cutoff:          0E+00
    Fitting Condition:       1E-12

   => Auxiliary Basis Set <=

  Basis Set: 
    Number of shells: 186
    Number of basis function: 510
    Number of Cartesian functions: 574
    Spherical Harmonics?: true
    Max angular momentum: 3

  ==> DFT Potential <==

   => B3LYP Composite Functional <= 

    B3LYP Hybrid-GGA Exchange-Correlation Functional (VWN1-RPA)

    P.J. Stephens et. al., J. Phys. Chem., 98, 11623-11627, 1994

    Points   =           5000
    Deriv    =              1
    GGA      =           TRUE
    Meta     =          FALSE

    X_LRC        =          FALSE
    X_Hybrid     =           TRUE
    X_Alpha      =   2.000000E-01
    X_Omega      =   0.000000E+00
    C_LRC        =          FALSE
    C_Hybrid     =          FALSE
    C_Alpha      =   0.000000E+00
    C_Omega      =   0.000000E+00

   => Exchange Functionals <=

    0.8000    B3_X
    0.2000      HF 

   => Correlation Functionals <=

    0.1900 VWN3RPA_C
    0.8100   LYP_C

   => Molecular Quadrature <=

    Radial Scheme    =       TREUTLER
    Pruning Scheme   =           FLAT
    Nuclear Scheme   =       TREUTLER

    BS radius alpha  =              1
    Pruning alpha    =              1
    Radial Points    =             75
    Spherical Points =            302
    Total Points     =         312757
    Total Blocks     =            272
    Max Points       =           4910
    Max Functions    =            106


  -Total Gradient:
     Atom            X                  Y                   Z
    ------   -----------------  -----------------  -----------------
       1        0.009259541203     0.007260864379    -0.006795656379
       2        0.007293495612    -0.010181534917    -0.000189651177
       3        0.005415194139     0.002372485106     0.011389881378
       4       -0.021419225263    -0.005032283537    -0.006975553528
       5       -0.008177620545    -0.009981549682     0.005591636751
       6       -0.003573217597    -0.007379301116    -0.011020273530
       7        0.014544894950     0.022538172644     0.005103315402
       8       -0.011849922400     0.002027654792    -0.006420920892
       9        0.003863000998     0.008593152493    -0.010767404505
      10        0.008732555292    -0.014735973184     0.021137656010
      11       -0.004429515883     0.011802315029     0.003568710569
      12       -0.005701650895    -0.006003179768     0.010469777403
      13        0.010215150289     0.003118858583     0.006371736911
      14       -0.004191480818    -0.004405827441    -0.021483982578


*** tstop() called on lski1497 at Tue Feb 21 20:08:58 2017
Module time:
	user time   =      82.50 seconds =       1.37 minutes
	system time =       1.26 seconds =       0.02 minutes
	total time  =        100 seconds =       1.67 minutes
Total time:
	user time   =     533.92 seconds =       8.90 minutes
	system time =       7.32 seconds =       0.12 minutes
	total time  =        633 seconds =      10.55 minutes

			-----------------------------------------
			 OPTKING 2.0: for geometry optimizations 
			  - R.A. King,  Bethel University        
			-----------------------------------------

	Previous internal coordinate definitions found.
	---Fragment 1 Geometry and Gradient---
	 H          -3.6428240166        0.4311180133        1.5205105027
	 H          -3.3275624731        3.5546544948        0.3880494969
	 H          -2.8359723485        0.9800784838       -1.6668642204
	 C          -2.5952843620        1.6470152609        0.2497241775
	 H           1.2598427461        2.8451024011       -0.3068161209
	 H           0.4362071078        2.3022383700        2.8901195167
	 C           0.2318165420        1.6178280575        0.9711963245
	 H           3.3224143285       -1.0187508832        1.3303057563
	 H           0.3284521556       -2.3026439588        2.0893405411
	 C           1.3453063663       -1.0790728704        0.7999573546
	 H           1.9188257938       -4.0340879109       -1.9719276813
	 H           2.1401261775       -0.9446202818       -3.2087579692
	 H          -0.8413674314       -2.2365960781       -2.4656997493
	 C           1.1224594152       -2.1502020057       -1.9031521410
	             0.0092595412        0.0072608644       -0.0067956564
	             0.0072934956       -0.0101815349       -0.0001896512
	             0.0054151941        0.0023724851        0.0113898814
	            -0.0214192253       -0.0050322835       -0.0069755535
	            -0.0081776205       -0.0099815497        0.0055916368
	            -0.0035732176       -0.0073793011       -0.0110202735
	             0.0145448949        0.0225381726        0.0051033154
	            -0.0118499224        0.0020276548       -0.0064209209
	             0.0038630010        0.0085931525       -0.0107674045
	             0.0087325553       -0.0147359732        0.0211376560
	            -0.0044295159        0.0118023150        0.0035687106
	            -0.0057016509       -0.0060031798        0.0104697774
	             0.0102151503        0.0031188586        0.0063717369
	            -0.0041914808       -0.0044058274       -0.0214839826

	---Fragment 1 Intrafragment Coordinates---
	 - Coordinate -           - BOHR/RAD -       - ANG/DEG -
	 R(1,4)           =         2.047106	       1.083282
	 R(2,4)           =         2.048036	       1.083774
	 R(3,4)           =         2.043538	       1.081394
	 R(4,7)           =         2.917854	       1.544062
	 R(5,7)           =         2.048501	       1.084020
	 R(6,7)           =         2.047550	       1.083517
	 R(7,10)          =         2.922748	       1.546652
	 R(8,10)          =         2.047893	       1.083698
	 R(9,10)          =         2.047835	       1.083668
	 R(10,14)         =         2.916124	       1.543146
	 R(11,14)         =         2.046450	       1.082934
	 R(12,14)         =         2.047848	       1.083674
	 R(13,14)         =         2.044637	       1.081975
	 B(1,4,2)         =         1.905352	     109.168629
	 B(1,4,3)         =         1.905079	     109.152974
	 B(1,4,7)         =         1.913853	     109.655704
	 B(2,4,3)         =         1.902044	     108.979098
	 B(2,4,7)         =         1.916701	     109.818860
	 B(3,4,7)         =         1.920642	     110.044686
	 B(4,7,5)         =         1.902846	     109.025022
	 B(4,7,6)         =         1.901916	     108.971758
	 B(4,7,10)        =         1.943213	     111.337912
	 B(5,7,6)         =         1.911694	     109.531996
	 B(5,7,10)        =         1.901885	     108.970008
	 B(6,7,10)        =         1.902133	     108.984215
	 B(7,10,8)        =         1.902287	     108.993025
	 B(7,10,9)        =         1.902087	     108.981530
	 B(7,10,14)       =         1.943489	     111.353719
	 B(8,10,9)        =         1.911266	     109.507469
	 B(8,10,14)       =         1.901441	     108.944521
	 B(9,10,14)       =         1.903105	     109.039883
	 B(10,14,11)      =         1.917233	     109.849382
	 B(10,14,12)      =         1.914274	     109.679824
	 B(10,14,13)      =         1.921922	     110.117993
	 B(11,14,12)      =         1.904063	     109.094775
	 B(11,14,13)      =         1.902465	     109.003220
	 B(12,14,13)      =         1.903678	     109.072712
	 D(1,4,7,5)       =        -3.137847	    -179.785377
	 D(1,4,7,6)       =        -1.052085	     -60.280031
	 D(1,4,7,10)      =         1.046477	      59.958735
	 D(2,4,7,5)       =        -1.044210	     -59.828803
	 D(2,4,7,6)       =         1.041552	      59.676543
	 D(2,4,7,10)      =         3.140115	     179.915309
	 D(3,4,7,5)       =         1.049586	      60.136873
	 D(3,4,7,6)       =         3.135348	     179.642219
	 D(3,4,7,10)      =        -1.049275	     -60.119014
	 D(4,7,10,8)      =        -3.135619	    -179.657762
	 D(4,7,10,9)      =        -1.050605	     -60.195223
	 D(4,7,10,14)     =         1.049449	      60.129026
	 D(5,7,10,8)      =         1.048138	      60.053902
	 D(5,7,10,9)      =         3.133153	     179.516441
	 D(5,7,10,14)     =        -1.049978	     -60.159310
	 D(6,7,10,8)      =        -1.037185	     -59.426346
	 D(6,7,10,9)      =         1.047829	      60.036193
	 D(6,7,10,14)     =        -3.135302	    -179.639557
	 D(7,10,14,11)    =         3.138932	     179.847570
	 D(7,10,14,12)    =         1.046289	      59.947960
	 D(7,10,14,13)    =        -1.048798	     -60.091675
	 D(8,10,14,11)    =         1.040317	      59.605746
	 D(8,10,14,12)    =        -1.052326	     -60.293865
	 D(8,10,14,13)    =         3.135772	     179.666500
	 D(9,10,14,11)    =        -1.044799	     -59.862575
	 D(9,10,14,12)    =        -3.137442	    -179.762185
	 D(9,10,14,13)    =         1.050656	      60.198179

	Current energy   :      -158.4526288119

	Energy change for the previous step:
		Projected    :        -0.0081181895
		Actual       :        -0.0065696083

	Performing BFGS update.
	Previous computed or guess Hessian on step 1.
	Steps to be used in Hessian update: 1
	Adding user-defined constraint: Fragment 1; Coordinate 49:
		Value =     1.049449; Fixed value    =     1.047200
		Force =    -0.001181; Force constant =     0.525000
	Removing off-diagonal coupling between coordinate 49 and others.
	Taking RFO optimization step.
	Going to follow RFO solution 1.
	Using RFO vector 1.

	Determining step-restricting scale parameter for RS-RFO.
	Maximum step size allowed    0.10000

	 Iter      |step|        alpha        rfo_root  
	------------------------------------------------
	    0     0.19523       1.00000           1
	    1     0.15196       6.51925           1
	    2     0.12099      18.25246           1
	    3     0.10514      30.79848           1
	    4     0.10042      36.09592           1
	    5     0.10000      36.61498           1
	------------------------------------------------
	Norm of target step-size    0.10000
	Projected energy change by RFO approximation:        -0.0042796696

	Back-transformation to cartesian coordinates...
	Could not converge backtransformation.
	Using first guess instead.

	--- Internal Coordinate Step in ANG or DEG, aJ/ANG or AJ/DEG ---
	 ---------------------------------------------------------------------------
	   Coordinate                Previous        Force       Change         New 
	   ----------                --------       ------       ------       ------
	    1 R(1,4)          =      1.083282     0.109323     0.013362     1.096643
	    2 R(2,4)          =      1.083774     0.099723     0.011987     1.095761
	    3 R(3,4)          =      1.081394     0.099656     0.013532     1.094925
	    4 R(4,7)          =      1.544062    -0.000341    -0.002334     1.541728
	    5 R(5,7)          =      1.084020     0.111820     0.013699     1.097719
	    6 R(6,7)          =      1.083517     0.108336     0.013037     1.096553
	    7 R(7,10)         =      1.546652     0.014958    -0.002046     1.544606
	    8 R(8,10)         =      1.083698     0.107447     0.012940     1.096638
	    9 R(9,10)         =      1.083668     0.113959     0.013927     1.097595
	   10 R(10,14)        =      1.543146     0.002922    -0.001849     1.541298
	   11 R(11,14)        =      1.082934     0.104701     0.012526     1.095461
	   12 R(12,14)        =      1.083674     0.107453     0.013152     1.096826
	   13 R(13,14)        =      1.081975     0.096377     0.013162     1.095138
	   14 B(1,4,2)        =    109.168629    -0.000242    -0.572783   108.595847
	   15 B(1,4,3)        =    109.152974    -0.000254    -0.645171   108.507803
	   16 B(1,4,7)        =    109.655704     0.000204     0.554536   110.210240
	   17 B(2,4,3)        =    108.979098    -0.000304    -0.645258   108.333840
	   18 B(2,4,7)        =    109.818860     0.000223     0.494321   110.313181
	   19 B(3,4,7)        =    110.044686     0.000362     0.769830   110.814516
	   20 B(4,7,5)        =    109.025022    -0.000194    -0.169240   108.855782
	   21 B(4,7,6)        =    108.971758    -0.000254    -0.238127   108.733631
	   22 B(4,7,10)       =    111.337912     0.000939     1.367493   112.705405
	   23 B(5,7,6)        =    109.531996    -0.000013    -0.399500   109.132496
	   24 B(5,7,10)       =    108.970008    -0.000231    -0.247272   108.722736
	   25 B(6,7,10)       =    108.984215    -0.000253    -0.346429   108.637785
	   26 B(7,10,8)       =    108.993025    -0.000256    -0.351442   108.641583
	   27 B(7,10,9)       =    108.981530    -0.000233    -0.250059   108.731472
	   28 B(7,10,14)      =    111.353719     0.000940     1.364142   112.717861
	   29 B(8,10,9)       =    109.507469    -0.000013    -0.396490   109.110980
	   30 B(8,10,14)      =    108.944521    -0.000252    -0.229427   108.715094
	   31 B(9,10,14)      =    109.039883    -0.000195    -0.170308   108.869575
	   32 B(10,14,11)     =    109.849382     0.000222     0.487051   110.336433
	   33 B(10,14,12)     =    109.679824     0.000198     0.540967   110.220790
	   34 B(10,14,13)     =    110.117993     0.000353     0.746285   110.864278
	   35 B(11,14,12)     =    109.094775    -0.000235    -0.552607   108.542168
	   36 B(11,14,13)     =    109.003220    -0.000304    -0.646275   108.356945
	   37 B(12,14,13)     =    109.072712    -0.000246    -0.621105   108.451607
	   38 D(1,4,7,5)      =   -179.785377     0.000035     0.366774  -179.418604
	   39 D(1,4,7,6)      =    -60.280031    -0.000029    -0.352885   -60.632916
	   40 D(1,4,7,10)     =     59.958735    -0.000005    -0.080016    59.878719
	   41 D(2,4,7,5)      =    -59.828803     0.000028     0.318895   -59.509908
	   42 D(2,4,7,6)      =     59.676543    -0.000037    -0.400764    59.275779
	   43 D(2,4,7,10)     =    179.915309    -0.000012    -0.127895   179.787414
	   44 D(3,4,7,5)      =     60.136873     0.000026     0.323746    60.460620
	   45 D(3,4,7,6)      =    179.642219    -0.000039    -0.395912   179.246307
	   46 D(3,4,7,10)     =    -60.119014    -0.000014    -0.123043   -60.242058
	   47 D(4,7,10,8)     =   -179.657762     0.000043     0.477432  -179.180330
	   48 D(4,7,10,9)     =    -60.195223    -0.000027    -0.349147   -60.544370
	   49 D(4,7,10,14)    =     60.129026     0.000018     0.136830    60.265856
	   50 D(5,7,10,8)     =     60.053902    -0.000002    -0.013020    60.040882
	   51 D(5,7,10,9)     =    179.516441    -0.000072    -0.839599   178.676841
	   52 D(5,7,10,14)    =    -60.159310    -0.000027    -0.353623   -60.512933
	   53 D(6,7,10,8)     =    -59.426346     0.000067     0.812596   -58.613750
	   54 D(6,7,10,9)     =     60.036193    -0.000003    -0.013983    60.022210
	   55 D(6,7,10,14)    =   -179.639557     0.000042     0.471993  -179.167564
	   56 D(7,10,14,11)   =    179.847570    -0.000012    -0.116865   179.730706
	   57 D(7,10,14,12)   =     59.947960    -0.000005    -0.080821    59.867139
	   58 D(7,10,14,13)   =    -60.091675    -0.000015    -0.130773   -60.222448
	   59 D(8,10,14,11)   =     59.605746    -0.000036    -0.386720    59.219025
	   60 D(8,10,14,12)   =    -60.293865    -0.000029    -0.350677   -60.644541
	   61 D(8,10,14,13)   =    179.666500    -0.000039    -0.400628   179.265872
	   62 D(9,10,14,11)   =    -59.862575     0.000028     0.324546   -59.538029
	   63 D(9,10,14,12)   =   -179.762185     0.000035     0.360589  -179.401596
	   64 D(9,10,14,13)   =     60.198179     0.000025     0.310638    60.508817
	 ---------------------------------------------------------------------------
	 Forces used to impose fixed constraints are not included.
	  Forces zeroed: 49 

  ==> Convergence Check <==

  Measures of convergence in internal coordinates in au.
  Criteria marked as inactive (o), active & met (*), and active & unmet ( ).
  ---------------------------------------------------------------------------------------------
   Step     Total Energy     Delta E     MAX Force     RMS Force      MAX Disp      RMS Disp   
  ---------------------------------------------------------------------------------------------
    Convergence Criteria    1.00e-06 *    3.00e-04 *             o    1.20e-03 *             o
  ---------------------------------------------------------------------------------------------
      2    -158.45262881   -6.57e-03      1.38e-02      5.97e-03 o    2.63e-02      1.26e-02 o  ~
  ---------------------------------------------------------------------------------------------

	Writing optimization data to binary file.
	Structure for next step:
	Cartesian Geometry (in Angstrom)
	    H    -1.9583170575   0.2443836164   0.8146188852
	    H    -1.7680426270   1.9159297149   0.2320000635
	    H    -1.5394600023   0.5549402656  -0.8859438379
	    C    -1.3833792977   0.8937302078   0.1434837705
	    H     0.6647956324   1.5152268029  -0.1639998252
	    H     0.2312121948   1.2086899440   1.5431895972
	    C     0.1126939304   0.8509524876   0.5134291547
	    H     1.7682130747  -0.5256095916   0.7022153169
	    H     0.1751357451  -1.2282631814   1.1070227590
	    C     0.7115090958  -0.5692548484   0.4122378451
	    H     1.0517818864  -2.1602266984  -1.0376667703
	    H     1.1513787779  -0.5200527148  -1.7211515716
	    H    -0.4320941461  -1.2286732324  -1.3297717719
	    C     0.6126019683  -1.1570612004  -1.0091346714
			--------------------------
			 OPTKING Finished Execution 
			--------------------------

    Structure for next step:
    Molecular point group: c1
    Full point group: C1

    Geometry (in Angstrom), charge = 0, multiplicity = 1:

    H           -1.957982738512     0.244469800488     0.815050724684
    H           -1.767708308009     1.916015899039     0.232431902927
    H           -1.539125683374     0.555026449677    -0.885511998472
    C           -1.383044978776     0.893816391931     0.143915609900
    H            0.665129951327     1.515312987054    -0.163567985746
    H            0.231546513741     1.208776128152     1.543621436625
    C            0.113028249335     0.851038671771     0.513860994147
    H            1.768547393659    -0.525523407448     0.702647156384
    H            0.175470064090    -1.228176997253     1.107454598415
    C            0.711843414720    -0.569168664301     0.412669684559
    H            1.052116205364    -2.160140514258    -1.037234930867
    H            1.151713096868    -0.519966530671    -1.720719732172
    H           -0.431759827128    -1.228587048323    -1.329339932487
    C            0.612936287239    -1.156975016257    -1.008702831953

gradient() will perform analytic gradient computation.

*** tstart() called on lski1497
*** at Tue Feb 21 20:09:00 2017


         ---------------------------------------------------------
                                   SCF
            by Justin Turney, Rob Parrish, and Andy Simmonett
                              RKS Reference
                        1 Threads,   1000 MiB Core
         ---------------------------------------------------------

  ==> Geometry <==

    Molecular point group: c1
    Full point group: C1

    Geometry (in Angstrom), charge = 0, multiplicity = 1:

       Center              X                  Y                   Z               Mass       
    ------------   -----------------  -----------------  -----------------  -----------------
           H         -1.957982738512     0.244469800488     0.815050724684     1.007825032070
           H         -1.767708308009     1.916015899039     0.232431902927     1.007825032070
           H         -1.539125683374     0.555026449677    -0.885511998472     1.007825032070
           C         -1.383044978776     0.893816391931     0.143915609900    12.000000000000
           H          0.665129951327     1.515312987054    -0.163567985746     1.007825032070
           H          0.231546513741     1.208776128152     1.543621436625     1.007825032070
           C          0.113028249335     0.851038671771     0.513860994147    12.000000000000
           H          1.768547393659    -0.525523407448     0.702647156384     1.007825032070
           H          0.175470064090    -1.228176997253     1.107454598415     1.007825032070
           C          0.711843414720    -0.569168664301     0.412669684559    12.000000000000
           H          1.052116205364    -2.160140514258    -1.037234930867     1.007825032070
           H          1.151713096868    -0.519966530671    -1.720719732172     1.007825032070
           H         -0.431759827128    -1.228587048323    -1.329339932487     1.007825032070
           C          0.612936287239    -1.156975016257    -1.008702831953    12.000000000000

  Running in c1 symmetry.

  Rotational constants: A =      0.42565  B =      0.16345  C =      0.13677 [cm^-1]
  Rotational constants: A =  12760.61335  B =   4900.22102  C =   4100.27154 [MHz]
  Nuclear repulsion =  132.334413760288612

  Charge       = 0
  Multiplicity = 1
  Electrons    = 34
  Nalpha       = 17
  Nbeta        = 17

  ==> Algorithm <==

  SCF Algorithm Type is DF.
  DIIS enabled.
  MOM disabled.
  Fractional occupation disabled.
  Guess Type is READ.
  Energy threshold   = 1.00e-08
  Density threshold  = 1.00e-08
  Integral threshold = 0.00e+00

  ==> Primary Basis <==

  Basis Set: CC-PVDZ
    Number of shells: 54
    Number of basis function: 106
    Number of Cartesian functions: 110
    Spherical Harmonics?: true
    Max angular momentum: 2

  ==> DFT Potential <==

   => B3LYP Composite Functional <= 

    B3LYP Hybrid-GGA Exchange-Correlation Functional (VWN1-RPA)

    P.J. Stephens et. al., J. Phys. Chem., 98, 11623-11627, 1994

    Points   =           5000
    Deriv    =              1
    GGA      =           TRUE
    Meta     =          FALSE

    X_LRC        =          FALSE
    X_Hybrid     =           TRUE
    X_Alpha      =   2.000000E-01
    X_Omega      =   0.000000E+00
    C_LRC        =          FALSE
    C_Hybrid     =          FALSE
    C_Alpha      =   0.000000E+00
    C_Omega      =   0.000000E+00

   => Exchange Functionals <=

    0.8000    B3_X
    0.2000      HF 

   => Correlation Functionals <=

    0.1900 VWN3RPA_C
    0.8100   LYP_C

   => Molecular Quadrature <=

    Radial Scheme    =       TREUTLER
    Pruning Scheme   =           FLAT
    Nuclear Scheme   =       TREUTLER

    BS radius alpha  =              1
    Pruning alpha    =              1
    Radial Points    =             75
    Spherical Points =            302
    Total Points     =         312781
    Total Blocks     =            273
    Max Points       =           4864
    Max Functions    =            106

  ==> Pre-Iterations <==

   -------------------------------------------------------
    Irrep   Nso     Nmo     Nalpha   Nbeta   Ndocc  Nsocc
   -------------------------------------------------------
     A        106     106       0       0       0       0
   -------------------------------------------------------
    Total     106     106      17      17      17       0
   -------------------------------------------------------

  ==> Integral Setup <==

  ==> DFJK: Density-Fitted J/K Matrices <==

    J tasked:                  Yes
    K tasked:                  Yes
    wK tasked:                  No
    OpenMP threads:              1
    Integrals threads:           1
    Memory (MB):               715
    Algorithm:                Core
    Integral Cache:           NONE
    Schwarz Cutoff:          1E-12
    Fitting Condition:       1E-12

   => Auxiliary Basis Set <=

  Basis Set: 
    Number of shells: 186
    Number of basis function: 510
    Number of Cartesian functions: 574
    Spherical Harmonics?: true
    Max angular momentum: 3

  Minimum eigenvalue in the overlap matrix is 4.9494244685E-03.
  Using Symmetric Orthogonalization.
  SCF Guess was Projection but file not found.
  Switching over to SAD guess.

  SCF Guess: Superposition of Atomic Densities via on-the-fly atomic UHF.

  ==> Iterations <==

                           Total Energy        Delta E     RMS |[F,P]|

   @DF-RKS iter   0:  -158.93167327358358   -1.58932e+02   3.25386e-02 
   @DF-RKS iter   1:  -158.31297173019311    6.18702e-01   4.66900e-03 
   @DF-RKS iter   2:  -158.25404833563417    5.89234e-02   5.68178e-03 DIIS
   @DF-RKS iter   3:  -158.45507230430553   -2.01024e-01   3.70121e-04 DIIS
   @DF-RKS iter   4:  -158.45586239263224   -7.90088e-04   1.00604e-04 DIIS
   @DF-RKS iter   5:  -158.45591117313191   -4.87805e-05   4.42829e-05 DIIS
   @DF-RKS iter   6:  -158.45592181558564   -1.06425e-05   6.94035e-06 DIIS
   @DF-RKS iter   7:  -158.45592211174892   -2.96163e-07   9.34048e-07 DIIS
   @DF-RKS iter   8:  -158.45592211778342   -6.03450e-09   1.18527e-07 DIIS
   @DF-RKS iter   9:  -158.45592211786834   -8.49241e-11   4.97737e-08 DIIS
   @DF-RKS iter  10:  -158.45592211788156   -1.32161e-11   1.78558e-08 DIIS
   @DF-RKS iter  11:  -158.45592211788281   -1.25056e-12   1.72820e-09 DIIS

  ==> Post-Iterations <==

    Orbital Energies (a.u.)
    -----------------------

    Doubly Occupied:                                                      

       1A    -10.178620     2A    -10.178454     3A    -10.173047  
       4A    -10.173027     5A     -0.790387     6A     -0.715077  
       7A     -0.637735     8A     -0.561935     9A     -0.456240  
      10A     -0.451381    11A     -0.413955    12A     -0.380927  
      13A     -0.377507    14A     -0.356252    15A     -0.325215  
      16A     -0.319743    17A     -0.318609  

    Virtual:                                                              

      18A      0.058763    19A      0.093582    20A      0.097049  
      21A      0.104488    22A      0.132735    23A      0.139705  
      24A      0.150548    25A      0.157234    26A      0.159940  
      27A      0.182439    28A      0.221258    29A      0.223567  
      30A      0.262485    31A      0.405494    32A      0.406886  
      33A      0.434463    34A      0.437045    35A      0.441363  
      36A      0.476611    37A      0.528347    38A      0.586117  
      39A      0.598792    40A      0.619202    41A      0.624661  
      42A      0.644162    43A      0.648909    44A      0.666229  
      45A      0.670745    46A      0.672879    47A      0.680893  
      48A      0.693837    49A      0.702612    50A      0.716048  
      51A      0.760075    52A      0.808265    53A      0.897147  
      54A      0.906500    55A      0.965432    56A      1.095866  
      57A      1.131777    58A      1.178578    59A      1.201723  
      60A      1.262500    61A      1.330229    62A      1.382189  
      63A      1.401916    64A      1.437539    65A      1.438414  
      66A      1.483368    67A      1.576473    68A      1.582495  
      69A      1.592929    70A      1.630314    71A      1.633037  
      72A      1.644131    73A      1.655403    74A      1.676466  
      75A      1.682000    76A      1.687904    77A      1.701775  
      78A      1.703870    79A      1.725173    80A      1.725341  
      81A      1.789697    82A      1.796005    83A      1.865945  
      84A      1.878241    85A      1.965994    86A      1.984529  
      87A      2.030091    88A      2.040868    89A      2.090704  
      90A      2.116875    91A      2.198305    92A      2.243035  
      93A      2.250039    94A      2.263230    95A      2.300360  
      96A      2.303429    97A      2.424513    98A      2.438599  
      99A      2.458993   100A      2.487982   101A      2.494986  
     102A      2.524418   103A      2.617450   104A      2.625956  
     105A      2.696176   106A      2.717271  

    Final Occupation by Irrep:
              A 
    DOCC [    17 ]

  Energy converged.

  @DF-RKS Final Energy:  -158.45592211788281

   => Energetics <=

    Nuclear Repulsion Energy =            132.3344137602886121
    One-Electron Energy =                -473.1549070017156851
    Two-Electron Energy =                 202.9646374366416808
    DFT Exchange-Correlation Energy =     -20.6000663130974218
    Empirical Dispersion Energy =           0.0000000000000000
    PCM Polarization Energy =               0.0000000000000000
    EFP Energy =                            0.0000000000000000
    Total Energy =                       -158.4559221178828068


  Saving occupied orbitals to File 180.

*** tstop() called on lski1497 at Tue Feb 21 20:13:43 2017
Module time:
	user time   =     236.87 seconds =       3.95 minutes
	system time =       3.03 seconds =       0.05 minutes
	total time  =        283 seconds =       4.72 minutes
Total time:
	user time   =     772.55 seconds =      12.88 minutes
	system time =      10.39 seconds =       0.17 minutes
	total time  =        918 seconds =      15.30 minutes


Properties will be evaluated at   0.000000,   0.000000,   0.000000 Bohr

Properties computed using the SCF density matrix

  Nuclear Dipole Moment: (a.u.)
     X:    -0.6113      Y:    -0.2089      Z:    -0.6892

  Electronic Dipole Moment: (a.u.)
     X:     0.6252      Y:     0.2135      Z:     0.7046

  Dipole Moment: (a.u.)
     X:     0.0139      Y:     0.0046      Z:     0.0154     Total:     0.0213

  Dipole Moment: (Debye)
     X:     0.0353      Y:     0.0117      Z:     0.0392     Total:     0.0540


*** tstart() called on lski1497
*** at Tue Feb 21 20:13:43 2017


         ------------------------------------------------------------
                                   SCF GRAD                          
                          Rob Parrish, Justin Turney,                
                       Andy Simmonett, and Alex Sokolov              
         ------------------------------------------------------------

  ==> Geometry <==

    Molecular point group: c1
    Full point group: C1

    Geometry (in Angstrom), charge = 0, multiplicity = 1:

       Center              X                  Y                   Z               Mass       
    ------------   -----------------  -----------------  -----------------  -----------------
           H         -1.957982738512     0.244469800488     0.815050724684     1.007825032070
           H         -1.767708308009     1.916015899039     0.232431902927     1.007825032070
           H         -1.539125683374     0.555026449677    -0.885511998472     1.007825032070
           C         -1.383044978776     0.893816391931     0.143915609900    12.000000000000
           H          0.665129951327     1.515312987054    -0.163567985746     1.007825032070
           H          0.231546513741     1.208776128152     1.543621436625     1.007825032070
           C          0.113028249335     0.851038671771     0.513860994147    12.000000000000
           H          1.768547393659    -0.525523407448     0.702647156384     1.007825032070
           H          0.175470064090    -1.228176997253     1.107454598415     1.007825032070
           C          0.711843414720    -0.569168664301     0.412669684559    12.000000000000
           H          1.052116205364    -2.160140514258    -1.037234930867     1.007825032070
           H          1.151713096868    -0.519966530671    -1.720719732172     1.007825032070
           H         -0.431759827128    -1.228587048323    -1.329339932487     1.007825032070
           C          0.612936287239    -1.156975016257    -1.008702831953    12.000000000000

  Nuclear repulsion =  132.334413760288612

  ==> Basis Set <==

  Basis Set: CC-PVDZ
    Number of shells: 54
    Number of basis function: 106
    Number of Cartesian functions: 110
    Spherical Harmonics?: true
    Max angular momentum: 2

  ==> DFJKGrad: Density-Fitted SCF Gradients <==

    Gradient:                    1
    J tasked:                  Yes
    K tasked:                  Yes
    wK tasked:                  No
    OpenMP threads:              1
    Integrals threads:           1
    Memory (MB):               715
    Schwarz Cutoff:          0E+00
    Fitting Condition:       1E-12

   => Auxiliary Basis Set <=

  Basis Set: 
    Number of shells: 186
    Number of basis function: 510
    Number of Cartesian functions: 574
    Spherical Harmonics?: true
    Max angular momentum: 3

  ==> DFT Potential <==

   => B3LYP Composite Functional <= 

    B3LYP Hybrid-GGA Exchange-Correlation Functional (VWN1-RPA)

    P.J. Stephens et. al., J. Phys. Chem., 98, 11623-11627, 1994

    Points   =           5000
    Deriv    =              1
    GGA      =           TRUE
    Meta     =          FALSE

    X_LRC        =          FALSE
    X_Hybrid     =           TRUE
    X_Alpha      =   2.000000E-01
    X_Omega      =   0.000000E+00
    C_LRC        =          FALSE
    C_Hybrid     =          FALSE
    C_Alpha      =   0.000000E+00
    C_Omega      =   0.000000E+00

   => Exchange Functionals <=

    0.8000    B3_X
    0.2000      HF 

   => Correlation Functionals <=

    0.1900 VWN3RPA_C
    0.8100   LYP_C

   => Molecular Quadrature <=

    Radial Scheme    =       TREUTLER
    Pruning Scheme   =           FLAT
    Nuclear Scheme   =       TREUTLER

    BS radius alpha  =              1
    Pruning alpha    =              1
[...]

  ==> Basis Set <==

  Basis Set: CC-PVDZ
    Number of shells: 54
    Number of basis function: 106
    Number of Cartesian functions: 110
    Spherical Harmonics?: true
    Max angular momentum: 2

  ==> DFJKGrad: Density-Fitted SCF Gradients <==

    Gradient:                    1
    J tasked:                  Yes
    K tasked:                  Yes
    wK tasked:                  No
    OpenMP threads:              1
    Integrals threads:           1
    Memory (MB):               715
    Schwarz Cutoff:          0E+00
    Fitting Condition:       1E-12

   => Auxiliary Basis Set <=

  Basis Set: 
    Number of shells: 186
    Number of basis function: 510
    Number of Cartesian functions: 574
    Spherical Harmonics?: true
    Max angular momentum: 3

  ==> DFT Potential <==

   => B3LYP Composite Functional <= 

    B3LYP Hybrid-GGA Exchange-Correlation Functional (VWN1-RPA)

    P.J. Stephens et. al., J. Phys. Chem., 98, 11623-11627, 1994

    Points   =           5000
    Deriv    =              1
    GGA      =           TRUE
    Meta     =          FALSE

    X_LRC        =          FALSE
    X_Hybrid     =           TRUE
    X_Alpha      =   2.000000E-01
    X_Omega      =   0.000000E+00
    C_LRC        =          FALSE
    C_Hybrid     =          FALSE
    C_Alpha      =   0.000000E+00
    C_Omega      =   0.000000E+00

   => Exchange Functionals <=

    0.8000    B3_X
    0.2000      HF 

   => Correlation Functionals <=

    0.1900 VWN3RPA_C
    0.8100   LYP_C

   => Molecular Quadrature <=

    Radial Scheme    =       TREUTLER
    Pruning Scheme   =           FLAT
    Nuclear Scheme   =       TREUTLER

    BS radius alpha  =              1
    Pruning alpha    =              1
    Radial Points    =             75
    Spherical Points =            302
    Total Points     =         312814
    Total Blocks     =            270
    Max Points       =           4944
    Max Functions    =            106


  -Total Gradient:
     Atom            X                  Y                   Z
    ------   -----------------  -----------------  -----------------
       1        0.000010742963     0.000010001556    -0.000007804283
       2        0.000014760405     0.000010678306    -0.000000513081
       3        0.000003829673     0.000013701878     0.000002354038
       4        0.000179202073     0.000126964746    -0.000725961969
       5       -0.000050015730    -0.000035355850     0.000023827594
       6       -0.000008832263    -0.000033480164    -0.000044463275
       7       -0.000539000106    -0.000228250160     0.001137170265
       8       -0.000049500538     0.000013204851    -0.000021597197
       9        0.000021220271     0.000026114550    -0.000058109358
      10        0.001092828994     0.000416561232    -0.000514104634
      11       -0.000001010883    -0.000002251451     0.000017357469
      12       -0.000006003715    -0.000008114356     0.000012339062
      13        0.000004234799    -0.000010335202     0.000007382143
      14       -0.000675424549    -0.000300455194     0.000168788738


*** tstop() called on lski1497 at Tue Feb 21 20:32:27 2017
Module time:
	user time   =      81.43 seconds =       1.36 minutes
	system time =       0.94 seconds =       0.02 minutes
	total time  =         84 seconds =       1.40 minutes
Total time:
	user time   =    1752.62 seconds =      29.21 minutes
	system time =      22.81 seconds =       0.38 minutes
	total time  =       2042 seconds =      34.03 minutes

			-----------------------------------------
			 OPTKING 2.0: for geometry optimizations 
			  - R.A. King,  Bethel University        
			-----------------------------------------

	Previous internal coordinate definitions found.
	---Fragment 1 Geometry and Gradient---
	 H          -3.7589655032        0.4634235876        1.4682244500
	 H          -3.3520013388        3.6840636680        0.5912006658
	 H          -2.9796963111        1.2647123602       -1.7023386625
	 C          -2.6221777339        1.7566331031        0.2895278429
	 H           1.2651601834        2.8942114769       -0.2702665881
	 H           0.4698073423        2.2833523807        2.9095514322
	 C           0.1889558799        1.5908383870        0.9606349947
	 H           3.3293742357       -0.9850250743        1.3582795215
	 H           0.3749103825       -2.3337377964        2.1126415011
	 C           1.3343403128       -1.0702708805        0.7505688521
	 H           2.1506161734       -4.0946107257       -1.9407927874
	 H           2.1183693157       -1.0240717254       -3.3111934416
	 H          -0.7700815215       -2.5461528113       -2.5100049658
	 C           1.1956753284       -2.2441242407       -1.8919958618
	             0.0000107430        0.0000100016       -0.0000078043
	             0.0000147604        0.0000106783       -0.0000005131
	             0.0000038297        0.0000137019        0.0000023540
	             0.0001792021        0.0001269647       -0.0007259620
	            -0.0000500157       -0.0000353558        0.0000238276
	            -0.0000088323       -0.0000334802       -0.0000444633
	            -0.0005390001       -0.0002282502        0.0011371703
	            -0.0000495005        0.0000132049       -0.0000215972
	             0.0000212203        0.0000261146       -0.0000581094
	             0.0010928290        0.0004165612       -0.0005141046
	            -0.0000010109       -0.0000022515        0.0000173575
	            -0.0000060037       -0.0000081144        0.0000123391
	             0.0000042348       -0.0000103352        0.0000073821
	            -0.0006754245       -0.0003004552        0.0001687887

	---Fragment 1 Intrafragment Coordinates---
	 - Coordinate -           - BOHR/RAD -       - ANG/DEG -
	 R(1,4)           =         2.086625	       1.104194
	 R(2,4)           =         2.082940	       1.102244
	 R(3,4)           =         2.082628	       1.102079
	 R(4,7)           =         2.894883	       1.531906
	 R(5,7)           =         2.090961	       1.106489
	 R(6,7)           =         2.087278	       1.104540
	 R(7,10)          =         2.904744	       1.537124
	 R(8,10)          =         2.087280	       1.104541
	 R(9,10)          =         2.090956	       1.106486
	 R(10,14)         =         2.894876	       1.531902
	 R(11,14)         =         2.082929	       1.102239
	 R(12,14)         =         2.086627	       1.104196
	 R(13,14)         =         2.082632	       1.102081
	 B(1,4,2)         =         1.876319	     107.505178
	 B(1,4,3)         =         1.875858	     107.478727
	 B(1,4,7)         =         1.941839	     111.259202
	 B(2,4,3)         =         1.872280	     107.273732
	 B(2,4,7)         =         1.938706	     111.079655
	 B(3,4,7)         =         1.955080	     112.017851
	 B(4,7,5)         =         1.904594	     109.125216
	 B(4,7,6)         =         1.905107	     109.154581
	 B(4,7,10)        =         2.002711	     114.746888
	 B(5,7,6)         =         1.847921	     105.878091
	 B(5,7,10)        =         1.902370	     108.997756
	 B(6,7,10)        =         1.894857	     108.567313
	 B(7,10,8)        =         1.894856	     108.567279
	 B(7,10,9)        =         1.902371	     108.997823
	 B(7,10,14)       =         2.002711	     114.746879
	 B(8,10,9)        =         1.847919	     105.877939
	 B(8,10,14)       =         1.905106	     109.154545
	 B(9,10,14)       =         1.904597	     109.125364
	 B(10,14,11)      =         1.938708	     111.079789
	 B(10,14,12)      =         1.941838	     111.259121
	 B(10,14,13)      =         1.955083	     112.018031
	 B(11,14,12)      =         1.876317	     107.505022
	 B(11,14,13)      =         1.872284	     107.273995
	 B(12,14,13)      =         1.875851	     107.478371
	 D(1,4,7,5)       =         3.131031	     179.394879
	 D(1,4,7,6)       =        -1.140188	     -65.327971
	 D(1,4,7,10)      =         0.990711	      56.763533
	 D(2,4,7,5)       =        -1.062520	     -60.877889
	 D(2,4,7,6)       =         0.949446	      54.399260
	 D(2,4,7,10)      =         3.080345	     176.490765
	 D(3,4,7,5)       =         1.030887	      59.065499
	 D(3,4,7,6)       =         3.042853	     174.342649
	 D(3,4,7,10)      =        -1.109433	     -63.565846
	 D(4,7,10,8)      =        -3.096412	    -177.411329
	 D(4,7,10,9)      =        -1.091197	     -62.520991
	 D(4,7,10,14)     =         1.050327	      60.179284
	 D(5,7,10,8)      =         1.045254	      59.888634
	 D(5,7,10,9)      =         3.050469	     174.778972
	 D(5,7,10,14)     =        -1.091193	     -62.520752
	 D(6,7,10,8)      =        -0.959964	     -55.001865
	 D(6,7,10,9)      =         1.045251	      59.888472
	 D(6,7,10,14)     =        -3.096410	    -177.411252
	 D(7,10,14,11)    =         3.080339	     176.490444
	 D(7,10,14,12)    =         0.990708	      56.763373
	 D(7,10,14,13)    =        -1.109429	     -63.565620
	 D(8,10,14,11)    =         0.949442	      54.399016
	 D(8,10,14,12)    =        -1.140190	     -65.328055
	 D(8,10,14,13)    =         3.042859	     174.342952
	 D(9,10,14,11)    =        -1.062522	     -60.878016
	 D(9,10,14,12)    =         3.131032	     179.394913
	 D(9,10,14,13)    =         1.030895	      59.065921

	Current energy   :      -158.4573829713

	Energy change for the previous step:
		Projected    :         0.0000034948
		Actual       :        -0.0000039416

	Performing BFGS update.
	Previous computed or guess Hessian on step 1.
	Steps to be used in Hessian update: 6 5
	Adding user-defined constraint: Fragment 1; Coordinate 49:
		Value =     1.050327; Fixed value    =     1.047200
		Force =    -0.002032; Force constant =     0.650000
	Removing off-diagonal coupling between coordinate 49 and others.
	Taking RFO optimization step.
	Going to follow RFO solution 1.
	Using RFO vector 1.
	Norm of target step-size    0.00352
	Projected energy change by RFO approximation:         0.0000003543

	Back-transformation to cartesian coordinates...
	Could not converge backtransformation.
	Using first guess instead.

	--- Internal Coordinate Step in ANG or DEG, aJ/ANG or AJ/DEG ---
	 ---------------------------------------------------------------------------
	   Coordinate                Previous        Force       Change         New 
	   ----------                --------       ------       ------       ------
	    1 R(1,4)          =      1.104194     0.000132     0.000054     1.104248
	    2 R(2,4)          =      1.102244    -0.000037     0.000024     1.102268
	    3 R(3,4)          =      1.102079     0.000054     0.000036     1.102115
	    4 R(4,7)          =      1.531906     0.000199     0.000026     1.531932
	    5 R(5,7)          =      1.106489     0.000511     0.000115     1.106603
	    6 R(6,7)          =      1.104540     0.000440     0.000102     1.104642
	    7 R(7,10)         =      1.537124    -0.000463    -0.000111     1.537013
	    8 R(8,10)         =      1.104541     0.000434     0.000101     1.104642
	    9 R(9,10)         =      1.106486     0.000524     0.000117     1.106603
	   10 R(10,14)        =      1.531902     0.000213     0.000030     1.531932
	   11 R(11,14)        =      1.102239    -0.000008     0.000030     1.102268
	   12 R(12,14)        =      1.104196     0.000126     0.000052     1.104248
	   13 R(13,14)        =      1.102081     0.000042     0.000033     1.102114
	   14 B(1,4,2)        =    107.505178    -0.000001    -0.005824   107.499353
	   15 B(1,4,3)        =    107.478727    -0.000000    -0.007180   107.471546
	   16 B(1,4,7)        =    111.259202    -0.000000    -0.000847   111.258354
	   17 B(2,4,3)        =    107.273732    -0.000000     0.000332   107.274064
	   18 B(2,4,7)        =    111.079655     0.000002     0.011283   111.090938
	   19 B(3,4,7)        =    112.017851    -0.000000     0.001436   112.019287
	   20 B(4,7,5)        =    109.125216    -0.000004     0.001201   109.126417
	   21 B(4,7,6)        =    109.154581     0.000008     0.016941   109.171522
	   22 B(4,7,10)       =    114.746888    -0.000006    -0.012798   114.734090
	   23 B(5,7,6)        =    105.878091    -0.000001    -0.012237   105.865854
	   24 B(5,7,10)       =    108.997756     0.000001    -0.003668   108.994088
	   25 B(6,7,10)       =    108.567313     0.000002     0.010435   108.577748
	   26 B(7,10,8)       =    108.567279     0.000002     0.010404   108.577683
	   27 B(7,10,9)       =    108.997823     0.000001    -0.003746   108.994076
	   28 B(7,10,14)      =    114.746879    -0.000006    -0.012765   114.734115
	   29 B(8,10,9)       =    105.877939    -0.000001    -0.012091   105.865849
	   30 B(8,10,14)      =    109.154545     0.000008     0.016999   109.171545
	   31 B(9,10,14)      =    109.125364    -0.000004     0.001084   109.126448
	   32 B(10,14,11)     =    111.079789     0.000002     0.011235   111.091023
	   33 B(10,14,12)     =    111.259121    -0.000000    -0.000805   111.258316
	   34 B(10,14,13)     =    112.018031    -0.000000     0.001198   112.019228
	   35 B(11,14,12)     =    107.505022    -0.000001    -0.005594   107.499428
	   36 B(11,14,13)     =    107.273995    -0.000000     0.000081   107.274076
	   37 B(12,14,13)     =    107.478371    -0.000000    -0.006897   107.471473
	   38 D(1,4,7,5)      =    179.394879    -0.000001     0.037808   179.432687
	   39 D(1,4,7,6)      =    -65.327971    -0.000000     0.033159   -65.294813
	   40 D(1,4,7,10)     =     56.763533     0.000001     0.050729    56.814262
	   41 D(2,4,7,5)      =    -60.877889    -0.000001     0.037427   -60.840462
	   42 D(2,4,7,6)      =     54.399260    -0.000000     0.032777    54.432037
	   43 D(2,4,7,10)     =    176.490765     0.000001     0.050347   176.541113
	   44 D(3,4,7,5)      =     59.065499    -0.000000     0.046595    59.112094
	   45 D(3,4,7,6)      =    174.342649    -0.000000     0.041945   174.384594
	   46 D(3,4,7,10)     =    -63.565846     0.000001     0.059516   -63.506331
	   47 D(4,7,10,8)     =   -177.411329    -0.000002    -0.013189  -177.424519
	   48 D(4,7,10,9)     =    -62.520991    -0.000002    -0.023909   -62.544901
	   49 D(4,7,10,14)    =     60.179284    -0.000004    -0.034368    60.144916
	   50 D(5,7,10,8)     =     59.888634    -0.000000    -0.002920    59.885714
	   51 D(5,7,10,9)     =    174.778972     0.000000    -0.013639   174.765332
	   52 D(5,7,10,14)    =    -62.520752    -0.000002    -0.024098   -62.544851
	   53 D(6,7,10,8)     =    -55.001865    -0.000000     0.007914   -54.993951
	   54 D(6,7,10,9)     =     59.888472    -0.000000    -0.002806    59.885667
	   55 D(6,7,10,14)    =   -177.411252    -0.000002    -0.013264  -177.424516
	   56 D(7,10,14,11)   =    176.490444     0.000001     0.050646   176.541090
	   57 D(7,10,14,12)   =     56.763373     0.000001     0.050741    56.814114
	   58 D(7,10,14,13)   =    -63.565620     0.000001     0.059300   -63.506319
	   59 D(8,10,14,11)   =     54.399016    -0.000000     0.033049    54.432064
	   60 D(8,10,14,12)   =    -65.328055    -0.000000     0.033144   -65.294912
	   61 D(8,10,14,13)   =    174.342952    -0.000000     0.041703   174.384655
	   62 D(9,10,14,11)   =    -60.878016    -0.000001     0.037557   -60.840459
	   63 D(9,10,14,12)   =    179.394913    -0.000001     0.037652   179.432565
	   64 D(9,10,14,13)   =     59.065921    -0.000000     0.046211    59.112132
	 ---------------------------------------------------------------------------
	 Forces used to impose fixed constraints are not included.
	  Forces zeroed: 49 

  ==> Convergence Check <==

  Measures of convergence in internal coordinates in au.
  Criteria marked as inactive (o), active & met (*), and active & unmet ( ).
  ---------------------------------------------------------------------------------------------
   Step     Total Energy     Delta E     MAX Force     RMS Force      MAX Disp      RMS Disp   
  ---------------------------------------------------------------------------------------------
    Convergence Criteria    1.00e-06 *    3.00e-04 *             o    1.20e-03 *             o
  ---------------------------------------------------------------------------------------------
      7    -158.45738297   -3.94e-06      1.18e-04 *    4.75e-05 o    1.04e-03 *    4.41e-04 o  ~
  ---------------------------------------------------------------------------------------------


  **** Optimization is complete! (in 7 steps) ****

  ==> Optimization Summary <==

  Measures of convergence in internal coordinates in au.
  --------------------------------------------------------------------------------------------------------------- ~
   Step         Total Energy             Delta E       MAX Force       RMS Force        MAX Disp        RMS Disp  ~
  --------------------------------------------------------------------------------------------------------------- ~
      1    -158.446059203604   -158.446059203604      0.02386159      0.01052138      0.03212828      0.01262116  ~
      2    -158.452628811894     -0.006569608291      0.01383209      0.00597133      0.02631877      0.01256915  ~
      3    -158.455922117883     -0.003293305988      0.00631195      0.00245622      0.02960102      0.01252683  ~
      4    -158.457042675520     -0.001120557637      0.00155949      0.00080149      0.02946199      0.01251203  ~
      5    -158.457336463365     -0.000293787845      0.00067823      0.00022405      0.02671107      0.01250333  ~
      6    -158.457379029704     -0.000042566340      0.00029906      0.00008968      0.01488613      0.00733538  ~
      7    -158.457382971333     -0.000003941629      0.00023424      0.00005581      0.00103875      0.00044056  ~
  --------------------------------------------------------------------------------------------------------------- ~

	Writing optimization data to binary file.
	Final energy is   -158.4573829713327
	Final (previous) structure:
	Cartesian Geometry (in Angstrom)
	    H    -1.9891588721   0.2452332005   0.7769509160
	    H    -1.7738027117   1.9495225281   0.3128499181
	    H    -1.5767873764   0.6692569564  -0.9008388215
	    C    -1.3875966937   0.9295702020   0.1532115357
	    H     0.6694939343   1.5315507504  -0.1430189187
	    H     0.2486113380   1.2082980390   1.5396683051
	    C     0.0999911451   0.8418354170   0.5083461449
	    H     1.7618289644  -0.5212528192   0.7187705657
	    H     0.1983940297  -1.2349608527   1.1179617323
	    C     0.7061024820  -0.5663629570   0.3971839300
	    H     1.1380570634  -2.1667746741  -1.0270233097
	    H     1.1209927612  -0.5419154171  -1.7522081025
	    H    -0.4075095899  -1.3473660373  -1.3282374214
	    C     0.6327241327  -1.1875394014  -1.0012010888
	Saving final (previous) structure.
			--------------------------
			 OPTKING Finished Execution 
			--------------------------

    Final optimized geometry and variables:
    Molecular point group: c1
    Full point group: C1

    Geometry (in Angstrom), charge = 0, multiplicity = 1:

    H           -1.989158872147     0.245233200492     0.776950916037
    H           -1.773802711673     1.949522528081     0.312849918065
    H           -1.576787376379     0.669256956427    -0.900838821499
    C           -1.387596693656     0.929570202042     0.153211535728
    H            0.669493934297     1.531550750421    -0.143018918657
    H            0.248611337969     1.208298039049     1.539668305121
    C            0.099991145064     0.841835416972     0.508346144945
    H            1.761828964379    -0.521252819193     0.718770565681
    H            0.198394029692    -1.234960852683     1.117961732309
    C            0.706102482047    -0.566362956952     0.397183930034
    H            1.138057063368    -2.166774674075    -1.027023309711
    H            1.120992761247    -0.541915417064    -1.752208102531
    H           -0.407509589926    -1.347366037347    -1.328237421361
    C            0.632724132655    -1.187539401418    -1.001201088814

	Cleaning optimization helper files.

*** Psi4 exiting successfully. Buy a developer a beer!
