    -----------------------------------------------------------------------
          Psi4: An Open-Source Ab Initio Electronic Structure Package
                              Psi4 1.0.0 Driver

                          Git: Rev {master} 6a9a71b 

    J. M. Turney, A. C. Simmonett, R. M. Parrish, E. G. Hohenstein,
    F. A. Evangelista, J. T. Fermann, B. J. Mintz, L. A. Burns, J. J. Wilke,
    M. L. Abrams, N. J. Russ, M. L. Leininger, C. L. Janssen, E. T. Seidl,
    W. D. Allen, H. F. Schaefer, R. A. King, E. F. Valeev, C. D. Sherrill,
    and T. D. Crawford, WIREs Comput. Mol. Sci. 2, 556-565 (2012)
    (doi: 10.1002/wcms.93)

                         Additional Contributions by
    A. E. DePrince, U. Bozkaya, A. Yu. Sokolov, D. G. A. Smith, R. Di Remigio,
    R. M. Richard, J. F. Gonthier, H. R. McAlexander, M. Saitow, and
    B. P. Pritchard
    -----------------------------------------------------------------------


    Psi4 started on: Mon Feb 20 17:19:31 2017

    Process ID:  27963
    PSI4DATADIR: /Users/sternc1/anaconda/share/psi4
    Memory level set to 256.000 MB

  ==> Input File <==

--------------------------------------------------------------------------

memory 1000 mb

molecule butane {
  symmetry C1
  0 1 
  H      1.604   0.760   -8.260
  H      1.745   2.388   -8.880
  H      2.043   1.024   -9.930
  C      2.142   1.395   -8.932
  H      4.169   2.051   -9.210
  H      3.731   1.788   -7.539
  C      3.631   1.416   -8.537
  H      4.081   -0.495   -7.665
  H      3.682   -0.566   -9.364
  C      4.203   -0.012   -8.612
  H      6.097   -0.940   -9.019
  H      6.222   0.606   -8.216
  H      5.822   0.534   -9.914
  C      5.700   0.052   -8.967
  units Angstrom
}

dih_string = "4 7 10 14 150"
set optking fixed_dihedral = $dih_string

optimize('MP2/6-31G(d)')
--------------------------------------------------------------------------

  Memory set to 1000.000 MiB by Python script.
gradient() will perform analytic gradient computation.
    SCF Algorithm Type (re)set to DF.

*** tstart() called on lski1497
*** at Mon Feb 20 17:19:33 2017


         ---------------------------------------------------------
                                   SCF
            by Justin Turney, Rob Parrish, and Andy Simmonett
                              RHF Reference
                        1 Threads,   1000 MiB Core
         ---------------------------------------------------------

  ==> Geometry <==

    Molecular point group: c1
    Full point group: C1

    Geometry (in Angstrom), charge = 0, multiplicity = 1:

       Center              X                  Y                   Z               Mass       
    ------------   -----------------  -----------------  -----------------  -----------------
           H         -2.315104117293     0.046859560152     0.508542036563     1.007825032070
           H         -2.174104117293     1.674859560152    -0.111457963437     1.007825032070
           H         -1.876104117293     0.310859560152    -1.161457963437     1.007825032070
           C         -1.777104117293     0.681859560152    -0.163457963437    12.000000000000
           H          0.249895882707     1.337859560152    -0.441457963437     1.007825032070
           H         -0.188104117293     1.074859560152     1.229542036563     1.007825032070
           C         -0.288104117293     0.702859560152     0.231542036563    12.000000000000
           H          0.161895882707    -1.208140439848     1.103542036563     1.007825032070
           H         -0.237104117293    -1.279140439848    -0.595457963437     1.007825032070
           C          0.283895882707    -0.725140439848     0.156542036563    12.000000000000
           H          2.177895882707    -1.653140439848    -0.250457963437     1.007825032070
           H          2.302895882707    -0.107140439848     0.552542036563     1.007825032070
           H          1.902895882707    -0.179140439848    -1.145457963437     1.007825032070
           C          1.780895882707    -0.661140439848    -0.198457963437    12.000000000000

  Running in c1 symmetry.

  Rotational constants: A =      0.71022  B =      0.12636  C =      0.11998 [cm^-1]
  Rotational constants: A =  21291.88740  B =   3788.24643  C =   3596.80358 [MHz]
  Nuclear repulsion =  132.013618113634067

  Charge       = 0
  Multiplicity = 1
  Electrons    = 34
  Nalpha       = 17
  Nbeta        = 17

  ==> Algorithm <==

  SCF Algorithm Type is DF.
  DIIS enabled.
  MOM disabled.
  Fractional occupation disabled.
  Guess Type is SAD.
  Energy threshold   = 1.00e-10
  Density threshold  = 1.00e-10
  Integral threshold = 0.00e+00

  ==> Primary Basis <==

  Basis Set: 6-31G(D)
    Number of shells: 44
    Number of basis function: 80
    Number of Cartesian functions: 80
    Spherical Harmonics?: false
    Max angular momentum: 2

  ==> Pre-Iterations <==

   -------------------------------------------------------
    Irrep   Nso     Nmo     Nalpha   Nbeta   Ndocc  Nsocc
   -------------------------------------------------------
     A         80      80       0       0       0       0
   -------------------------------------------------------
    Total      80      80      17      17      17       0
   -------------------------------------------------------

  ==> Integral Setup <==

  ==> DFJK: Density-Fitted J/K Matrices <==

    J tasked:                  Yes
    K tasked:                  Yes
    wK tasked:                  No
    OpenMP threads:              1
    Integrals threads:           1
    Memory (MB):               715
    Algorithm:                Core
    Integral Cache:           NONE
    Schwarz Cutoff:          1E-12
    Fitting Condition:       1E-12

   => Auxiliary Basis Set <=

  Basis Set: 
    Number of shells: 186
    Number of basis function: 574
    Number of Cartesian functions: 574
    Spherical Harmonics?: false
    Max angular momentum: 3

  Minimum eigenvalue in the overlap matrix is 4.5475591800E-03.
  Using Symmetric Orthogonalization.
  SCF Guess: Superposition of Atomic Densities via on-the-fly atomic UHF.

  ==> Iterations <==

                           Total Energy        Delta E     RMS |[F,P]|

   @DF-RHF iter   0:  -158.96837872495135   -1.58968e+02   4.74322e-02 
   @DF-RHF iter   1:  -157.20481233632879    1.76357e+00   3.89151e-03 
   @DF-RHF iter   2:  -157.28260373996622   -7.77914e-02   1.09654e-03 DIIS
   @DF-RHF iter   3:  -157.29061547648544   -8.01174e-03   2.48248e-04 DIIS
   @DF-RHF iter   4:  -157.29094760469465   -3.32128e-04   7.63371e-05 DIIS
   @DF-RHF iter   5:  -157.29098226805226   -3.46634e-05   1.24570e-05 DIIS
   @DF-RHF iter   6:  -157.29098338182720   -1.11377e-06   2.57893e-06 DIIS
   @DF-RHF iter   7:  -157.29098341333477   -3.15076e-08   6.82180e-07 DIIS
   @DF-RHF iter   8:  -157.29098341580701   -2.47223e-09   1.02464e-07 DIIS
   @DF-RHF iter   9:  -157.29098341590006   -9.30527e-11   2.34997e-08 DIIS
   @DF-RHF iter  10:  -157.29098341590495   -4.88853e-12   4.91624e-09 DIIS
   @DF-RHF iter  11:  -157.29098341590557   -6.25278e-13   1.41749e-09 DIIS
   @DF-RHF iter  12:  -157.29098341590523    3.41061e-13   3.79376e-10 DIIS
   @DF-RHF iter  13:  -157.29098341590540   -1.70530e-13   7.72128e-11 DIIS

  ==> Post-Iterations <==

    Orbital Energies (a.u.)
    -----------------------

    Doubly Occupied:                                                      

       1A    -11.207184     2A    -11.206601     3A    -11.200389  
       4A    -11.200191     5A     -1.071025     6A     -0.980930  
       7A     -0.862455     8A     -0.794579     9A     -0.645269  
      10A     -0.587712    11A     -0.586590    12A     -0.562488  
      13A     -0.513553    14A     -0.507066    15A     -0.471354  
      16A     -0.468946    17A     -0.440962  

    Virtual:                                                              

      18A      0.234465    19A      0.267239    20A      0.291196  
      21A      0.299797    22A      0.326515    23A      0.336960  
      24A      0.337103    25A      0.348550    26A      0.352106  
      27A      0.357158    28A      0.419059    29A      0.437777  
      30A      0.440519    31A      0.702407    32A      0.718551  
      33A      0.744546    34A      0.757799    35A      0.775160  
      36A      0.845046    37A      0.847640    38A      0.932208  
      39A      0.948236    40A      1.013489    41A      1.076306  
      42A      1.078354    43A      1.163254    44A      1.193592  
      45A      1.198790    46A      1.208430    47A      1.215905  
      48A      1.222272    49A      1.246172    50A      1.256029  
      51A      1.263627    52A      1.288931    53A      1.293591  
      54A      1.542814    55A      1.653245    56A      1.724513  
      57A      1.753476    58A      1.927867    59A      1.950095  
      60A      2.132387    61A      2.195326    62A      2.227629  
      63A      2.293172    64A      2.315697    65A      2.333063  
      66A      2.427780    67A      2.536977    68A      2.635212  
      69A      2.656534    70A      2.676850    71A      2.727865  
      72A      2.752346    73A      2.774777    74A      2.887281  
      75A      3.011451    76A      3.105181    77A      4.578489  
      78A      4.675427    79A      4.800711    80A      4.962482  

    Final Occupation by Irrep:
              A 
    DOCC [    17 ]

  Energy converged.

  @DF-RHF Final Energy:  -157.29098341590540

   => Energetics <=

    Nuclear Repulsion Energy =            132.0136181136340667
    One-Electron Energy =                -471.9946148558880168
    Two-Electron Energy =                 182.6900133263484065
    DFT Exchange-Correlation Energy =       0.0000000000000000
    Empirical Dispersion Energy =           0.0000000000000000
    PCM Polarization Energy =               0.0000000000000000
    EFP Energy =                            0.0000000000000000
    Total Energy =                       -157.2909834159055720


  Saving occupied orbitals to File 180.

*** tstop() called on lski1497 at Mon Feb 20 17:19:40 2017
Module time:
	user time   =       4.72 seconds =       0.08 minutes
	system time =       0.16 seconds =       0.00 minutes
	total time  =          7 seconds =       0.12 minutes
Total time:
	user time   =       4.72 seconds =       0.08 minutes
	system time =       0.16 seconds =       0.00 minutes
	total time  =          7 seconds =       0.12 minutes


Properties will be evaluated at   0.000000,   0.000000,   0.000000 Bohr

Properties computed using the SCF density matrix

  Nuclear Dipole Moment: (a.u.)
     X:     0.0046      Y:     0.0174      Z:    -0.2921

  Electronic Dipole Moment: (a.u.)
     X:    -0.0046      Y:    -0.0191      Z:     0.3133

  Dipole Moment: (a.u.)
     X:     0.0000      Y:    -0.0017      Z:     0.0212     Total:     0.0212

  Dipole Moment: (Debye)
     X:     0.0000      Y:    -0.0042      Z:     0.0538     Total:     0.0540


  //>>>>>>>>>>>>>>>>>>>>>>>>>>>>>>>>>>>//
  //               DFMP2               //
  //<<<<<<<<<<<<<<<<<<<<<<<<<<<<<<<<<<<//


*** tstart() called on lski1497
*** at Mon Feb 20 17:19:40 2017


*** tstop() called on lski1497 at Mon Feb 20 17:19:41 2017
Module time:
	user time   =       0.55 seconds =       0.01 minutes
	system time =       0.00 seconds =       0.00 minutes
	total time  =          1 seconds =       0.02 minutes
Total time:
	user time   =       5.28 seconds =       0.09 minutes
	system time =       0.16 seconds =       0.00 minutes
	total time  =          8 seconds =       0.13 minutes
	 --------------------------------------------------------
	                          DF-MP2                         
	      2nd-Order Density-Fitted Moller-Plesset Theory     
	              RMP2 Wavefunction,   1 Threads             
	                                                         
	        Rob Parrish, Justin Turney, Andy Simmonett,      
	           Ed Hohenstein, and C. David Sherrill          
	 --------------------------------------------------------

   => Auxiliary Basis Set <=

  Basis Set: 
    Number of shells: 132
    Number of basis function: 364
    Number of Cartesian functions: 414
    Spherical Harmonics?: true
    Max angular momentum: 3

	 --------------------------------------------------------
	                 NBF =    80, NAUX =   364
	 --------------------------------------------------------
	   CLASS    FOCC     OCC    AOCC    AVIR     VIR    FVIR
	   PAIRS       0      17      17      63      63       0
	 --------------------------------------------------------

DGAS Warning! /src/lib/libfock/apps.cc:80 is not currently checking restricted

         ------------------------------------------------------------
                                     CPHF                           
                                  Rob Parrish                       
         ------------------------------------------------------------

  ==> Geometry <==

    Molecular point group: c1
    Full point group: C1

    Geometry (in Angstrom), charge = 0, multiplicity = 1:

       Center              X                  Y                   Z               Mass       
    ------------   -----------------  -----------------  -----------------  -----------------
           H         -2.315104117293     0.046859560152     0.508542036563     1.007825032070
           H         -2.174104117293     1.674859560152    -0.111457963437     1.007825032070
           H         -1.876104117293     0.310859560152    -1.161457963437     1.007825032070
           C         -1.777104117293     0.681859560152    -0.163457963437    12.000000000000
           H          0.249895882707     1.337859560152    -0.441457963437     1.007825032070
           H         -0.188104117293     1.074859560152     1.229542036563     1.007825032070
           C         -0.288104117293     0.702859560152     0.231542036563    12.000000000000
           H          0.161895882707    -1.208140439848     1.103542036563     1.007825032070
           H         -0.237104117293    -1.279140439848    -0.595457963437     1.007825032070
           C          0.283895882707    -0.725140439848     0.156542036563    12.000000000000
           H          2.177895882707    -1.653140439848    -0.250457963437     1.007825032070
           H          2.302895882707    -0.107140439848     0.552542036563     1.007825032070
           H          1.902895882707    -0.179140439848    -1.145457963437     1.007825032070
           C          1.780895882707    -0.661140439848    -0.198457963437    12.000000000000

  Nuclear repulsion =  132.013618113634067
  Reference energy  = -157.290983415905401

  ==> Basis Set <==

  Basis Set: 6-31G(D)
    Number of shells: 44
    Number of basis function: 80
    Number of Cartesian functions: 80
    Spherical Harmonics?: false
    Max angular momentum: 2

  ==> CGRSolver (by Rob Parrish) <==

   Number of roots    =         1
   Preconditioning    =    JACOBI
   Convergence cutoff =     1E-06
   Maximum iterations =       100

  ==> CPHFRHamiltonian (by Rob Parrish) <== 

  ==> DFJK: Density-Fitted J/K Matrices <==

    J tasked:                  Yes
    K tasked:                  Yes
    wK tasked:                  No
    OpenMP threads:              1
    Integrals threads:           1
    Memory (MB):               715
    Algorithm:                Core
    Integral Cache:           NONE
    Schwarz Cutoff:          1E-12
    Fitting Condition:       1E-12

   => Auxiliary Basis Set <=

  Basis Set: 
    Number of shells: 186
    Number of basis function: 574
    Number of Cartesian functions: 574
    Spherical Harmonics?: false
    Max angular momentum: 3

  ==> CPHF Iterations <==

  => Iterations <=

             Iter  Converged  Remaining    Residual
  CGR           1          0          1   7.279E-02
  CGR           2          0          1   8.777E-03
  CGR           3          0          1   2.765E-03
  CGR           4          0          1   3.772E-04
  CGR           5          0          1   6.624E-05
  CGR           6          0          1   1.580E-05
  CGR           7          0          1   3.001E-06
  CGR           8          1          0   5.874E-07

    CGRSolver converged.

  ==> DFCorrGrad: Density-Fitted Correlated Gradients <==

    OpenMP threads:              1
    Integrals threads:           1
    Memory (MB):               715
    Schwarz Cutoff:          0E+00
    Fitting Condition:       1E-12

   => Auxiliary Basis Set <=

  Basis Set: 
    Number of shells: 186
    Number of basis function: 510
    Number of Cartesian functions: 574
    Spherical Harmonics?: true
    Max angular momentum: 3

	-----------------------------------------------------------
	 ==================> DF-MP2 Energies <==================== 
	-----------------------------------------------------------
	 Reference Energy          =    -157.2909834159054014 [Eh]
	 Singles Energy            =      -0.0000000000000000 [Eh]
	 Same-Spin Energy          =      -0.1243857402613419 [Eh]
	 Opposite-Spin Energy      =      -0.4202669848637329 [Eh]
	 Correlation Energy        =      -0.5446527251250748 [Eh]
	 Total Energy              =    -157.8356361410304771 [Eh]
	-----------------------------------------------------------
	 ================> DF-SCS-MP2 Energies <================== 
	-----------------------------------------------------------
	 SCS Same-Spin Scale       =       0.3333333333333333 [-]
	 SCS Opposite-Spin Scale   =       1.2000000000000000 [-]
	 SCS Same-Spin Energy      =      -0.0414619134204473 [Eh]
	 SCS Opposite-Spin Energy  =      -0.5043203818364794 [Eh]
	 SCS Correlation Energy    =      -0.5457822952569267 [Eh]
	 SCS Total Energy          =    -157.8367657111623146 [Eh]
	-----------------------------------------------------------


  -Total Gradient:
     Atom            X                  Y                   Z
    ------   -----------------  -----------------  -----------------
       1        0.010832836043     0.009557099410    -0.008910866121
       2        0.010665983761    -0.013645859044     0.000281868893
       3        0.003927151358     0.005449420554     0.015400303881
       4       -0.026695115655    -0.008169300708    -0.010265762671
       5       -0.008603601441    -0.011966962388     0.008963710512
       6       -0.004339815386    -0.009478413810    -0.014768367884
       7        0.024155263475     0.030172497441     0.009556078888
       8        0.004688815184     0.010983234686    -0.013340705637
       9        0.008692975523     0.011115100392     0.010923082444
      10       -0.024293189598    -0.031206936645     0.004638234630
      11       -0.010954747181     0.014208171386     0.001619421377
      12       -0.010679061430    -0.008616856837    -0.010480443561
      13       -0.004216486190    -0.007045359463     0.014459637940
      14        0.026818991538     0.008644165029    -0.008076192689


			-----------------------------------------
			 OPTKING 2.0: for geometry optimizations 
			  - R.A. King,  Bethel University        
			-----------------------------------------

	Internal coordinates to be generated automatically.
	Detected frag 1 with atoms:  1 2 3 4 5 6 7 8 9 10 11 12 13 14
	---Fragment 1 Bond Connectivity---
	 1 : 4
	 2 : 4
	 3 : 4
	 4 : 1 2 3 7
	 5 : 7
	 6 : 7
	 7 : 4 5 6 10
	 8 : 10
	 9 : 10
	 10 : 7 8 9 14
	 11 : 14
	 12 : 14
	 13 : 14
	 14 : 10 11 12 13

	Assuming in current code that numbering for constraints corresponds to unified fragment.
	Fixed dihedral atom list: 
	     4     7    10    14
	---Fragment 1 Geometry and Gradient---
	 H          -4.3749127508        0.0885517354        0.9610051762
	 H          -4.1084613661        3.1650258797       -0.2106250262
	 H          -3.5453229785        0.5874394345       -2.1948374658
	 C          -3.3582400913        1.2885278298       -0.3088907851
	 H           0.4722347801        2.5281881730       -0.8342346501
	 H          -0.3554652662        2.0311902000        2.3234977180
	 C          -0.5444378794        1.3282120786        0.4375510374
	 H           0.3059388804       -2.2830545614        2.0853922252
	 H          -0.4480618467       -2.4172251168       -1.1252524745
	 C           0.5364854686       -1.3703168392        0.2958215774
	 H           4.1156267643       -3.1239826905       -0.4732969587
	 H           4.3518425309       -0.2024660891        1.0441531260
	 H           3.5959520777       -0.3385263706       -2.1646018476
	 C           3.3654054895       -1.2493743667       -0.3750311998
	             0.0108328360        0.0095570994       -0.0089108661
	             0.0106659838       -0.0136458590        0.0002818689
	             0.0039271514        0.0054494206        0.0154003039
	            -0.0266951157       -0.0081693007       -0.0102657627
	            -0.0086036014       -0.0119669624        0.0089637105
	            -0.0043398154       -0.0094784138       -0.0147683679
	             0.0241552635        0.0301724974        0.0095560789
	             0.0046888152        0.0109832347       -0.0133407056
	             0.0086929755        0.0111151004        0.0109230824
	            -0.0242931896       -0.0312069366        0.0046382346
	            -0.0109547472        0.0142081714        0.0016194214
	            -0.0106790614       -0.0086168568       -0.0104804436
	            -0.0042164862       -0.0070453595        0.0144596379
	             0.0268189915        0.0086441650       -0.0080761927

	Previous optimization step data not found.  Starting new optimization.

	---Fragment 1 Intrafragment Coordinates---
	 - Coordinate -           - BOHR/RAD -       - ANG/DEG -
	 R(1,4)           =         2.021436	       1.069698
	 R(2,4)           =         2.023298	       1.070683
	 R(3,4)           =         2.020723	       1.069320
	 R(4,7)           =         2.911397	       1.540645
	 R(5,7)           =         2.022623	       1.070326
	 R(6,7)           =         2.021555	       1.069761
	 R(7,10)          =         2.910419	       1.540128
	 R(8,10)          =         2.022079	       1.070038
	 R(9,10)          =         2.021089	       1.069514
	 R(10,14)         =         2.909890	       1.539847
	 R(11,14)         =         2.021545	       1.069756
	 R(12,14)         =         2.020683	       1.069299
	 R(13,14)         =         2.021227	       1.069587
	 B(1,4,2)         =         1.910870	     109.484805
	 B(1,4,3)         =         1.911121	     109.499161
	 B(1,4,7)         =         1.910399	     109.457783
	 B(2,4,3)         =         1.910042	     109.437340
	 B(2,4,7)         =         1.910564	     109.467262
	 B(3,4,7)         =         1.910803	     109.480971
	 B(4,7,5)         =         1.909937	     109.431343
	 B(4,7,6)         =         1.911630	     109.528316
	 B(4,7,10)        =         1.911154	     109.501062
	 B(5,7,6)         =         1.910605	     109.469614
	 B(5,7,10)        =         1.910047	     109.437654
	 B(6,7,10)        =         1.910425	     109.459295
	 B(7,10,8)        =         1.910365	     109.455850
	 B(7,10,9)        =         1.910915	     109.487349
	 B(7,10,14)       =         1.911079	     109.496758
	 B(8,10,9)        =         1.910194	     109.446063
	 B(8,10,14)       =         1.910955	     109.489630
	 B(9,10,14)       =         1.910292	     109.451665
	 B(10,14,11)      =         1.910758	     109.478386
	 B(10,14,12)      =         1.911556	     109.524097
	 B(10,14,13)      =         1.911063	     109.495819
	 B(11,14,12)      =         1.910716	     109.475986
	 B(11,14,13)      =         1.909768	     109.421674
	 B(12,14,13)      =         1.909937	     109.431304
	 D(1,4,7,5)       =         3.140997	     179.965873
	 D(1,4,7,6)       =        -1.047644	     -60.025575
	 D(1,4,7,10)      =         1.047427	      60.013132
	 D(2,4,7,5)       =        -1.047689	     -60.028143
	 D(2,4,7,6)       =         1.046856	      59.980409
	 D(2,4,7,10)      =        -3.141259	    -179.980883
	 D(3,4,7,5)       =         1.046044	      59.933911
	 D(3,4,7,6)       =         3.140588	     179.942463
	 D(3,4,7,10)      =        -1.047526	     -60.018830
	 D(4,7,10,8)      =        -1.570087	     -89.959382
	 D(4,7,10,9)      =         0.523778	      30.010270
	 D(4,7,10,14)     =         2.618201	     150.011845
	 D(5,7,10,8)      =         2.619595	     150.091742
	 D(5,7,10,9)      =        -1.569725	     -89.938606
	 D(5,7,10,14)     =         0.524698	      30.062970
	 D(6,7,10,8)      =         0.525720	      30.121544
	 D(6,7,10,9)      =         2.619586	     150.091196
	 D(6,7,10,14)     =        -1.569177	     -89.907229
	 D(7,10,14,11)    =         3.141576	     179.999054
	 D(7,10,14,12)    =         1.046437	      59.956407
	 D(7,10,14,13)    =        -1.047934	     -60.042179
	 D(8,10,14,11)    =         1.047040	      59.990954
	 D(8,10,14,12)    =        -1.048100	     -60.051694
	 D(8,10,14,13)    =         3.140715	     179.949720
	 D(9,10,14,11)    =        -1.046805	     -59.977532
	 D(9,10,14,12)    =         3.141240	     179.979821
	 D(9,10,14,13)    =         1.046870	      59.981235

	Current energy   :      -157.8356361410

	Generating empirical Hessian (Schlegel '84) for each fragment.
	Adding user-defined constraint: Fragment 1; Coordinate 49:
		Value =     2.618201; Fixed value    =     2.617994
		Force =    -0.000103; Force constant =     0.500000
	Removing off-diagonal coupling between coordinate 49 and others.
	Taking RFO optimization step.
	Going to follow RFO solution 1.
	Using RFO vector 1.

	Determining step-restricting scale parameter for RS-RFO.
	Maximum step size allowed    0.10000

	 Iter      |step|        alpha        rfo_root  
	------------------------------------------------
	    0     0.23874       1.00000           1
	    1     0.18033       5.00339           1
	    2     0.13766      15.69888           1
	    3     0.11239      31.84217           1
	    4     0.10199      43.23733           1
	    5     0.10007      45.82402           1
	    6     0.10000      45.91485           1
	------------------------------------------------
	Norm of target step-size    0.10000
	Projected energy change by RFO approximation:        -0.0057781929

	Back-transformation to cartesian coordinates...
	Successfully converged to displaced geometry.

	--- Internal Coordinate Step in ANG or DEG, aJ/ANG or AJ/DEG ---
	 ---------------------------------------------------------------------------
	   Coordinate                Previous        Force       Change         New 
	   ----------                --------       ------       ------       ------
	    1 R(1,4)          =      1.069698     0.137749     0.013900     1.083598
	    2 R(2,4)          =      1.070683     0.136737     0.013825     1.084508
	    3 R(3,4)          =      1.069320     0.136989     0.013813     1.083134
	    4 R(4,7)          =      1.540645    -0.018250    -0.002137     1.538508
	    5 R(5,7)          =      1.070326     0.140557     0.014202     1.084528
	    6 R(6,7)          =      1.069761     0.144008     0.014534     1.084295
	    7 R(7,10)         =      1.540128     0.015661     0.001833     1.541960
	    8 R(8,10)         =      1.070038     0.142521     0.014392     1.084430
	    9 R(9,10)         =      1.069514     0.145598     0.014687     1.084202
	   10 R(10,14)        =      1.539847    -0.014925    -0.001746     1.538102
	   11 R(11,14)        =      1.069756     0.142690     0.014401     1.084156
	   12 R(12,14)        =      1.069299     0.140375     0.014154     1.083454
	   13 R(13,14)        =      1.069587     0.135596     0.013680     1.083267
	   14 B(1,4,2)        =    109.484805    -0.000306    -0.538317   108.946487
	   15 B(1,4,3)        =    109.499161    -0.000206    -0.388547   109.110614
	   16 B(1,4,7)        =    109.457783     0.000192     0.334660   109.792443
	   17 B(2,4,3)        =    109.437340    -0.000278    -0.491100   108.946240
	   18 B(2,4,7)        =    109.467262     0.000470     0.846183   110.313445
	   19 B(3,4,7)        =    109.480971     0.000129     0.225168   109.706140
	   20 B(4,7,5)        =    109.431343    -0.000191    -0.299952   109.131391
	   21 B(4,7,6)        =    109.528316    -0.000212    -0.286449   109.241867
	   22 B(4,7,10)       =    109.501062     0.000772     1.262647   110.763709
	   23 B(5,7,6)        =    109.469614    -0.000022    -0.216420   109.253194
	   24 B(5,7,10)       =    109.437654    -0.000171    -0.224642   109.213012
	   25 B(6,7,10)       =    109.459295    -0.000177    -0.243037   109.216258
	   26 B(7,10,8)       =    109.455850    -0.000180    -0.247318   109.208532
	   27 B(7,10,9)       =    109.487349    -0.000176    -0.235897   109.251452
	   28 B(7,10,14)      =    109.496758     0.000777     1.270177   110.766936
	   29 B(8,10,9)       =    109.446063    -0.000020    -0.212678   109.233386
	   30 B(8,10,14)      =    109.489630    -0.000209    -0.280034   109.209595
	   31 B(9,10,14)      =    109.451665    -0.000193    -0.302528   109.149138
	   32 B(10,14,11)     =    109.478386     0.000470     0.846819   110.325205
	   33 B(10,14,12)     =    109.524097     0.000179     0.311692   109.835789
	   34 B(10,14,13)     =    109.495819     0.000127     0.222008   109.717826
	   35 B(11,14,12)     =    109.475986    -0.000302    -0.531591   108.944396
	   36 B(11,14,13)     =    109.421674    -0.000277    -0.489136   108.932538
	   37 B(12,14,13)     =    109.431304    -0.000198    -0.373040   109.058264
	   38 D(1,4,7,5)      =    179.965873     0.000023     0.212256   180.178129
	   39 D(1,4,7,6)      =    -60.025575    -0.000040    -0.405946   -60.431521
	   40 D(1,4,7,10)     =     60.013132    -0.000011    -0.102326    59.910806
	   41 D(2,4,7,5)      =    -60.028143     0.000030     0.283766   -59.744377
	   42 D(2,4,7,6)      =     59.980409    -0.000033    -0.334436    59.645973
	   43 D(2,4,7,10)     =   -179.980883    -0.000004    -0.030817  -180.011700
	   44 D(3,4,7,5)      =     59.933911     0.000036     0.344068    60.277978
	   45 D(3,4,7,6)      =    179.942463    -0.000027    -0.274135   179.668328
	   46 D(3,4,7,10)     =    -60.018830     0.000002     0.029485   -59.989345
	   47 D(4,7,10,8)     =    -89.959382     0.000043     0.418908   -89.540474
	   48 D(4,7,10,9)     =     30.010270    -0.000013    -0.132725    29.877545
	   49 D(4,7,10,14)    =    150.011845     0.000018     0.133035   150.144881
	   50 D(5,7,10,8)     =    150.091742     0.000012     0.149137   150.240880
	   51 D(5,7,10,9)     =    -89.938606    -0.000043    -0.402496   -90.341101
	   52 D(5,7,10,14)    =     30.062970    -0.000013    -0.136736    29.926234
	   53 D(6,7,10,8)     =     30.121544     0.000067     0.695566    30.817109
	   54 D(6,7,10,9)     =    150.091196     0.000012     0.143933   150.235129
	   55 D(6,7,10,14)    =    -89.907229     0.000042     0.409693   -89.497536
	   56 D(7,10,14,11)   =    179.999054    -0.000003    -0.028623   179.970431
	   57 D(7,10,14,12)   =     59.956407    -0.000010    -0.095902    59.860505
	   58 D(7,10,14,13)   =    -60.042179     0.000003     0.032810   -60.009369
	   59 D(8,10,14,11)   =     59.990954    -0.000033    -0.334534    59.656419
	   60 D(8,10,14,12)   =    -60.051694    -0.000039    -0.401813   -60.453507
	   61 D(8,10,14,13)   =    179.949720    -0.000027    -0.273101   179.676619
	   62 D(9,10,14,11)   =    -59.977532     0.000029     0.276278   -59.701254
	   63 D(9,10,14,12)   =    179.979821     0.000023     0.208999   180.188820
	   64 D(9,10,14,13)   =     59.981235     0.000035     0.337711    60.318946
	 ---------------------------------------------------------------------------
	 Forces used to impose fixed constraints are not included.
	  Forces zeroed: 49 

  ==> Convergence Check <==

  Measures of convergence in internal coordinates in au.
  Criteria marked as inactive (o), active & met (*), and active & unmet ( ).
  --------------------------------------------------------------------------------------------- ~
   Step     Total Energy     Delta E     MAX Force     RMS Force      MAX Disp      RMS Disp    ~
  --------------------------------------------------------------------------------------------- ~
    Convergence Criteria    1.00e-06 *    3.00e-04 *             o    1.20e-03 *             o  ~
  --------------------------------------------------------------------------------------------- ~
      1    -157.83563614   -1.58e+02      1.77e-02      7.30e-03 o    2.78e-02      1.25e-02 o  ~
  ---------------------------------------------------------------------------------------------

	Writing optimization data to binary file.
	Structure for next step:
	Cartesian Geometry (in Angstrom)
	    H    -2.3394586821   0.0335715547   0.5141462327
	    H    -2.2068734779   1.6802093474  -0.1059094075
	    H    -1.8994229105   0.3094047497  -1.1729099118
	    C    -1.7912249488   0.6800254677  -0.1609255982
	    H     0.2345807886   1.3499128135  -0.4511965247
	    H    -0.2028862842   1.0754427076   1.2401654249
	    C    -0.3029642172   0.6979451146   0.2286444046
	    H     0.1762698528  -1.2102000964   1.1136553194
	    H    -0.2220495664  -1.2896376282  -0.6071383458
	    C     0.2986958526  -0.7198366940   0.1542053102
	    H     2.2108551505  -1.6595746217  -0.2459538917
	    H     2.3272593942  -0.0948013692   0.5602045333
	    H     1.9265804562  -0.1759106805  -1.1563889832
	    C     1.7951809502  -0.6595168229  -0.1960100502
			--------------------------
			 OPTKING Finished Execution 
			--------------------------

    Structure for next step:
    Molecular point group: c1
    Full point group: C1

    Geometry (in Angstrom), charge = 0, multiplicity = 1:

    H           -2.339478385717     0.033537709459     0.514194321088
    H           -2.206893181440     1.680175502165    -0.105861319115
    H           -1.899442614095     0.309370904496    -1.172861823393
    C           -1.791244652373     0.679991622457    -0.160877509842
    H            0.234561085018     1.349878968231    -0.451148436333
    H           -0.202905987759     1.075408862364     1.240213513264
    C           -0.302983920827     0.697911269317     0.228692493046
    H            0.176250149239    -1.210233941696     1.113703407817
    H           -0.222069269976    -1.289671473468    -0.607090257369
    C            0.298676148969    -0.719870539290     0.154253398578
    H            2.210835446897    -1.659608466985    -0.245905803345
    H            2.327239690622    -0.094835214466     0.560252621689
    H            1.926560752612    -0.175944525778    -1.156340894758
    C            1.795161246569    -0.659550668133    -0.195961961786

gradient() will perform analytic gradient computation.
    SCF Algorithm Type (re)set to DF.

*** tstart() called on lski1497
*** at Mon Feb 20 17:20:06 2017


         ---------------------------------------------------------
                                   SCF
            by Justin Turney, Rob Parrish, and Andy Simmonett
                              RHF Reference
                        1 Threads,   1000 MiB Core
         ---------------------------------------------------------

  ==> Geometry <==

    Molecular point group: c1
    Full point group: C1

    Geometry (in Angstrom), charge = 0, multiplicity = 1:

       Center              X                  Y                   Z               Mass       
    ------------   -----------------  -----------------  -----------------  -----------------
           H         -2.339478385717     0.033537709459     0.514194321088     1.007825032070
           H         -2.206893181440     1.680175502165    -0.105861319115     1.007825032070
           H         -1.899442614095     0.309370904496    -1.172861823393     1.007825032070
           C         -1.791244652373     0.679991622457    -0.160877509842    12.000000000000
           H          0.234561085018     1.349878968231    -0.451148436333     1.007825032070
           H         -0.202905987759     1.075408862364     1.240213513264     1.007825032070
           C         -0.302983920827     0.697911269317     0.228692493046    12.000000000000
           H          0.176250149239    -1.210233941696     1.113703407817     1.007825032070
           H         -0.222069269976    -1.289671473468    -0.607090257369     1.007825032070
           C          0.298676148969    -0.719870539290     0.154253398578    12.000000000000
           H          2.210835446897    -1.659608466985    -0.245905803345     1.007825032070
           H          2.327239690622    -0.094835214466     0.560252621689     1.007825032070
           H          1.926560752612    -0.175944525778    -1.156340894758     1.007825032070
           C          1.795161246569    -0.659550668133    -0.195961961786    12.000000000000

  Running in c1 symmetry.

  Rotational constants: A =      0.71153  B =      0.12430  C =      0.11830 [cm^-1]
  Rotational constants: A =  21331.15342  B =   3726.42884  C =   3546.55353 [MHz]
  Nuclear repulsion =  131.155024882243623

  Charge       = 0
  Multiplicity = 1
  Electrons    = 34
  Nalpha       = 17
  Nbeta        = 17

  ==> Algorithm <==

  SCF Algorithm Type is DF.
  DIIS enabled.
  MOM disabled.
  Fractional occupation disabled.
  Guess Type is READ.
  Energy threshold   = 1.00e-10
  Density threshold  = 1.00e-10
  Integral threshold = 0.00e+00

  ==> Primary Basis <==

  Basis Set: 6-31G(D)
    Number of shells: 44
    Number of basis function: 80
    Number of Cartesian functions: 80
    Spherical Harmonics?: false
    Max angular momentum: 2

  ==> Pre-Iterations <==

   -------------------------------------------------------
    Irrep   Nso     Nmo     Nalpha   Nbeta   Ndocc  Nsocc
   -------------------------------------------------------
     A         80      80       0       0       0       0
   -------------------------------------------------------
    Total      80      80      17      17      17       0
   -------------------------------------------------------

  ==> Integral Setup <==

  ==> DFJK: Density-Fitted J/K Matrices <==

    J tasked:                  Yes
    K tasked:                  Yes
    wK tasked:                  No
    OpenMP threads:              1
    Integrals threads:           1
    Memory (MB):               715
    Algorithm:                Core
    Integral Cache:           NONE
    Schwarz Cutoff:          1E-12
    Fitting Condition:       1E-12

   => Auxiliary Basis Set <=

  Basis Set: 
    Number of shells: 186
    Number of basis function: 574
    Number of Cartesian functions: 574
    Spherical Harmonics?: false
    Max angular momentum: 3

  Minimum eigenvalue in the overlap matrix is 4.6342512460E-03.
  Using Symmetric Orthogonalization.
  SCF Guess was Projection but file not found.
  Switching over to SAD guess.

  SCF Guess: Superposition of Atomic Densities via on-the-fly atomic UHF.

  ==> Iterations <==

                           Total Energy        Delta E     RMS |[F,P]|

   @DF-RHF iter   0:  -158.86827997073343   -1.58868e+02   4.65111e-02 
   @DF-RHF iter   1:  -157.20691855892173    1.66136e+00   3.86713e-03 
   @DF-RHF iter   2:  -157.28529458738993   -7.83760e-02   1.10786e-03 DIIS
   @DF-RHF iter   3:  -157.29353828702554   -8.24370e-03   2.54162e-04 DIIS
   @DF-RHF iter   4:  -157.29389028181723   -3.51995e-04   7.50982e-05 DIIS
   @DF-RHF iter   5:  -157.29392587879707   -3.55970e-05   1.22283e-05 DIIS
   @DF-RHF iter   6:  -157.29392696844977   -1.08965e-06   2.58671e-06 DIIS
   @DF-RHF iter   7:  -157.29392699971973   -3.12700e-08   7.20117e-07 DIIS
   @DF-RHF iter   8:  -157.29392700240490   -2.68517e-09   1.06019e-07 DIIS
   @DF-RHF iter   9:  -157.29392700250381   -9.89075e-11   2.50429e-08 DIIS
   @DF-RHF iter  10:  -157.29392700250938   -5.57066e-12   5.03784e-09 DIIS
   @DF-RHF iter  11:  -157.29392700250961   -2.27374e-13   1.10054e-09 DIIS
   @DF-RHF iter  12:  -157.29392700250955    5.68434e-14   3.44048e-10 DIIS
   @DF-RHF iter  13:  -157.29392700250938    1.70530e-13   8.89681e-11 DIIS

  ==> Post-Iterations <==

    Orbital Energies (a.u.)
    -----------------------

    Doubly Occupied:                                                      

       1A    -11.212322     2A    -11.211755     3A    -11.206301  
       4A    -11.206219     5A     -1.068173     6A     -0.978597  
       7A     -0.859287     8A     -0.788819     9A     -0.641101  
      10A     -0.585046    11A     -0.582986    12A     -0.560697  
      13A     -0.511061    14A     -0.503431    15A     -0.466810  
      16A     -0.465352    17A     -0.446412  

    Virtual:                                                              

      18A      0.232690    19A      0.264597    20A      0.287250  
      21A      0.296575    22A      0.323863    23A      0.332518  
      24A      0.332690    25A      0.344020    26A      0.348880  
      27A      0.353202    28A      0.417802    29A      0.438611  
      30A      0.439931    31A      0.704143    32A      0.714585  
      33A      0.746144    34A      0.761295    35A      0.779228  
      36A      0.847653    37A      0.850545    38A      0.930923  
      39A      0.946513    40A      1.010019    41A      1.076150  
      42A      1.082980    43A      1.151401    44A      1.177292  
      45A      1.185566    46A      1.194402    47A      1.202105  
      48A      1.209693    49A      1.238702    50A      1.240309  
      51A      1.247762    52A      1.277011    53A      1.280802  
      54A      1.539045    55A      1.652855    56A      1.727608  
      57A      1.745071    58A      1.925412    59A      1.940678  
      60A      2.128474    61A      2.199508    62A      2.215521  
      63A      2.288605    64A      2.313397    65A      2.321373  
      66A      2.421113    67A      2.511759    68A      2.615071  
      69A      2.637977    70A      2.661791    71A      2.710158  
      72A      2.734299    73A      2.765282    74A      2.883701  
      75A      3.013556    76A      3.097190    77A      4.566057  
      78A      4.666716    79A      4.794792    80A      4.955761  

    Final Occupation by Irrep:
              A 
    DOCC [    17 ]

  Energy converged.

  @DF-RHF Final Energy:  -157.29392700250938

   => Energetics <=

    Nuclear Repulsion Energy =            131.1550248822436231
    One-Electron Energy =                -470.3091642377557946
    Two-Electron Energy =                 181.8602123530027370
    DFT Exchange-Correlation Energy =       0.0000000000000000
    Empirical Dispersion Energy =           0.0000000000000000
    PCM Polarization Energy =               0.0000000000000000
    EFP Energy =                            0.0000000000000000
    Total Energy =                       -157.2939270025094061


  Saving occupied orbitals to File 180.

*** tstop() called on lski1497 at Mon Feb 20 17:20:13 2017
Module time:
	user time   =       4.71 seconds =       0.08 minutes
	system time =       0.15 seconds =       0.00 minutes
	total time  =          7 seconds =       0.12 minutes
Total time:
	user time   =      27.46 seconds =       0.46 minutes
	system time =       0.87 seconds =       0.01 minutes
	total time  =         40 seconds =       0.67 minutes


Properties will be evaluated at   0.000000,   0.000000,   0.000000 Bohr

Properties computed using the SCF density matrix

  Nuclear Dipole Moment: (a.u.)
     X:     0.0044      Y:     0.0169      Z:    -0.2914

  Electronic Dipole Moment: (a.u.)
     X:    -0.0045      Y:    -0.0182      Z:     0.3103

  Dipole Moment: (a.u.)
     X:    -0.0001      Y:    -0.0012      Z:     0.0189     Total:     0.0189

  Dipole Moment: (Debye)
     X:    -0.0003      Y:    -0.0032      Z:     0.0480     Total:     0.0481


  //>>>>>>>>>>>>>>>>>>>>>>>>>>>>>>>>>>>//
  //               DFMP2               //
  //<<<<<<<<<<<<<<<<<<<<<<<<<<<<<<<<<<<//


*** tstart() called on lski1497
*** at Mon Feb 20 17:20:13 2017


*** tstop() called on lski1497 at Mon Feb 20 17:20:14 2017
Module time:
	user time   =       0.48 seconds =       0.01 minutes
	system time =       0.00 seconds =       0.00 minutes
	total time  =          1 seconds =       0.02 minutes
Total time:
	user time   =      27.96 seconds =       0.47 minutes
	system time =       0.87 seconds =       0.01 minutes
	total time  =         41 seconds =       0.68 minutes
	 --------------------------------------------------------
	                          DF-MP2                         
	      2nd-Order Density-Fitted Moller-Plesset Theory     
	              RMP2 Wavefunction,   1 Threads             
	                                                         
	        Rob Parrish, Justin Turney, Andy Simmonett,      
	           Ed Hohenstein, and C. David Sherrill          
	 --------------------------------------------------------

   => Auxiliary Basis Set <=

  Basis Set: 
    Number of shells: 132
    Number of basis function: 364
    Number of Cartesian functions: 414
    Spherical Harmonics?: true
    Max angular momentum: 3

	 --------------------------------------------------------
	                 NBF =    80, NAUX =   364
	 --------------------------------------------------------
	   CLASS    FOCC     OCC    AOCC    AVIR     VIR    FVIR
	   PAIRS       0      17      17      63      63       0
	 --------------------------------------------------------

DGAS Warning! /src/lib/libfock/apps.cc:80 is not currently checking restricted

         ------------------------------------------------------------
                                     CPHF                           
                                  Rob Parrish                       
         ------------------------------------------------------------

  ==> Geometry <==

    Molecular point group: c1
    Full point group: C1

    Geometry (in Angstrom), charge = 0, multiplicity = 1:

       Center              X                  Y                   Z               Mass       
    ------------   -----------------  -----------------  -----------------  -----------------
           H         -2.339478385717     0.033537709459     0.514194321088     1.007825032070
           H         -2.206893181440     1.680175502165    -0.105861319115     1.007825032070
           H         -1.899442614095     0.309370904496    -1.172861823393     1.007825032070
           C         -1.791244652373     0.679991622457    -0.160877509842    12.000000000000
           H          0.234561085018     1.349878968231    -0.451148436333     1.007825032070
           H         -0.202905987759     1.075408862364     1.240213513264     1.007825032070
           C         -0.302983920827     0.697911269317     0.228692493046    12.000000000000
           H          0.176250149239    -1.210233941696     1.113703407817     1.007825032070
           H         -0.222069269976    -1.289671473468    -0.607090257369     1.007825032070
           C          0.298676148969    -0.719870539290     0.154253398578    12.000000000000
           H          2.210835446897    -1.659608466985    -0.245905803345     1.007825032070
           H          2.327239690622    -0.094835214466     0.560252621689     1.007825032070
           H          1.926560752612    -0.175944525778    -1.156340894758     1.007825032070
           C          1.795161246569    -0.659550668133    -0.195961961786    12.000000000000

  Nuclear repulsion =  131.155024882243623
  Reference energy  = -157.293927002509378

  ==> Basis Set <==

  Basis Set: 6-31G(D)
    Number of shells: 44
    Number of basis function: 80
    Number of Cartesian functions: 80
    Spherical Harmonics?: false
    Max angular momentum: 2

  ==> CGRSolver (by Rob Parrish) <==

   Number of roots    =         1
   Preconditioning    =    JACOBI
   Convergence cutoff =     1E-06
   Maximum iterations =       100

  ==> CPHFRHamiltonian (by Rob Parrish) <== 

  ==> DFJK: Density-Fitted J/K Matrices <==

    J tasked:                  Yes
    K tasked:                  Yes
    wK tasked:                  No
    OpenMP threads:              1
    Integrals threads:           1
    Memory (MB):               715
    Algorithm:                Core
    Integral Cache:           NONE
    Schwarz Cutoff:          1E-12
    Fitting Condition:       1E-12

   => Auxiliary Basis Set <=

  Basis Set: 
    Number of shells: 186
    Number of basis function: 574
    Number of Cartesian functions: 574
    Spherical Harmonics?: false
    Max angular momentum: 3

  ==> CPHF Iterations <==

  => Iterations <=

             Iter  Converged  Remaining    Residual
  CGR           1          0          1   7.334E-02
  CGR           2          0          1   8.933E-03
  CGR           3          0          1   2.808E-03
  CGR           4          0          1   3.785E-04
  CGR           5          0          1   6.763E-05
  CGR           6          0          1   1.602E-05
  CGR           7          0          1   2.922E-06
  CGR           8          1          0   5.794E-07

    CGRSolver converged.

  ==> DFCorrGrad: Density-Fitted Correlated Gradients <==

    OpenMP threads:              1
    Integrals threads:           1
    Memory (MB):               715
    Schwarz Cutoff:          0E+00
    Fitting Condition:       1E-12

   => Auxiliary Basis Set <=

  Basis Set: 
    Number of shells: 186
    Number of basis function: 510
    Number of Cartesian functions: 574
    Spherical Harmonics?: true
    Max angular momentum: 3

	-----------------------------------------------------------
	 ==================> DF-MP2 Energies <==================== 
	-----------------------------------------------------------
	 Reference Energy          =    -157.2939270025093776 [Eh]
	 Singles Energy            =      -0.0000000000000000 [Eh]
	 Same-Spin Energy          =      -0.1242957326595496 [Eh]
	 Opposite-Spin Energy      =      -0.4215513976751307 [Eh]
	 Correlation Energy        =      -0.5458471303346804 [Eh]
	 Total Energy              =    -157.8397741328440702 [Eh]
	-----------------------------------------------------------
	 ================> DF-SCS-MP2 Energies <================== 
	-----------------------------------------------------------
	 SCS Same-Spin Scale       =       0.3333333333333333 [-]
	 SCS Opposite-Spin Scale   =       1.2000000000000000 [-]
	 SCS Same-Spin Energy      =      -0.0414319108865165 [Eh]
	 SCS Opposite-Spin Energy  =      -0.5058616772101568 [Eh]
	 SCS Correlation Energy    =      -0.5472935880966734 [Eh]
	 SCS Total Energy          =    -157.8412205906060422 [Eh]
	-----------------------------------------------------------


  -Total Gradient:
     Atom            X                  Y                   Z
    ------   -----------------  -----------------  -----------------
       1        0.005307114715     0.003857447882    -0.002752888833
       2        0.005116045060    -0.004709460624     0.000254439717
       3        0.002670975286     0.002202699376     0.006080155150
       4       -0.015645250118    -0.004721135487    -0.006717401395
       5       -0.003745849489    -0.006141056811     0.002387816353
       6       -0.003653300524    -0.006036368610    -0.004864530700
       7        0.014440177387     0.018590045137     0.005879726527
       8        0.003780329120     0.006506631086    -0.003998181543
       9        0.003794267868     0.005885976242     0.003346892204
      10       -0.014515600362    -0.019140792466     0.002931469806
      11       -0.005213884985     0.004894275041     0.000672856670
      12       -0.005228013373    -0.003543270288    -0.003435119926
      13       -0.002763527300    -0.002820254681     0.005684776533
      14        0.015656516716     0.005175264202    -0.005470010562


			-----------------------------------------
			 OPTKING 2.0: for geometry optimizations 
			  - R.A. King,  Bethel University        
			-----------------------------------------

	Previous internal coordinate definitions found.
	---Fragment 1 Geometry and Gradient---
	 H          -4.4209734428        0.0633770860        0.9716864459
	 H          -4.1704237175        3.1750715543       -0.2000489012
	 H          -3.5894263458        0.5846262830       -2.2163876379
	 C          -3.3849618300        1.2849979391       -0.3040144345
	 H           0.4432562121        2.5509015625       -0.8525469899
	 H          -0.3834367476        2.0322282307        2.3436638864
	 C          -0.5725566330        1.3188611641        0.4321661805
	 H           0.3330645129       -2.2870107065        2.1045944340
	 H          -0.4196501028       -2.4371258862       -1.1472343244
	 C           0.5644161240       -1.3603581704        0.2914966784
	 H           4.1778735195       -3.1362054904       -0.4646946228
	 H           4.3978456609       -0.1792125831        1.0587240202
	 H           3.6406722008       -0.3324869683       -2.1851676073
	 C           3.3923631204       -1.2463701335       -0.3703144402
	             0.0053071147        0.0038574479       -0.0027528888
	             0.0051160451       -0.0047094606        0.0002544397
	             0.0026709753        0.0022026994        0.0060801551
	            -0.0156452501       -0.0047211355       -0.0067174014
	            -0.0037458495       -0.0061410568        0.0023878164
	            -0.0036533005       -0.0060363686       -0.0048645307
	             0.0144401774        0.0185900451        0.0058797265
	             0.0037803291        0.0065066311       -0.0039981815
	             0.0037942679        0.0058859762        0.0033468922
	            -0.0145156004       -0.0191407925        0.0029314698
	            -0.0052138850        0.0048942750        0.0006728567
	            -0.0052280134       -0.0035432703       -0.0034351199
	            -0.0027635273       -0.0028202547        0.0056847765
	             0.0156565167        0.0051752642       -0.0054700106

	---Fragment 1 Intrafragment Coordinates---
	 - Coordinate -           - BOHR/RAD -       - ANG/DEG -
	 R(1,4)           =         2.047704	       1.083598
	 R(2,4)           =         2.049424	       1.084508
	 R(3,4)           =         2.046826	       1.083134
	 R(4,7)           =         2.907358	       1.538508
	 R(5,7)           =         2.049460	       1.084528
	 R(6,7)           =         2.049020	       1.084295
	 R(7,10)          =         2.913882	       1.541960
	 R(8,10)          =         2.049276	       1.084430
	 R(9,10)          =         2.048844	       1.084202
	 R(10,14)         =         2.906591	       1.538102
	 R(11,14)         =         2.048759	       1.084156
	 R(12,14)         =         2.047430	       1.083454
	 R(13,14)         =         2.047079	       1.083267
	 B(1,4,2)         =         1.901475	     108.946487
	 B(1,4,3)         =         1.904339	     109.110614
	 B(1,4,7)         =         1.916240	     109.792443
	 B(2,4,3)         =         1.901471	     108.946240
	 B(2,4,7)         =         1.925333	     110.313445
	 B(3,4,7)         =         1.914733	     109.706140
	 B(4,7,5)         =         1.904702	     109.131391
	 B(4,7,6)         =         1.906630	     109.241867
	 B(4,7,10)        =         1.933191	     110.763709
	 B(5,7,6)         =         1.906828	     109.253194
	 B(5,7,10)        =         1.906127	     109.213012
	 B(6,7,10)        =         1.906183	     109.216258
	 B(7,10,8)        =         1.906048	     109.208532
	 B(7,10,9)        =         1.906798	     109.251452
	 B(7,10,14)       =         1.933248	     110.766936
	 B(8,10,9)        =         1.906482	     109.233386
	 B(8,10,14)       =         1.906067	     109.209595
	 B(9,10,14)       =         1.905012	     109.149138
	 B(10,14,11)      =         1.925538	     110.325205
	 B(10,14,12)      =         1.916996	     109.835789
	 B(10,14,13)      =         1.914937	     109.717826
	 B(11,14,12)      =         1.901438	     108.944396
	 B(11,14,13)      =         1.901231	     108.932538
	 B(12,14,13)      =         1.903426	     109.058264
	 D(1,4,7,5)       =        -3.138484	    -179.821871
	 D(1,4,7,6)       =        -1.054729	     -60.431521
	 D(1,4,7,10)      =         1.045641	      59.910806
	 D(2,4,7,5)       =        -1.042736	     -59.744377
	 D(2,4,7,6)       =         1.041019	      59.645973
	 D(2,4,7,10)      =         3.141388	     179.988300
	 D(3,4,7,5)       =         1.052049	      60.277978
	 D(3,4,7,6)       =         3.135804	     179.668328
	 D(3,4,7,10)      =        -1.047012	     -59.989345
	 D(4,7,10,8)      =        -1.562776	     -89.540474
	 D(4,7,10,9)      =         0.521462	      29.877545
	 D(4,7,10,14)     =         2.620523	     150.144881
	 D(5,7,10,8)      =         2.622198	     150.240880
	 D(5,7,10,9)      =        -1.576750	     -90.341101
	 D(5,7,10,14)     =         0.522311	      29.926234
	 D(6,7,10,8)      =         0.537860	      30.817109
	 D(6,7,10,9)      =         2.622098	     150.235129
	 D(6,7,10,14)     =        -1.562027	     -89.497536
	 D(7,10,14,11)    =         3.141077	     179.970431
	 D(7,10,14,12)    =         1.044763	      59.860505
	 D(7,10,14,13)    =        -1.047361	     -60.009369
	 D(8,10,14,11)    =         1.041201	      59.656419
	 D(8,10,14,12)    =        -1.055113	     -60.453507
	 D(8,10,14,13)    =         3.135949	     179.676619
	 D(9,10,14,11)    =        -1.041983	     -59.701254
	 D(9,10,14,12)    =        -3.138297	    -179.811180
	 D(9,10,14,13)    =         1.052764	      60.318946

	Current energy   :      -157.8397741328

	Energy change for the previous step:
		Projected    :        -0.0057781929
		Actual       :        -0.0041379918

	Performing BFGS update.
	Previous computed or guess Hessian on step 1.
	Steps to be used in Hessian update: 1
	Adding user-defined constraint: Fragment 1; Coordinate 49:
		Value =     2.620523; Fixed value    =     2.617990
		Force =    -0.001330; Force constant =     0.525000
	Removing off-diagonal coupling between coordinate 49 and others.
	Taking RFO optimization step.
	Going to follow RFO solution 1.
	Using RFO vector 1.

	Determining step-restricting scale parameter for RS-RFO.
	Maximum step size allowed    0.10000

	 Iter      |step|        alpha        rfo_root  
	------------------------------------------------
	    0     0.21544       1.00000           1
	    1     0.16526       4.47284           1
	    2     0.12794      12.88036           1
	    3     0.10796      23.15400           1
	    4     0.10096      28.76897           1
	    5     0.10002      29.63953           1
	    6     0.10000      29.65532           1
	------------------------------------------------
	Norm of target step-size    0.10000
	Projected energy change by RFO approximation:        -0.0020992454

	Back-transformation to cartesian coordinates...
	Could not converge backtransformation.
	Using first guess instead.

	--- Internal Coordinate Step in ANG or DEG, aJ/ANG or AJ/DEG ---
	 ---------------------------------------------------------------------------
	   Coordinate                Previous        Force       Change         New 
	   ----------                --------       ------       ------       ------
	    1 R(1,4)          =      1.083598     0.055212     0.008424     1.092022
	    2 R(2,4)          =      1.084508     0.051830     0.007605     1.092113
	    3 R(3,4)          =      1.083134     0.055210     0.008484     1.091617
	    4 R(4,7)          =      1.538508    -0.027195    -0.007112     1.531396
	    5 R(5,7)          =      1.084528     0.058043     0.008958     1.093486
	    6 R(6,7)          =      1.084295     0.057480     0.008721     1.093015
	    7 R(7,10)         =      1.541960    -0.008721    -0.003268     1.538692
	    8 R(8,10)         =      1.084430     0.056900     0.008639     1.093069
	    9 R(9,10)         =      1.084202     0.059862     0.009201     1.093403
	   10 R(10,14)        =      1.538102    -0.025622    -0.006803     1.531298
	   11 R(11,14)        =      1.084156     0.053919     0.007883     1.092039
	   12 R(12,14)        =      1.083454     0.056122     0.008538     1.091991
	   13 R(13,14)        =      1.083267     0.054657     0.008401     1.091669
	   14 B(1,4,2)        =    108.946487    -0.000206    -0.709241   108.237247
	   15 B(1,4,3)        =    109.110614    -0.000179    -0.755489   108.355125
	   16 B(1,4,7)        =    109.792443     0.000170     0.669010   110.461452
	   17 B(2,4,3)        =    108.946240    -0.000185    -0.637590   108.308650
	   18 B(2,4,7)        =    110.313445     0.000263     0.857921   111.171365
	   19 B(3,4,7)        =    109.706140     0.000127     0.514552   110.220692
	   20 B(4,7,5)        =    109.131391    -0.000085    -0.183087   108.948303
	   21 B(4,7,6)        =    109.241867    -0.000076     0.033997   109.275865
	   22 B(4,7,10)       =    110.763709     0.000388     1.200109   111.963819
	   23 B(5,7,6)        =    109.253194    -0.000098    -1.029214   108.223979
	   24 B(5,7,10)       =    109.213012    -0.000067    -0.074294   109.138718
	   25 B(6,7,10)       =    109.216258    -0.000068    -0.001017   109.215241
	   26 B(7,10,8)       =    109.208532    -0.000068     0.001674   109.210206
	   27 B(7,10,9)       =    109.251452    -0.000070    -0.092582   109.158871
	   28 B(7,10,14)      =    110.766936     0.000389     1.199157   111.966092
	   29 B(8,10,9)       =    109.233386    -0.000097    -1.022383   108.211002
	   30 B(8,10,14)      =    109.209595    -0.000073     0.049432   109.259028
	   31 B(9,10,14)      =    109.149138    -0.000086    -0.188912   108.960226
	   32 B(10,14,11)     =    110.325205     0.000262     0.852601   111.177805
	   33 B(10,14,12)     =    109.835789     0.000162     0.637824   110.473613
	   34 B(10,14,13)     =    109.717826     0.000126     0.509941   110.227767
	   35 B(11,14,12)     =    108.944396    -0.000203    -0.702765   108.241631
	   36 B(11,14,13)     =    108.932538    -0.000184    -0.630899   108.301639
	   37 B(12,14,13)     =    109.058264    -0.000173    -0.727424   108.330841
	   38 D(1,4,7,5)      =   -179.821871     0.000018     0.431915  -179.389956
	   39 D(1,4,7,6)      =    -60.431521    -0.000031    -0.901225   -61.332747
	   40 D(1,4,7,10)     =     59.910806    -0.000006    -0.112963    59.797843
	   41 D(2,4,7,5)      =    -59.744377     0.000022     0.534050   -59.210327
	   42 D(2,4,7,6)      =     59.645973    -0.000027    -0.799090    58.846883
	   43 D(2,4,7,10)     =    179.988300    -0.000002    -0.010828   179.977472
	   44 D(3,4,7,5)      =     60.277978     0.000026     0.621336    60.899315
	   45 D(3,4,7,6)      =    179.668328    -0.000023    -0.711804   178.956524
	   46 D(3,4,7,10)     =    -59.989345     0.000002     0.076458   -59.912887
	   47 D(4,7,10,8)     =    -89.540474     0.000034     1.013838   -88.526636
	   48 D(4,7,10,9)     =     29.877545    -0.000012    -0.278431    29.599115
	   49 D(4,7,10,14)    =    150.144881     0.000009     0.186035   150.330916
	   50 D(5,7,10,8)     =    150.240880     0.000013     0.530729   150.771609
	   51 D(5,7,10,9)     =    -90.341101    -0.000033    -0.761539   -91.102640
	   52 D(5,7,10,14)    =     29.926234    -0.000012    -0.297073    29.629161
	   53 D(6,7,10,8)     =     30.817109     0.000058     1.821864    32.638973
	   54 D(6,7,10,9)     =    150.235129     0.000012     0.529596   150.764724
	   55 D(6,7,10,14)    =    -89.497536     0.000034     0.994061   -88.503475
	   56 D(7,10,14,11)   =    179.970431    -0.000001    -0.003078   179.967354
	   57 D(7,10,14,12)   =     59.860505    -0.000005    -0.090618    59.769887
	   58 D(7,10,14,13)   =    -60.009369     0.000003     0.086439   -59.922930
	   59 D(8,10,14,11)   =     59.656419    -0.000027    -0.803307    58.853112
	   60 D(8,10,14,12)   =    -60.453507    -0.000031    -0.890847   -61.344354
	   61 D(8,10,14,13)   =    179.676619    -0.000023    -0.713790   178.962829
	   62 D(9,10,14,11)   =    -59.701254     0.000022     0.515585   -59.185669
	   63 D(9,10,14,12)   =   -179.811180     0.000018     0.428045  -179.383135
	   64 D(9,10,14,13)   =     60.318946     0.000026     0.605102    60.924048
	 ---------------------------------------------------------------------------
	 Forces used to impose fixed constraints are not included.
	  Forces zeroed: 49 

  ==> Convergence Check <==

  Measures of convergence in internal coordinates in au.
  Criteria marked as inactive (o), active & met (*), and active & unmet ( ).
  ---------------------------------------------------------------------------------------------
   Step     Total Energy     Delta E     MAX Force     RMS Force      MAX Disp      RMS Disp   
  ---------------------------------------------------------------------------------------------
    Convergence Criteria    1.00e-06 *    3.00e-04 *             o    1.20e-03 *             o
  ---------------------------------------------------------------------------------------------
      2    -157.83977413   -4.14e-03      7.27e-03      3.24e-03 o    3.18e-02      1.25e-02 o  ~
  ---------------------------------------------------------------------------------------------

	Writing optimization data to binary file.
	Structure for next step:
	Cartesian Geometry (in Angstrom)
	    H    -2.3592655969   0.0359103169   0.5156318050
	    H    -2.2215432474   1.6893849922  -0.0997844115
	    H    -1.9203411568   0.3170317919  -1.1764779087
	    C    -1.7949842375   0.6856299206  -0.1566498028
	    H     0.2268124464   1.3575871376  -0.4553224386
	    H    -0.2026582583   1.0811236046   1.2408705653
	    C    -0.3119628285   0.6924667786   0.2251536086
	    H     0.1758257423  -1.2158298444   1.1137728106
	    H    -0.2144289564  -1.2967432363  -0.6120615051
	    C     0.3077074974  -0.7140130562   0.1516983716
	    H     2.2255831503  -1.6697553419  -0.2406921807
	    H     2.3469297471  -0.0973680545   0.5620717206
	    H     1.9475519948  -0.1832442342  -1.1604675703
	    C     1.7990402112  -0.6656207665  -0.1924813145
			--------------------------
			 OPTKING Finished Execution 
			--------------------------

    Structure for next step:
    Molecular point group: c1
    Full point group: C1

    Geometry (in Angstrom), charge = 0, multiplicity = 1:

    H           -2.359301901780     0.035913876562     0.515326247635
    H           -2.221579552214     1.689388551884    -0.100089968937
    H           -1.920377461651     0.317035351577    -1.176783466128
    C           -1.795020542360     0.685633480234    -0.156955360163
    H            0.226776141526     1.357590697290    -0.455627996022
    H           -0.202694563168     1.081127164277     1.240565007904
    C           -0.311999133337     0.692470338296     0.224848051154
    H            0.175789437470    -1.215826284742     1.113467253167
    H           -0.214465261254    -1.296739676650    -0.612367062459
    C            0.307671192571    -0.714009496518     0.151392814222
    H            2.225546845394    -1.669751782216    -0.240997738150
    H            2.346893442222    -0.097364494880     0.561766163192
    H            1.947515689978    -0.183240674535    -1.160773127710
    C            1.799003906359    -0.665617206824    -0.192786871875

gradient() will perform analytic gradient computation.
    SCF Algorithm Type (re)set to DF.

*** tstart() called on lski1497
*** at Mon Feb 20 17:20:35 2017


         ---------------------------------------------------------
                                   SCF
            by Justin Turney, Rob Parrish, and Andy Simmonett
                              RHF Reference
                        1 Threads,   1000 MiB Core
         ---------------------------------------------------------

  ==> Geometry <==

    Molecular point group: c1
    Full point group: C1

    Geometry (in Angstrom), charge = 0, multiplicity = 1:

       Center              X                  Y                   Z               Mass       
    ------------   -----------------  -----------------  -----------------  -----------------
           H         -2.359301901780     0.035913876562     0.515326247635     1.007825032070
           H         -2.221579552214     1.689388551884    -0.100089968937     1.007825032070
           H         -1.920377461651     0.317035351577    -1.176783466128     1.007825032070
           C         -1.795020542360     0.685633480234    -0.156955360163    12.000000000000
           H          0.226776141526     1.357590697290    -0.455627996022     1.007825032070
           H         -0.202694563168     1.081127164277     1.240565007904     1.007825032070
           C         -0.311999133337     0.692470338296     0.224848051154    12.000000000000
           H          0.175789437470    -1.215826284742     1.113467253167     1.007825032070
           H         -0.214465261254    -1.296739676650    -0.612367062459     1.007825032070
           C          0.307671192571    -0.714009496518     0.151392814222    12.000000000000
           H          2.225546845394    -1.669751782216    -0.240997738150     1.007825032070
           H          2.346893442222    -0.097364494880     0.561766163192     1.007825032070
           H          1.947515689978    -0.183240674535    -1.160773127710     1.007825032070
           C          1.799003906359    -0.665617206824    -0.192786871875    12.000000000000

  Running in c1 symmetry.

  Rotational constants: A =      0.71772  B =      0.12320  C =      0.11742 [cm^-1]
  Rotational constants: A =  21516.57401  B =   3693.44662  C =   3520.13554 [MHz]
  Nuclear repulsion =  130.801979848021318

  Charge       = 0
  Multiplicity = 1
  Electrons    = 34
  Nalpha       = 17
  Nbeta        = 17

  ==> Algorithm <==

  SCF Algorithm Type is DF.
  DIIS enabled.
  MOM disabled.
  Fractional occupation disabled.
  Guess Type is READ.
  Energy threshold   = 1.00e-10
  Density threshold  = 1.00e-10
  Integral threshold = 0.00e+00

  ==> Primary Basis <==

  Basis Set: 6-31G(D)
    Number of shells: 44
    Number of basis function: 80
    Number of Cartesian functions: 80
    Spherical Harmonics?: false
    Max angular momentum: 2

  ==> Pre-Iterations <==

   -------------------------------------------------------
    Irrep   Nso     Nmo     Nalpha   Nbeta   Ndocc  Nsocc
   -------------------------------------------------------
     A         80      80       0       0       0       0
   -------------------------------------------------------
    Total      80      80      17      17      17       0
   -------------------------------------------------------

  ==> Integral Setup <==

  ==> DFJK: Density-Fitted J/K Matrices <==

    J tasked:                  Yes
    K tasked:                  Yes
    wK tasked:                  No
    OpenMP threads:              1
    Integrals threads:           1
    Memory (MB):               715
    Algorithm:                Core
    Integral Cache:           NONE
    Schwarz Cutoff:          1E-12
    Fitting Condition:       1E-12

   => Auxiliary Basis Set <=

  Basis Set: 
    Number of shells: 186
    Number of basis function: 574
    Number of Cartesian functions: 574
    Spherical Harmonics?: false
    Max angular momentum: 3

  Minimum eigenvalue in the overlap matrix is 4.6536885525E-03.
  Using Symmetric Orthogonalization.
  SCF Guess was Projection but file not found.
  Switching over to SAD guess.

  SCF Guess: Superposition of Atomic Densities via on-the-fly atomic UHF.

  ==> Iterations <==

                           Total Energy        Delta E     RMS |[F,P]|

   @DF-RHF iter   0:  -158.83608697012167   -1.58836e+02   4.62175e-02 
   @DF-RHF iter   1:  -157.20755261734442    1.62853e+00   3.85340e-03 
   @DF-RHF iter   2:  -157.28603282271243   -7.84802e-02   1.11478e-03 DIIS
   @DF-RHF iter   3:  -157.29435720004832   -8.32438e-03   2.64585e-04 DIIS
   @DF-RHF iter   4:  -157.29473480853997   -3.77608e-04   7.47650e-05 DIIS
   @DF-RHF iter   5:  -157.29477177305617   -3.69645e-05   1.18010e-05 DIIS
   @DF-RHF iter   6:  -157.29477283028299   -1.05723e-06   2.19106e-06 DIIS
   @DF-RHF iter   7:  -157.29477285448800   -2.42050e-08   7.15560e-07 DIIS
   @DF-RHF iter   8:  -157.29477285687111   -2.38310e-09   1.05892e-07 DIIS
   @DF-RHF iter   9:  -157.29477285696581   -9.47011e-11   2.52448e-08 DIIS
   @DF-RHF iter  10:  -157.29477285697160   -5.79803e-12   5.12697e-09 DIIS
   @DF-RHF iter  11:  -157.29477285697183   -2.27374e-13   9.57909e-10 DIIS
   @DF-RHF iter  12:  -157.29477285697183    0.00000e+00   2.12749e-10 DIIS
   @DF-RHF iter  13:  -157.29477285697155    2.84217e-13   5.04300e-11 DIIS

  ==> Post-Iterations <==

    Orbital Energies (a.u.)
    -----------------------

    Doubly Occupied:                                                      

       1A    -11.215043     2A    -11.214473     3A    -11.209519  
       4A    -11.209502     5A     -1.068031     6A     -0.978568  
       7A     -0.858346     8A     -0.786090     9A     -0.637990  
      10A     -0.583734    11A     -0.581661    12A     -0.560137  
      13A     -0.510585    14A     -0.500438    15A     -0.464714  
      16A     -0.462267    17A     -0.451464  

    Virtual:                                                              

      18A      0.232109    19A      0.263169    20A      0.284679  
      21A      0.294163    22A      0.322247    23A      0.329815  
      24A      0.330017    25A      0.340421    26A      0.346877  
      27A      0.351330    28A      0.418987    29A      0.441648  
      30A      0.442058    31A      0.704642    32A      0.710660  
      33A      0.746613    34A      0.763491    35A      0.781657  
      36A      0.850325    37A      0.853181    38A      0.933355  
      39A      0.949786    40A      1.009390    41A      1.074792  
      42A      1.088862    43A      1.142806    44A      1.168394  
      45A      1.176332    46A      1.185806    47A      1.194495  
      48A      1.202188    49A      1.231523    50A      1.233377  
      51A      1.239653    52A      1.268066    53A      1.275256  
      54A      1.538971    55A      1.653460    56A      1.733073  
      57A      1.741403    58A      1.923427    59A      1.933670  
      60A      2.122517    61A      2.206682    62A      2.209773  
      63A      2.283345    64A      2.312998    65A      2.313809  
      66A      2.415154    67A      2.494833    68A      2.604138  
      69A      2.630243    70A      2.655674    71A      2.705491  
      72A      2.729753    73A      2.765381    74A      2.887092  
      75A      3.022946    76A      3.093860    77A      4.561318  
      78A      4.662570    79A      4.791768    80A      4.952830  

    Final Occupation by Irrep:
              A 
    DOCC [    17 ]

  Energy converged.

  @DF-RHF Final Energy:  -157.29477285697155

   => Energetics <=

    Nuclear Repulsion Energy =            130.8019798480213183
    One-Electron Energy =                -469.6083816998171301
    Two-Electron Energy =                 181.5116289948241786
    DFT Exchange-Correlation Energy =       0.0000000000000000
    Empirical Dispersion Energy =           0.0000000000000000
    PCM Polarization Energy =               0.0000000000000000
    EFP Energy =                            0.0000000000000000
    Total Energy =                       -157.2947728569716617


  Saving occupied orbitals to File 180.

*** tstop() called on lski1497 at Mon Feb 20 17:20:42 2017
Module time:
	user time   =       4.72 seconds =       0.08 minutes
	system time =       0.14 seconds =       0.00 minutes
	total time  =          7 seconds =       0.12 minutes
Total time:
	user time   =      49.54 seconds =       0.83 minutes
	system time =       1.47 seconds =       0.02 minutes
	total time  =         69 seconds =       1.15 minutes


Properties will be evaluated at   0.000000,   0.000000,   0.000000 Bohr

Properties computed using the SCF density matrix

  Nuclear Dipole Moment: (a.u.)
     X:     0.0038      Y:     0.0170      Z:    -0.2958

  Electronic Dipole Moment: (a.u.)
     X:    -0.0040      Y:    -0.0180      Z:     0.3121

  Dipole Moment: (a.u.)
     X:    -0.0002      Y:    -0.0010      Z:     0.0163     Total:     0.0163

  Dipole Moment: (Debye)
     X:    -0.0005      Y:    -0.0024      Z:     0.0414     Total:     0.0415


  //>>>>>>>>>>>>>>>>>>>>>>>>>>>>>>>>>>>//
  //               DFMP2               //
  //<<<<<<<<<<<<<<<<<<<<<<<<<<<<<<<<<<<//


*** tstart() called on lski1497
*** at Mon Feb 20 17:20:42 2017


*** tstop() called on lski1497 at Mon Feb 20 17:20:43 2017
Module time:
	user time   =       0.51 seconds =       0.01 minutes
	system time =       0.00 seconds =       0.00 minutes
	total time  =          1 seconds =       0.02 minutes
Total time:
	user time   =      50.07 seconds =       0.83 minutes
	system time =       1.47 seconds =       0.02 minutes
	total time  =         70 seconds =       1.17 minutes
	 --------------------------------------------------------
	                          DF-MP2                         
	      2nd-Order Density-Fitted Moller-Plesset Theory     
	              RMP2 Wavefunction,   1 Threads             
	                                                         
	        Rob Parrish, Justin Turney, Andy Simmonett,      
	           Ed Hohenstein, and C. David Sherrill          
	 --------------------------------------------------------

   => Auxiliary Basis Set <=

  Basis Set: 
    Number of shells: 132
    Number of basis function: 364
    Number of Cartesian functions: 414
    Spherical Harmonics?: true
    Max angular momentum: 3

	 --------------------------------------------------------
	                 NBF =    80, NAUX =   364
	 --------------------------------------------------------
	   CLASS    FOCC     OCC    AOCC    AVIR     VIR    FVIR
	   PAIRS       0      17      17      63      63       0
	 --------------------------------------------------------

DGAS Warning! /src/lib/libfock/apps.cc:80 is not currently checking restricted

         ------------------------------------------------------------
                                     CPHF                           
                                  Rob Parrish                       
         ------------------------------------------------------------

  ==> Geometry <==

    Molecular point group: c1
    Full point group: C1

    Geometry (in Angstrom), charge = 0, multiplicity = 1:

       Center              X                  Y                   Z               Mass       
    ------------   -----------------  -----------------  -----------------  -----------------
           H         -2.359301901780     0.035913876562     0.515326247635     1.007825032070
           H         -2.221579552214     1.689388551884    -0.100089968937     1.007825032070
           H         -1.920377461651     0.317035351577    -1.176783466128     1.007825032070
           C         -1.795020542360     0.685633480234    -0.156955360163    12.000000000000
           H          0.226776141526     1.357590697290    -0.455627996022     1.007825032070
           H         -0.202694563168     1.081127164277     1.240565007904     1.007825032070
           C         -0.311999133337     0.692470338296     0.224848051154    12.000000000000
           H          0.175789437470    -1.215826284742     1.113467253167     1.007825032070
           H         -0.214465261254    -1.296739676650    -0.612367062459     1.007825032070
           C          0.307671192571    -0.714009496518     0.151392814222    12.000000000000
           H          2.225546845394    -1.669751782216    -0.240997738150     1.007825032070
           H          2.346893442222    -0.097364494880     0.561766163192     1.007825032070
           H          1.947515689978    -0.183240674535    -1.160773127710     1.007825032070
           C          1.799003906359    -0.665617206824    -0.192786871875    12.000000000000

  Nuclear repulsion =  130.801979848021318
  Reference energy  = -157.294772856971548

  ==> Basis Set <==

  Basis Set: 6-31G(D)
    Number of shells: 44
[...]
    Max angular momentum: 3

  ==> CPHF Iterations <==

  => Iterations <=

             Iter  Converged  Remaining    Residual
  CGR           1          0          1   7.496E-02
  CGR           2          0          1   9.324E-03
  CGR           3          0          1   2.909E-03
  CGR           4          0          1   3.792E-04
  CGR           5          0          1   7.045E-05
  CGR           6          0          1   1.647E-05
  CGR           7          0          1   2.703E-06
  CGR           8          1          0   5.081E-07

    CGRSolver converged.

  ==> DFCorrGrad: Density-Fitted Correlated Gradients <==

    OpenMP threads:              1
    Integrals threads:           1
    Memory (MB):               715
    Schwarz Cutoff:          0E+00
    Fitting Condition:       1E-12

   => Auxiliary Basis Set <=

  Basis Set: 
    Number of shells: 186
    Number of basis function: 510
    Number of Cartesian functions: 574
    Spherical Harmonics?: true
    Max angular momentum: 3

	-----------------------------------------------------------
	 ==================> DF-MP2 Energies <==================== 
	-----------------------------------------------------------
	 Reference Energy          =    -157.2951742975393472 [Eh]
	 Singles Energy            =      -0.0000000000000000 [Eh]
	 Same-Spin Energy          =      -0.1243734930955612 [Eh]
	 Opposite-Spin Energy      =      -0.4222981460568367 [Eh]
	 Correlation Energy        =      -0.5466716391523979 [Eh]
	 Total Energy              =    -157.8418459366917546 [Eh]
	-----------------------------------------------------------
	 ================> DF-SCS-MP2 Energies <================== 
	-----------------------------------------------------------
	 SCS Same-Spin Scale       =       0.3333333333333333 [-]
	 SCS Opposite-Spin Scale   =       1.2000000000000000 [-]
	 SCS Same-Spin Energy      =      -0.0414578310318537 [Eh]
	 SCS Opposite-Spin Energy  =      -0.5067577752682041 [Eh]
	 SCS Correlation Energy    =      -0.5482156063000578 [Eh]
	 SCS Total Energy          =    -157.8433899038394088 [Eh]
	-----------------------------------------------------------


  -Total Gradient:
     Atom            X                  Y                   Z
    ------   -----------------  -----------------  -----------------
       1       -0.000008944039    -0.000004501581    -0.000002632071
       2       -0.000006114104     0.000001518299     0.000001924027
       3        0.000000865909     0.000003959278    -0.000000953929
       4        0.000807492828     0.000511394729    -0.003073537933
       5       -0.000001294267    -0.000000461189     0.000016204909
       6       -0.000007445935     0.000004260499    -0.000007118929
       7       -0.001393412053    -0.000754980320     0.003045527006
       8        0.000008012405    -0.000003682293    -0.000007448269
       9        0.000001644747    -0.000001020288     0.000016171678
      10        0.001316945820     0.000429527949     0.003142816697
      11        0.000005205125    -0.000002234008     0.000002058267
      12        0.000007704434     0.000004866572    -0.000001225432
      13       -0.000001786780    -0.000003725442    -0.000001514167
      14       -0.000728874089    -0.000184922206    -0.003130271853


			-----------------------------------------
			 OPTKING 2.0: for geometry optimizations 
			  - R.A. King,  Bethel University        
			-----------------------------------------

	Previous internal coordinate definitions found.
	---Fragment 1 Geometry and Gradient---
	 H          -4.4793913506        0.0520179379        0.9375028234
	 H          -4.2102263689        3.1978764543       -0.1547730371
	 H          -3.6446018140        0.6463120956       -2.2403614154
	 C          -3.3925291106        1.3051537897       -0.2977612977
	 H           0.4113156351        2.5545736790       -0.8909335953
	 H          -0.3344048581        2.1048444819        2.3027443347
	 C          -0.5998376917        1.2995925924        0.4134663994
	 H           0.2794211593       -2.3353568476        2.0767504920
	 H          -0.3854989830       -2.4464094024       -1.1641584625
	 C           0.5910121761       -1.3366025113        0.2896703625
	 H           4.2169785625       -3.1695179043       -0.3841038662
	 H           4.4545592618       -0.1560421168        1.0387526249
	 H           3.7003927257       -0.4123797658       -2.2038491954
	 C           3.4006370573       -1.2711605105       -0.3480613536
	            -0.0000089440       -0.0000045016       -0.0000026321
	            -0.0000061141        0.0000015183        0.0000019240
	             0.0000008659        0.0000039593       -0.0000009539
	             0.0008074928        0.0005113947       -0.0030735379
	            -0.0000012943       -0.0000004612        0.0000162049
	            -0.0000074459        0.0000042605       -0.0000071189
	            -0.0013934121       -0.0007549803        0.0030455270
	             0.0000080124       -0.0000036823       -0.0000074483
	             0.0000016447       -0.0000010203        0.0000161717
	             0.0013169458        0.0004295279        0.0031428167
	             0.0000052051       -0.0000022340        0.0000020583
	             0.0000077044        0.0000048666       -0.0000012254
	            -0.0000017868       -0.0000037254       -0.0000015142
	            -0.0007288741       -0.0001849222       -0.0031302719

	---Fragment 1 Intrafragment Coordinates---
	 - Coordinate -           - BOHR/RAD -       - ANG/DEG -
	 R(1,4)           =         2.068211	       1.094450
	 R(2,4)           =         2.066754	       1.093679
	 R(3,4)           =         2.066714	       1.093658
	 R(4,7)           =         2.881840	       1.525004
	 R(5,7)           =         2.073371	       1.097181
	 R(6,7)           =         2.070811	       1.095826
	 R(7,10)          =         2.895337	       1.532146
	 R(8,10)          =         2.070810	       1.095826
	 R(9,10)          =         2.073370	       1.097180
	 R(10,14)         =         2.881836	       1.525002
	 R(11,14)         =         2.066754	       1.093679
	 R(12,14)         =         2.068210	       1.094450
	 R(13,14)         =         2.066714	       1.093658
	 B(1,4,2)         =         1.881415	     107.797134
	 B(1,4,3)         =         1.879837	     107.706733
	 B(1,4,7)         =         1.939794	     111.142003
	 B(2,4,3)         =         1.884641	     107.981977
	 B(2,4,7)         =         1.947758	     111.598289
	 B(3,4,7)         =         1.927892	     110.460097
	 B(4,7,5)         =         1.892482	     108.431256
	 B(4,7,6)         =         1.926899	     110.403193
	 B(4,7,10)        =         1.971190	     112.940853
	 B(5,7,6)         =         1.850519	     106.026930
	 B(5,7,10)        =         1.900356	     108.882373
	 B(6,7,10)        =         1.918079	     109.897806
	 B(7,10,8)        =         1.918083	     109.898056
	 B(7,10,9)        =         1.900357	     108.882423
	 B(7,10,14)       =         1.971188	     112.940760
	 B(8,10,9)        =         1.850521	     106.027040
	 B(8,10,14)       =         1.926898	     110.403141
	 B(9,10,14)       =         1.892478	     108.430997
	 B(10,14,11)      =         1.947751	     111.597928
	 B(10,14,12)      =         1.939784	     111.141409
	 B(10,14,13)      =         1.927887	     110.459802
	 B(11,14,12)      =         1.881423	     107.797576
	 B(11,14,13)      =         1.884648	     107.982377
	 B(12,14,13)      =         1.879845	     107.707212
	 D(1,4,7,5)       =         3.126263	     179.121680
	 D(1,4,7,6)       =        -1.136690	     -65.127567
	 D(1,4,7,10)      =         1.018563	      58.359371
	 D(2,4,7,5)       =        -1.056108	     -60.510555
	 D(2,4,7,6)       =         0.964123	      55.240198
	 D(2,4,7,10)      =         3.119377	     178.727136
	 D(3,4,7,5)       =         1.040703	      59.627882
	 D(3,4,7,6)       =         3.060935	     175.378635
	 D(3,4,7,10)      =        -1.066997	     -61.134427
	 D(4,7,10,8)      =        -1.496169	     -85.724177
	 D(4,7,10,9)      =         0.523690	      30.005234
	 D(4,7,10,14)     =         2.626895	     150.509983
	 D(5,7,10,8)      =         2.683805	     153.770721
	 D(5,7,10,9)      =        -1.579521	     -90.499867
	 D(5,7,10,14)     =         0.523684	      30.004882
	 D(6,7,10,8)      =         0.663951	      38.041609
	 D(6,7,10,9)      =         2.683811	     153.771020
	 D(6,7,10,14)     =        -1.496170	     -85.724231
	 D(7,10,14,11)    =         3.119387	     178.727692
	 D(7,10,14,12)    =         1.018574	      58.360017
	 D(7,10,14,13)    =        -1.066986	     -61.133803
	 D(8,10,14,11)    =         0.964129	      55.240534
	 D(8,10,14,12)    =        -1.136683	     -65.127141
	 D(8,10,14,13)    =         3.060942	     175.379039
	 D(9,10,14,11)    =        -1.056102	     -60.510175
	 D(9,10,14,12)    =         3.126271	     179.122150
	 D(9,10,14,13)    =         1.040711	      59.628331

	Current energy   :      -157.8418459367

	Energy change for the previous step:
		Projected    :        -0.0000060136
		Actual       :        -0.0000006642

	Performing BFGS update.
	Previous computed or guess Hessian on step 1.
	Steps to be used in Hessian update: 7 6
	Adding user-defined constraint: Fragment 1; Coordinate 49:
		Value =     2.626895; Fixed value    =     2.617990
		Force =    -0.006011; Force constant =     0.675000
	Removing off-diagonal coupling between coordinate 49 and others.
	Taking RFO optimization step.
	Going to follow RFO solution 1.
	Rejecting RFO root 1 because normalization gives large value.
	Rejecting RFO root 2 because normalization gives large value.
	Using RFO vector 3.
	Norm of target step-size    0.00079
	Projected energy change by RFO approximation:        -0.0000000820

	Back-transformation to cartesian coordinates...
	Successfully converged to displaced geometry.

	--- Internal Coordinate Step in ANG or DEG, aJ/ANG or AJ/DEG ---
	 ---------------------------------------------------------------------------
	   Coordinate                Previous        Force       Change         New 
	   ----------                --------       ------       ------       ------
	    1 R(1,4)          =      1.094450    -0.000047    -0.000008     1.094442
	    2 R(2,4)          =      1.093679    -0.000033    -0.000004     1.093675
	    3 R(3,4)          =      1.093658     0.000004     0.000002     1.093660
	    4 R(4,7)          =      1.525004     0.000074     0.000026     1.525030
	    5 R(5,7)          =      1.097181     0.000091     0.000013     1.097194
	    6 R(6,7)          =      1.095826     0.000048     0.000008     1.095833
	    7 R(7,10)         =      1.532146    -0.000268    -0.000048     1.532098
	    8 R(8,10)         =      1.095826     0.000048     0.000008     1.095833
	    9 R(9,10)         =      1.097180     0.000095     0.000014     1.097194
	   10 R(10,14)        =      1.525002     0.000093     0.000031     1.525032
	   11 R(11,14)        =      1.093679    -0.000034    -0.000004     1.093675
	   12 R(12,14)        =      1.094450    -0.000046    -0.000008     1.094442
	   13 R(13,14)        =      1.093658     0.000004     0.000002     1.093660
	   14 B(1,4,2)        =    107.797134     0.000000     0.001514   107.798648
	   15 B(1,4,3)        =    107.706733     0.000000     0.001574   107.708307
	   16 B(1,4,7)        =    111.142003    -0.000001    -0.005278   111.136725
	   17 B(2,4,3)        =    107.981977     0.000000     0.001966   107.983943
	   18 B(2,4,7)        =    111.598289    -0.000000    -0.001375   111.596914
	   19 B(3,4,7)        =    110.460097     0.000000     0.001879   110.461976
	   20 B(4,7,5)        =    108.431256    -0.000004     0.001371   108.432627
	   21 B(4,7,6)        =    110.403193     0.000005     0.001091   110.404284
	   22 B(4,7,10)       =    112.940853    -0.000002    -0.007456   112.933397
	   23 B(5,7,6)        =    106.026930     0.000000     0.007077   106.034007
	   24 B(5,7,10)       =    108.882373     0.000000    -0.001843   108.880530
	   25 B(6,7,10)       =    109.897806     0.000000     0.000655   109.898461
	   26 B(7,10,8)       =    109.898056     0.000000     0.000306   109.898362
	   27 B(7,10,9)       =    108.882423     0.000000    -0.001903   108.880520
	   28 B(7,10,14)      =    112.940760    -0.000002    -0.007348   112.933412
	   29 B(8,10,9)       =    106.027040     0.000000     0.006945   106.033985
	   30 B(8,10,14)      =    110.403141     0.000005     0.001164   110.404305
	   31 B(9,10,14)      =    108.430997    -0.000004     0.001726   108.432723
	   32 B(10,14,11)     =    111.597928    -0.000000    -0.001051   111.596878
	   33 B(10,14,12)     =    111.141409    -0.000001    -0.004619   111.136790
	   34 B(10,14,13)     =    110.459802     0.000000     0.002195   110.461997
	   35 B(11,14,12)     =    107.797576     0.000000     0.001052   107.798628
	   36 B(11,14,13)     =    107.982377     0.000000     0.001547   107.983925
	   37 B(12,14,13)     =    107.707212     0.000000     0.001081   107.708293
	   38 D(1,4,7,5)      =    179.121680    -0.000000     0.003604   179.125284
	   39 D(1,4,7,6)      =    -65.127567    -0.000000     0.013484   -65.114083
	   40 D(1,4,7,10)     =     58.359371     0.000000     0.009750    58.369120
	   41 D(2,4,7,5)      =    -60.510555    -0.000000     0.000978   -60.509577
	   42 D(2,4,7,6)      =     55.240198    -0.000000     0.010858    55.251056
	   43 D(2,4,7,10)     =    178.727136     0.000000     0.007124   178.734259
	   44 D(3,4,7,5)      =     59.627882    -0.000000     0.003818    59.631700
	   45 D(3,4,7,6)      =    175.378635    -0.000000     0.013698   175.392334
	   46 D(3,4,7,10)     =    -61.134427     0.000000     0.009964   -61.124463
	   47 D(4,7,10,8)     =    -85.724177    -0.000001    -0.008057   -85.732234
	   48 D(4,7,10,9)     =     30.005234    -0.000001    -0.000638    30.004596
	   49 D(4,7,10,14)    =    150.509983    -0.000002    -0.004524   150.505458
	   50 D(5,7,10,8)     =    153.770721     0.000000    -0.003694   153.767027
	   51 D(5,7,10,9)     =    -90.499867     0.000000     0.003725   -90.496143
	   52 D(5,7,10,14)    =     30.004882    -0.000001    -0.000162    30.004720
	   53 D(6,7,10,8)     =     38.041609     0.000000    -0.011500    38.030109
	   54 D(6,7,10,9)     =    153.771020     0.000000    -0.004081   153.766939
	   55 D(6,7,10,14)    =    -85.724231    -0.000001    -0.007967   -85.732198
	   56 D(7,10,14,11)   =    178.727692     0.000000     0.005905   178.733597
	   57 D(7,10,14,12)   =     58.360017     0.000000     0.008446    58.368463
	   58 D(7,10,14,13)   =    -61.133803     0.000000     0.008644   -61.125158
	   59 D(8,10,14,11)   =     55.240534    -0.000000     0.009963    55.250497
	   60 D(8,10,14,12)   =    -65.127141    -0.000000     0.012504   -65.114637
	   61 D(8,10,14,13)   =    175.379039    -0.000000     0.012702   175.391741
	   62 D(9,10,14,11)   =    -60.510175    -0.000000    -0.000001   -60.510177
	   63 D(9,10,14,12)   =    179.122150    -0.000000     0.002540   179.124690
	   64 D(9,10,14,13)   =     59.628331    -0.000000     0.002738    59.631068
	 ---------------------------------------------------------------------------
	 Forces used to impose fixed constraints are not included.
	  Forces zeroed: 49 

  ==> Convergence Check <==

  Measures of convergence in internal coordinates in au.
  Criteria marked as inactive (o), active & met (*), and active & unmet ( ).
  ---------------------------------------------------------------------------------------------
   Step     Total Energy     Delta E     MAX Force     RMS Force      MAX Disp      RMS Disp   
  ---------------------------------------------------------------------------------------------
    Convergence Criteria    1.00e-06 *    3.00e-04 *             o    1.20e-03 *             o
  ---------------------------------------------------------------------------------------------
      8    -157.84184594   -6.64e-07 *    6.41e-05 *    2.41e-05 o    2.39e-04 *    9.88e-05 o  ~
  ---------------------------------------------------------------------------------------------


  **** Optimization is complete! (in 8 steps) ****

  ==> Optimization Summary <==

  Measures of convergence in internal coordinates in au.
  --------------------------------------------------------------------------------------------------------------- ~
   Step         Total Energy             Delta E       MAX Force       RMS Force        MAX Disp        RMS Disp  ~
  --------------------------------------------------------------------------------------------------------------- ~
      1    -157.835636141030   -157.835636141030      0.01767243      0.00730165      0.02775479      0.01251052  ~
      2    -157.839774132844     -0.004137991814      0.00726597      0.00323844      0.03179753      0.01250010  ~
      3    -157.841295103987     -0.001520971143      0.00235545      0.00100193      0.04796741      0.01251805  ~
      4    -157.841730337830     -0.000435233843      0.00111609      0.00032257      0.03557584      0.01249567  ~
      5    -157.841838797488     -0.000108459658      0.00020174      0.00007546      0.01781387      0.00872587  ~
      6    -157.841855234335     -0.000016436847      0.00025207      0.00005792      0.00683262      0.00339210  ~
      7    -157.841845272521      0.000009961814      0.00007914      0.00003192      0.00473971      0.00241327  ~
      8    -157.841845936692     -0.000000664171      0.00013167      0.00002922      0.00023908      0.00009875  ~
  --------------------------------------------------------------------------------------------------------------- ~

	Writing optimization data to binary file.
	Final energy is   -157.8418459366918
	Final (previous) structure:
	Cartesian Geometry (in Angstrom)
	    H    -2.3703918111   0.0275267072   0.4961051271
	    H    -2.2279558374   1.6922433355  -0.0819023637
	    H    -1.9286402143   0.3420136306  -1.1855482000
	    C    -1.7952490848   0.6906576392  -0.1575684923
	    H     0.2176588596   1.3518221686  -0.4714617530
	    H    -0.1769594293   1.1138357274   1.2185598192
	    C    -0.3174204353   0.6877147803   0.2187969951
	    H     0.1478633091  -1.2358176177   1.0989690283
	    H    -0.2039972757  -1.2945840986  -0.6160461255
	    C     0.3127501736  -0.7072995859   0.1532869539
	    H     2.2315289444  -1.6772366372  -0.2032590117
	    H     2.3572512357  -0.0825739318   0.5496842145
	    H     1.9581634933  -0.2182219733  -1.1662267654
	    C     1.7995396254  -0.6726691706  -0.1841861355
	Saving final (previous) structure.
			--------------------------
			 OPTKING Finished Execution 
			--------------------------

    Final optimized geometry and variables:
    Molecular point group: c1
    Full point group: C1

    Geometry (in Angstrom), charge = 0, multiplicity = 1:

    H           -2.370391811096     0.027526707182     0.496105127114
    H           -2.227955837449     1.692243335495    -0.081902363731
    H           -1.928640214346     0.342013630609    -1.185548200036
    C           -1.795249084830     0.690657639221    -0.157568492324
    H            0.217658859621     1.351822168603    -0.471461753022
    H           -0.176959429328     1.113835727427     1.218559819159
    C           -0.317420435299     0.687714780342     0.218796995075
    H            0.147863309098    -1.235817617685     1.098969028269
    H           -0.203997275750    -1.294584098606    -0.616046125547
    C            0.312750173601    -0.707299585919     0.153286953863
    H            2.231528944396    -1.677236637191    -0.203259011731
    H            2.357251235667    -0.082573931783     0.549684214464
    H            1.958163493282    -0.218221973349    -1.166226765356
    C            1.799539625428    -0.672669170603    -0.184186135515

	Cleaning optimization helper files.

*** Psi4 exiting successfully. Buy a developer a beer!
