    -----------------------------------------------------------------------
          Psi4: An Open-Source Ab Initio Electronic Structure Package
                              Psi4 1.0.0 Driver

                          Git: Rev {master} 6a9a71b 

    J. M. Turney, A. C. Simmonett, R. M. Parrish, E. G. Hohenstein,
    F. A. Evangelista, J. T. Fermann, B. J. Mintz, L. A. Burns, J. J. Wilke,
    M. L. Abrams, N. J. Russ, M. L. Leininger, C. L. Janssen, E. T. Seidl,
    W. D. Allen, H. F. Schaefer, R. A. King, E. F. Valeev, C. D. Sherrill,
    and T. D. Crawford, WIREs Comput. Mol. Sci. 2, 556-565 (2012)
    (doi: 10.1002/wcms.93)

                         Additional Contributions by
    A. E. DePrince, U. Bozkaya, A. Yu. Sokolov, D. G. A. Smith, R. Di Remigio,
    R. M. Richard, J. F. Gonthier, H. R. McAlexander, M. Saitow, and
    B. P. Pritchard
    -----------------------------------------------------------------------


    Psi4 started on: Thu Feb 16 16:37:59 2017

    Process ID:   2240
    PSI4DATADIR: /Users/sternc1/anaconda/share/psi4
    Memory level set to 256.000 MB

  ==> Input File <==

--------------------------------------------------------------------------

memory 1000 mb

molecule butane {
  symmetry C1
  0 1 
  H      1.604   0.760   -8.260
  H      1.745   2.388   -8.880
  H      2.043   1.024   -9.930
  C      2.142   1.395   -8.932
  H      4.169   2.051   -9.210
  H      3.731   1.788   -7.539
  C      3.631   1.416   -8.537
  H      4.882   -0.081   -9.436
  H      4.721   -0.237   -7.703
  C      4.203   -0.012   -8.612
  H      3.451   -2.008   -8.862
  H      2.535   -0.792   -9.718
  H      2.373   -0.948   -7.986
  C      3.053   -1.016   -8.809
  units Angstrom
}

dih_string = "4 7 10 14 350"
set optking fixed_dihedral = $dih_string

optimize('MP2/6-31G(d)')
--------------------------------------------------------------------------

  Memory set to 1000.000 MiB by Python script.
gradient() will perform analytic gradient computation.
    SCF Algorithm Type (re)set to DF.

*** tstart() called on lski1497
*** at Thu Feb 16 16:38:01 2017


         ---------------------------------------------------------
                                   SCF
            by Justin Turney, Rob Parrish, and Andy Simmonett
                              RHF Reference
                        1 Threads,   1000 MiB Core
         ---------------------------------------------------------

  ==> Geometry <==

    Molecular point group: c1
    Full point group: C1

    Geometry (in Angstrom), charge = 0, multiplicity = 1:

       Center              X                  Y                   Z               Mass       
    ------------   -----------------  -----------------  -----------------  -----------------
           H         -1.630370224913     0.323143352091     0.467688511757     1.007825032070
           H         -1.489370224913     1.951143352091    -0.152311488243     1.007825032070
           H         -1.191370224913     0.587143352091    -1.202311488243     1.007825032070
           C         -1.092370224913     0.958143352091    -0.204311488243    12.000000000000
           H          0.934629775087     1.614143352091    -0.482311488243     1.007825032070
           H          0.496629775087     1.351143352091     1.188688511757     1.007825032070
           C          0.396629775087     0.979143352091     0.190688511757    12.000000000000
           H          1.647629775087    -0.517856647909    -0.708311488243     1.007825032070
           H          1.486629775087    -0.673856647909     1.024688511757     1.007825032070
           C          0.968629775087    -0.448856647909     0.115688511757    12.000000000000
           H          0.216629775087    -2.444856647909    -0.134311488243     1.007825032070
           H         -0.699370224913    -1.228856647909    -0.990311488243     1.007825032070
           H         -0.861370224913    -1.384856647909     0.741688511757     1.007825032070
           C         -0.181370224913    -1.452856647909    -0.081311488243    12.000000000000

  Running in c1 symmetry.

  Rotational constants: A =      0.37832  B =      0.21019  C =      0.15026 [cm^-1]
  Rotational constants: A =  11341.65329  B =   6301.30337  C =   4504.56073 [MHz]
  Nuclear repulsion =  136.521177785329854

  Charge       = 0
  Multiplicity = 1
  Electrons    = 34
  Nalpha       = 17
  Nbeta        = 17

  ==> Algorithm <==

  SCF Algorithm Type is DF.
  DIIS enabled.
  MOM disabled.
  Fractional occupation disabled.
  Guess Type is SAD.
  Energy threshold   = 1.00e-10
  Density threshold  = 1.00e-10
  Integral threshold = 0.00e+00

  ==> Primary Basis <==

  Basis Set: 6-31G(D)
    Number of shells: 44
    Number of basis function: 80
    Number of Cartesian functions: 80
    Spherical Harmonics?: false
    Max angular momentum: 2

  ==> Pre-Iterations <==

   -------------------------------------------------------
    Irrep   Nso     Nmo     Nalpha   Nbeta   Ndocc  Nsocc
   -------------------------------------------------------
     A         80      80       0       0       0       0
   -------------------------------------------------------
    Total      80      80      17      17      17       0
   -------------------------------------------------------

  ==> Integral Setup <==

  ==> DFJK: Density-Fitted J/K Matrices <==

    J tasked:                  Yes
    K tasked:                  Yes
    wK tasked:                  No
    OpenMP threads:              1
    Integrals threads:           1
    Memory (MB):               715
    Algorithm:                Core
    Integral Cache:           NONE
    Schwarz Cutoff:          1E-12
    Fitting Condition:       1E-12

   => Auxiliary Basis Set <=

  Basis Set: 
    Number of shells: 186
    Number of basis function: 574
    Number of Cartesian functions: 574
    Spherical Harmonics?: false
    Max angular momentum: 3

  Minimum eigenvalue in the overlap matrix is 3.3998163937E-03.
  Using Symmetric Orthogonalization.
  SCF Guess: Superposition of Atomic Densities via on-the-fly atomic UHF.

  ==> Iterations <==

                           Total Energy        Delta E     RMS |[F,P]|

   @DF-RHF iter   0:  -158.89723448712979   -1.58897e+02   4.65506e-02 
   @DF-RHF iter   1:  -157.16169879933764    1.73554e+00   4.67333e-03 
   @DF-RHF iter   2:  -157.26050432133414   -9.88055e-02   1.53798e-03 DIIS
   @DF-RHF iter   3:  -157.27118904676243   -1.06847e-02   6.02245e-04 DIIS
   @DF-RHF iter   4:  -157.27299315235555   -1.80411e-03   8.67981e-05 DIIS
   @DF-RHF iter   5:  -157.27304931417873   -5.61618e-05   1.95816e-05 DIIS
   @DF-RHF iter   6:  -157.27305200377387   -2.68960e-06   5.28129e-06 DIIS
   @DF-RHF iter   7:  -157.27305215904144   -1.55268e-07   1.32649e-06 DIIS
   @DF-RHF iter   8:  -157.27305217185372   -1.28123e-08   3.21150e-07 DIIS
   @DF-RHF iter   9:  -157.27305217271382   -8.60098e-10   8.44942e-08 DIIS
   @DF-RHF iter  10:  -157.27305217276628   -5.24665e-11   2.47867e-08 DIIS
   @DF-RHF iter  11:  -157.27305217277015   -3.86535e-12   5.49024e-09 DIIS
   @DF-RHF iter  12:  -157.27305217276992    2.27374e-13   1.15714e-09 DIIS
   @DF-RHF iter  13:  -157.27305217277021   -2.84217e-13   1.92923e-10 DIIS
   @DF-RHF iter  14:  -157.27305217277038   -1.70530e-13   5.34073e-11 DIIS

  ==> Post-Iterations <==

    Orbital Energies (a.u.)
    -----------------------

    Doubly Occupied:                                                      

       1A    -11.206635     2A    -11.206068     3A    -11.197795  
       4A    -11.197698     5A     -1.077973     6A     -0.966022  
       7A     -0.889785     8A     -0.769613     9A     -0.651148  
      10A     -0.627320    11A     -0.563343    12A     -0.540473  
      13A     -0.534602    14A     -0.511057    15A     -0.455997  
      16A     -0.453507    17A     -0.451185  

    Virtual:                                                              

      18A      0.229813    19A      0.273851    20A      0.280488  
      21A      0.305692    22A      0.308475    23A      0.315556  
      24A      0.356890    25A      0.361486    26A      0.382208  
      27A      0.383343    28A      0.430690    29A      0.447216  
      30A      0.488130    31A      0.705620    32A      0.735332  
      33A      0.760348    34A      0.772759    35A      0.799752  
      36A      0.803231    37A      0.861243    38A      0.931904  
      39A      0.932800    40A      1.009510    41A      1.130665  
      42A      1.153683    43A      1.161793    44A      1.192480  
      45A      1.197471    46A      1.213128    47A      1.215712  
      48A      1.217283    49A      1.238731    50A      1.273661  
      51A      1.280508    52A      1.287275    53A      1.337433  
      54A      1.625000    55A      1.683630    56A      1.707457  
      57A      1.755404    58A      1.937154    59A      2.111587  
      60A      2.179127    61A      2.197416    62A      2.286983  
      63A      2.295210    64A      2.331934    65A      2.376191  
      66A      2.434805    67A      2.547704    68A      2.577396  
      69A      2.653748    70A      2.706703    71A      2.730374  
      72A      2.756363    73A      2.834789    74A      2.909364  
      75A      2.992213    76A      3.103006    77A      4.593547  
      78A      4.717519    79A      4.783070    80A      5.029894  

    Final Occupation by Irrep:
              A 
    DOCC [    17 ]

  Energy converged.

  @DF-RHF Final Energy:  -157.27305217277038

   => Energetics <=

    Nuclear Repulsion Energy =            136.5211777853298543
    One-Electron Energy =                -480.9880191754057250
    Two-Electron Energy =                 187.1937892173054649
    DFT Exchange-Correlation Energy =       0.0000000000000000
    Empirical Dispersion Energy =           0.0000000000000000
    PCM Polarization Energy =               0.0000000000000000
    EFP Energy =                            0.0000000000000000
    Total Energy =                       -157.2730521727703774


  Saving occupied orbitals to File 180.

*** tstop() called on lski1497 at Thu Feb 16 16:38:06 2017
Module time:
	user time   =       4.90 seconds =       0.08 minutes
	system time =       0.16 seconds =       0.00 minutes
	total time  =          5 seconds =       0.08 minutes
Total time:
	user time   =       4.90 seconds =       0.08 minutes
	system time =       0.16 seconds =       0.00 minutes
	total time  =          5 seconds =       0.08 minutes


Properties will be evaluated at   0.000000,   0.000000,   0.000000 Bohr

Properties computed using the SCF density matrix

  Nuclear Dipole Moment: (a.u.)
     X:    -1.0216      Y:    -0.3971      Z:    -0.2317

  Electronic Dipole Moment: (a.u.)
     X:     1.0536      Y:     0.4091      Z:     0.2386

  Dipole Moment: (a.u.)
     X:     0.0321      Y:     0.0121      Z:     0.0069     Total:     0.0350

  Dipole Moment: (Debye)
     X:     0.0815      Y:     0.0307      Z:     0.0176     Total:     0.0888


  //>>>>>>>>>>>>>>>>>>>>>>>>>>>>>>>>>>>//
  //               DFMP2               //
  //<<<<<<<<<<<<<<<<<<<<<<<<<<<<<<<<<<<//


*** tstart() called on lski1497
*** at Thu Feb 16 16:38:07 2017


*** tstop() called on lski1497 at Thu Feb 16 16:38:07 2017
Module time:
	user time   =       0.52 seconds =       0.01 minutes
	system time =       0.00 seconds =       0.00 minutes
	total time  =          0 seconds =       0.00 minutes
Total time:
	user time   =       5.44 seconds =       0.09 minutes
	system time =       0.16 seconds =       0.00 minutes
	total time  =          6 seconds =       0.10 minutes
	 --------------------------------------------------------
	                          DF-MP2                         
	      2nd-Order Density-Fitted Moller-Plesset Theory     
	              RMP2 Wavefunction,   1 Threads             
	                                                         
	        Rob Parrish, Justin Turney, Andy Simmonett,      
	           Ed Hohenstein, and C. David Sherrill          
	 --------------------------------------------------------

   => Auxiliary Basis Set <=

  Basis Set: 
    Number of shells: 132
    Number of basis function: 364
    Number of Cartesian functions: 414
    Spherical Harmonics?: true
    Max angular momentum: 3

	 --------------------------------------------------------
	                 NBF =    80, NAUX =   364
	 --------------------------------------------------------
	   CLASS    FOCC     OCC    AOCC    AVIR     VIR    FVIR
	   PAIRS       0      17      17      63      63       0
	 --------------------------------------------------------

DGAS Warning! /src/lib/libfock/apps.cc:80 is not currently checking restricted

         ------------------------------------------------------------
                                     CPHF                           
                                  Rob Parrish                       
         ------------------------------------------------------------

  ==> Geometry <==

    Molecular point group: c1
    Full point group: C1

    Geometry (in Angstrom), charge = 0, multiplicity = 1:

       Center              X                  Y                   Z               Mass       
    ------------   -----------------  -----------------  -----------------  -----------------
           H         -1.630370224913     0.323143352091     0.467688511757     1.007825032070
           H         -1.489370224913     1.951143352091    -0.152311488243     1.007825032070
           H         -1.191370224913     0.587143352091    -1.202311488243     1.007825032070
           C         -1.092370224913     0.958143352091    -0.204311488243    12.000000000000
           H          0.934629775087     1.614143352091    -0.482311488243     1.007825032070
           H          0.496629775087     1.351143352091     1.188688511757     1.007825032070
           C          0.396629775087     0.979143352091     0.190688511757    12.000000000000
           H          1.647629775087    -0.517856647909    -0.708311488243     1.007825032070
           H          1.486629775087    -0.673856647909     1.024688511757     1.007825032070
           C          0.968629775087    -0.448856647909     0.115688511757    12.000000000000
           H          0.216629775087    -2.444856647909    -0.134311488243     1.007825032070
           H         -0.699370224913    -1.228856647909    -0.990311488243     1.007825032070
           H         -0.861370224913    -1.384856647909     0.741688511757     1.007825032070
           C         -0.181370224913    -1.452856647909    -0.081311488243    12.000000000000

  Nuclear repulsion =  136.521177785329854
  Reference energy  = -157.273052172770377

  ==> Basis Set <==

  Basis Set: 6-31G(D)
    Number of shells: 44
    Number of basis function: 80
    Number of Cartesian functions: 80
    Spherical Harmonics?: false
    Max angular momentum: 2

  ==> CGRSolver (by Rob Parrish) <==

   Number of roots    =         1
   Preconditioning    =    JACOBI
   Convergence cutoff =     1E-06
   Maximum iterations =       100

  ==> CPHFRHamiltonian (by Rob Parrish) <== 

  ==> DFJK: Density-Fitted J/K Matrices <==

    J tasked:                  Yes
    K tasked:                  Yes
    wK tasked:                  No
    OpenMP threads:              1
    Integrals threads:           1
    Memory (MB):               715
    Algorithm:                Core
    Integral Cache:           NONE
    Schwarz Cutoff:          1E-12
    Fitting Condition:       1E-12

   => Auxiliary Basis Set <=

  Basis Set: 
    Number of shells: 186
    Number of basis function: 574
    Number of Cartesian functions: 574
    Spherical Harmonics?: false
    Max angular momentum: 3

  ==> CPHF Iterations <==

  => Iterations <=

             Iter  Converged  Remaining    Residual
  CGR           1          0          1   7.624E-02
  CGR           2          0          1   8.703E-03
  CGR           3          0          1   2.112E-03
  CGR           4          0          1   4.197E-04
  CGR           5          0          1   7.845E-05
  CGR           6          0          1   1.390E-05
  CGR           7          0          1   1.905E-06
  CGR           8          1          0   5.035E-07

    CGRSolver converged.

  ==> DFCorrGrad: Density-Fitted Correlated Gradients <==

    OpenMP threads:              1
    Integrals threads:           1
    Memory (MB):               715
    Schwarz Cutoff:          0E+00
    Fitting Condition:       1E-12

   => Auxiliary Basis Set <=

  Basis Set: 
    Number of shells: 186
    Number of basis function: 510
    Number of Cartesian functions: 574
    Spherical Harmonics?: true
    Max angular momentum: 3

	-----------------------------------------------------------
	 ==================> DF-MP2 Energies <==================== 
	-----------------------------------------------------------
	 Reference Energy          =    -157.2730521727703774 [Eh]
	 Singles Energy            =      -0.0000000000000000 [Eh]
	 Same-Spin Energy          =      -0.1253981088024567 [Eh]
	 Opposite-Spin Energy      =      -0.4216734103678664 [Eh]
	 Correlation Energy        =      -0.5470715191703230 [Eh]
	 Total Energy              =    -157.8201236919406938 [Eh]
	-----------------------------------------------------------
	 ================> DF-SCS-MP2 Energies <================== 
	-----------------------------------------------------------
	 SCS Same-Spin Scale       =       0.3333333333333333 [-]
	 SCS Opposite-Spin Scale   =       1.2000000000000000 [-]
	 SCS Same-Spin Energy      =      -0.0417993696008189 [Eh]
	 SCS Opposite-Spin Energy  =      -0.5060080924414396 [Eh]
	 SCS Correlation Energy    =      -0.5478074620422585 [Eh]
	 SCS Total Energy          =    -157.8208596348126491 [Eh]
	-----------------------------------------------------------


  -Total Gradient:
     Atom            X                  Y                   Z
    ------   -----------------  -----------------  -----------------
       1        0.011897471172     0.001447077281    -0.005742190115
       2        0.008755455944    -0.014689998230     0.000237074290
       3        0.006552222218    -0.000303810473     0.013939309799
       4       -0.022695832105    -0.019343380943    -0.007863316875
       5       -0.008250959619    -0.013746685249     0.006523967631
       6       -0.001659521702    -0.009894265367    -0.014336011168
       7        0.018810712188     0.020840595261     0.008854776057
       8       -0.012826593579     0.004194372907     0.010949179175
       9       -0.011998557597     0.005878647162    -0.011168250797
      10        0.029069046451    -0.002571463927     0.002165880488
      11       -0.003699687716     0.017111120997     0.000819751359
      12        0.006571551482     0.005700992193     0.009793360161
      13        0.009063475054     0.006538978314    -0.010203930813
      14       -0.029588782190    -0.001162179928    -0.003969599193


			-----------------------------------------
			 OPTKING 2.0: for geometry optimizations 
			  - R.A. King,  Bethel University        
			-----------------------------------------

	Previous internal coordinate definitions found.
	---Fragment 1 Geometry and Gradient---
	 H          -3.0809532203        0.6106524371        0.8838032027
	 H          -2.8145018356        3.6871265815       -0.2878269997
	 H          -2.2513634480        1.1095401362       -2.2720394392
	 C          -2.0642805608        1.8106285315       -0.3860927586
	 H           1.7661943106        3.0502888747       -0.9114366235
	 H           0.9384942644        2.5532909017        2.2462957445
	 C           0.7495216511        1.8503127803        0.3603490639
	 H           3.1135690433       -0.9786072406       -1.3385147296
	 H           2.8093231359       -1.2734045174        1.9363806587
	 C           1.8304449991       -0.8482161375        0.2186196039
	 H           0.4093709471       -4.6201094987       -0.2538119293
	 H          -1.3216181906       -2.3222025211       -1.8714174990
	 H          -1.6277538241       -2.6169997979        1.4015881631
	 C          -0.3427400537       -2.7455011749       -0.1536564442
	             0.0118974712        0.0014470773       -0.0057421901
	             0.0087554559       -0.0146899982        0.0002370743
	             0.0065522222       -0.0003038105        0.0139393098
	            -0.0226958321       -0.0193433809       -0.0078633169
	            -0.0082509596       -0.0137466852        0.0065239676
	            -0.0016595217       -0.0098942654       -0.0143360112
	             0.0188107122        0.0208405953        0.0088547761
	            -0.0128265936        0.0041943729        0.0109491792
	            -0.0119985576        0.0058786472       -0.0111682508
	             0.0290690465       -0.0025714639        0.0021658805
	            -0.0036996877        0.0171111210        0.0008197514
	             0.0065715515        0.0057009922        0.0097933602
	             0.0090634751        0.0065389783       -0.0102039308
	            -0.0295887822       -0.0011621799       -0.0039695992

	Previous optimization step data not found.  Starting new optimization.

	---Fragment 1 Intrafragment Coordinates---
	 - Coordinate -           - BOHR/RAD -       - ANG/DEG -
	 R(1,4)           =         2.021436	       1.069698
	 R(2,4)           =         2.023298	       1.070683
	 R(3,4)           =         2.020723	       1.069320
	 R(4,7)           =         2.911397	       1.540645
	 R(5,7)           =         2.022623	       1.070326
	 R(6,7)           =         2.021555	       1.069761
	 R(7,10)          =         2.910419	       1.540128
	 R(8,10)          =         2.021899	       1.069943
	 R(9,10)          =         2.022298	       1.070154
	 R(10,14)         =         2.908782	       1.539261
	 R(11,14)         =         2.022340	       1.070176
	 R(12,14)         =         2.021902	       1.069944
	 R(13,14)         =         2.021524	       1.069744
	 B(1,4,2)         =         1.910870	     109.484805
	 B(1,4,3)         =         1.911121	     109.499161
	 B(1,4,7)         =         1.910399	     109.457783
	 B(2,4,3)         =         1.910042	     109.437340
	 B(2,4,7)         =         1.910564	     109.467262
	 B(3,4,7)         =         1.910803	     109.480971
	 B(4,7,5)         =         1.909937	     109.431343
	 B(4,7,6)         =         1.911630	     109.528316
	 B(4,7,10)        =         1.911154	     109.501062
	 B(5,7,6)         =         1.910605	     109.469614
	 B(5,7,10)        =         1.910047	     109.437654
	 B(6,7,10)        =         1.910425	     109.459295
	 B(7,10,8)        =         1.910271	     109.450462
	 B(7,10,9)        =         1.910652	     109.472314
	 B(7,10,14)       =         1.910842	     109.483204
	 B(8,10,9)        =         1.910727	     109.476582
	 B(8,10,14)       =         1.910808	     109.481261
	 B(9,10,14)       =         1.910498	     109.463500
	 B(10,14,11)      =         1.910386	     109.457035
	 B(10,14,12)      =         1.911214	     109.504522
	 B(10,14,13)      =         1.912389	     109.571823
	 B(11,14,12)      =         1.909261	     109.392620
	 B(11,14,13)      =         1.910735	     109.477062
	 B(12,14,13)      =         1.909811	     109.424114
	 D(1,4,7,5)       =         3.140997	     179.965873
	 D(1,4,7,6)       =        -1.047644	     -60.025575
	 D(1,4,7,10)      =         1.047427	      60.013132
	 D(2,4,7,5)       =        -1.047689	     -60.028143
	 D(2,4,7,6)       =         1.046856	      59.980409
	 D(2,4,7,10)      =        -3.141259	    -179.980883
	 D(3,4,7,5)       =         1.046044	      59.933911
	 D(3,4,7,6)       =         3.140588	     179.942463
	 D(3,4,7,10)      =        -1.047526	     -60.018830
	 D(4,7,10,8)      =         1.919680	     109.989545
	 D(4,7,10,9)      =        -2.269206	    -130.015929
	 D(4,7,10,14)     =        -0.174836	     -10.017376
	 D(5,7,10,8)      =        -0.173823	      -9.959331
	 D(5,7,10,9)      =         1.920476	     110.035195
	 D(5,7,10,14)     =        -2.268339	    -129.966252
	 D(6,7,10,8)      =        -2.267698	    -129.929529
	 D(6,7,10,9)      =        -0.173399	      -9.935004
	 D(6,7,10,14)     =         1.920971	     110.063550
	 D(7,10,14,11)    =         3.140650	     179.945993
	 D(7,10,14,12)    =         1.047731	      60.030555
	 D(7,10,14,13)    =        -1.047091	     -59.993871
	 D(8,10,14,11)    =         1.046463	      59.957929
	 D(8,10,14,12)    =        -1.046456	     -59.957509
	 D(8,10,14,13)    =        -3.141277	    -179.981936
	 D(9,10,14,11)    =        -1.048071	     -60.050057
	 D(9,10,14,12)    =        -3.140990	    -179.965496
	 D(9,10,14,13)    =         1.047373	      60.010078

	Current energy   :      -157.8201236919

	Generating empirical Hessian (Schlegel '84) for each fragment.
	Adding user-defined constraint: Fragment 1; Coordinate 49:
		Value =    -0.174836; Fixed value    =    -0.174530
		Force =     0.000153; Force constant =     0.500000
	Removing off-diagonal coupling between coordinate 49 and others.
	Taking RFO optimization step.
	Going to follow RFO solution 1.
	Using RFO vector 1.

	Determining step-restricting scale parameter for RS-RFO.
	Maximum step size allowed    0.10000

	 Iter      |step|        alpha        rfo_root  
	------------------------------------------------
	    0     0.51897       1.00000           1
	    1     0.33871       4.21879           1
	    2     0.22347      12.94912           1
	    3     0.15567      30.91319           1
	    4     0.11935      56.57053           1
	    5     0.10381      77.05501           1
	    6     0.10020      83.27579           1
	    7     0.10000      83.64658           1
	------------------------------------------------
	Norm of target step-size    0.10000
	Projected energy change by RFO approximation:        -0.0138168546

	Back-transformation to cartesian coordinates...
	Could not converge backtransformation.
	Using first guess instead.

	--- Internal Coordinate Step in ANG or DEG, aJ/ANG or AJ/DEG ---
	 ---------------------------------------------------------------------------
	   Coordinate                Previous        Force       Change         New 
	   ----------                --------       ------       ------       ------
	    1 R(1,4)          =      1.069698     0.086096     0.004486     1.074183
	    2 R(2,4)          =      1.070683     0.138897     0.007291     1.077973
	    3 R(3,4)          =      1.069320     0.111312     0.005206     1.074526
	    4 R(4,7)          =      1.540645     0.033418     0.003579     1.544224
	    5 R(5,7)          =      1.070326     0.135157     0.005832     1.076158
	    6 R(6,7)          =      1.069761     0.139812     0.005922     1.075682
	    7 R(7,10)         =      1.540128     0.313020     0.013927     1.554055
	    8 R(8,10)         =      1.069943     0.138763     0.005879     1.075822
	    9 R(9,10)         =      1.070154     0.136188     0.005876     1.076030
	   10 R(10,14)        =      1.539261     0.039066     0.003836     1.543097
	   11 R(11,14)        =      1.070176     0.142346     0.007434     1.077610
	   12 R(12,14)        =      1.069944     0.084927     0.004437     1.074381
	   13 R(13,14)        =      1.069744     0.108718     0.005099     1.074843
	   14 B(1,4,2)        =    109.484805    -0.000462    -0.240313   109.244492
	   15 B(1,4,3)        =    109.499161    -0.000306    -0.266489   109.232672
	   16 B(1,4,7)        =    109.457783     0.000687     0.419322   109.877105
	   17 B(2,4,3)        =    109.437340    -0.000429    -0.224834   109.212507
	   18 B(2,4,7)        =    109.467262    -0.000004     0.005948   109.473210
	   19 B(3,4,7)        =    109.480971     0.000513     0.302859   109.783831
	   20 B(4,7,5)        =    109.431343    -0.001714    -0.916488   108.514855
	   21 B(4,7,6)        =    109.528316    -0.001538    -0.843917   108.684399
	   22 B(4,7,10)       =    109.501062     0.005481     3.003644   112.504706
	   23 B(5,7,6)        =    109.469614     0.000682     0.298632   109.768245
	   24 B(5,7,10)       =    109.437654    -0.001436    -0.766875   108.670779
	   25 B(6,7,10)       =    109.459295    -0.001475    -0.783650   108.675644
	   26 B(7,10,8)       =    109.450462    -0.001476    -0.784078   108.666384
	   27 B(7,10,9)       =    109.472314    -0.001444    -0.771413   108.700902
	   28 B(7,10,14)      =    109.483204     0.005491     3.008791   112.491995
	   29 B(8,10,9)       =    109.476582     0.000683     0.298946   109.775528
	   30 B(8,10,14)      =    109.481261    -0.001534    -0.841244   108.640017
	   31 B(9,10,14)      =    109.463500    -0.001720    -0.919247   108.544253
	   32 B(10,14,11)     =    109.457035     0.000004     0.010315   109.467350
	   33 B(10,14,12)     =    109.504522     0.000676     0.413309   109.917830
	   34 B(10,14,13)     =    109.571823     0.000502     0.297018   109.868841
	   35 B(11,14,12)     =    109.392620    -0.000454    -0.236218   109.156401
	   36 B(11,14,13)     =    109.477062    -0.000433    -0.227847   109.249214
	   37 B(12,14,13)     =    109.424114    -0.000296    -0.261003   109.163111
	   38 D(1,4,7,5)      =    179.965873     0.000168     0.386745   180.352618
	   39 D(1,4,7,6)      =    -60.025575    -0.000097    -0.296251   -60.321826
	   40 D(1,4,7,10)     =     60.013132     0.000044     0.062703    60.075835
	   41 D(2,4,7,5)      =    -60.028143     0.000135     0.353222   -59.674921
	   42 D(2,4,7,6)      =     59.980409    -0.000131    -0.329774    59.650636
	   43 D(2,4,7,10)     =   -179.980883     0.000010     0.029180  -179.951703
	   44 D(3,4,7,5)      =     59.933911     0.000086     0.266925    60.200835
	   45 D(3,4,7,6)      =    179.942463    -0.000180    -0.416071   179.526392
	   46 D(3,4,7,10)     =    -60.018830    -0.000039    -0.057118   -60.075947
	   47 D(4,7,10,8)     =    109.989545     0.000077     0.216047   110.205592
	   48 D(4,7,10,9)     =   -130.015929    -0.000141    -0.347121  -130.363050
	   49 D(4,7,10,14)    =    -10.017376    -0.000056    -0.109716   -10.127092
	   50 D(5,7,10,8)     =     -9.959331    -0.000008    -0.021852    -9.981183
	   51 D(5,7,10,9)     =    110.035195    -0.000227    -0.585020   109.450175
	   52 D(5,7,10,14)    =   -129.966252    -0.000141    -0.347615  -130.313867
	   53 D(6,7,10,8)     =   -129.929529     0.000208     0.537827  -129.391702
	   54 D(6,7,10,9)     =     -9.935004    -0.000010    -0.025341    -9.960344
	   55 D(6,7,10,14)    =    110.063550     0.000076     0.212064   110.275614
	   56 D(7,10,14,11)   =    179.945993     0.000011     0.032694   179.978687
	   57 D(7,10,14,12)   =     60.030555     0.000044     0.062489    60.093043
	   58 D(7,10,14,13)   =    -59.993871    -0.000039    -0.057910   -60.051782
	   59 D(8,10,14,11)   =     59.957929    -0.000130    -0.327134    59.630795
	   60 D(8,10,14,12)   =    -59.957509    -0.000098    -0.297339   -60.254848
	   61 D(8,10,14,13)   =   -179.981936    -0.000180    -0.417737  -180.399673
	   62 D(9,10,14,11)   =    -60.050057     0.000135     0.355105   -59.694952
	   63 D(9,10,14,12)   =   -179.965496     0.000168     0.384900  -179.580596
	   64 D(9,10,14,13)   =     60.010078     0.000085     0.264501    60.274579
	 ---------------------------------------------------------------------------
	 Forces used to impose fixed constraints are not included.
	  Forces zeroed: 49 

  ==> Convergence Check <==

  Measures of convergence in internal coordinates in au.
  Criteria marked as inactive (o), active & met (*), and active & unmet ( ).
  --------------------------------------------------------------------------------------------- ~
   Step     Total Energy     Delta E     MAX Force     RMS Force      MAX Disp      RMS Disp    ~
  --------------------------------------------------------------------------------------------- ~
    Convergence Criteria    1.00e-06 *    3.00e-04 *             o    1.20e-03 *             o  ~
  --------------------------------------------------------------------------------------------- ~
      1    -157.82012369   -1.58e+02      7.22e-02      1.74e-02 o    5.25e-02      1.27e-02 o  ~
  ---------------------------------------------------------------------------------------------

	Writing optimization data to binary file.
	Structure for next step:
	Cartesian Geometry (in Angstrom)
	    H    -1.6908915337   0.4256951260   0.4647242936
	    H    -1.4632873265   2.0569525994  -0.1405911950
	    H    -1.2444372313   0.6828238036  -1.2096303489
	    C    -1.1154804732   1.0385993453  -0.2039464368
	    H     0.9322427941   1.6047375940  -0.4946208230
	    H     0.4879164952   1.3468656925   1.1889250994
	    C     0.3780969534   0.9796570168   0.1838430474
	    H     1.6391228568  -0.5200931691  -0.7123941856
	    H     1.4743549053  -0.6699333127   1.0337330911
	    C     0.9540538616  -0.4620890863   0.1150770543
	    H     0.3067012588  -2.5057259778  -0.1199411294
	    H    -0.6744259711  -1.3453381582  -0.9953062389
	    H    -0.8374470856  -1.4920542765   0.7423997427
	    C    -0.1447026527  -1.5280902677  -0.0786328063
			--------------------------
			 OPTKING Finished Execution 
			--------------------------

    Structure for next step:
    Molecular point group: c1
    Full point group: C1

    Geometry (in Angstrom), charge = 0, multiplicity = 1:

    H           -1.687191137556     0.427113931508     0.465559555282
    H           -1.459586930406     2.058371404926    -0.139755933284
    H           -1.240736835146     0.684242609181    -1.208795087205
    C           -1.111780077103     1.040018150857    -0.203111175124
    H            0.935943190220     1.606156399562    -0.493785561263
    H            0.491616891379     1.348284498022     1.189760361120
    C            0.381797349576     0.981075822293     0.184678309145
    H            1.642823252884    -0.518674363597    -0.711558923880
    H            1.478055301478    -0.668514507133     1.034568352842
    C            0.957754257719    -0.460670280724     0.115912316070
    H            0.310401654925    -2.504307172211    -0.119105867642
    H           -0.670725574927    -1.343919352673    -0.994470977170
    H           -0.833746689440    -1.490635471005     0.743235004419
    C           -0.141002256523    -1.526671462164    -0.077797544605

gradient() will perform analytic gradient computation.
    SCF Algorithm Type (re)set to DF.

*** tstart() called on lski1497
*** at Thu Feb 16 16:38:27 2017


         ---------------------------------------------------------
                                   SCF
            by Justin Turney, Rob Parrish, and Andy Simmonett
                              RHF Reference
                        1 Threads,   1000 MiB Core
         ---------------------------------------------------------

  ==> Geometry <==

    Molecular point group: c1
    Full point group: C1

    Geometry (in Angstrom), charge = 0, multiplicity = 1:

       Center              X                  Y                   Z               Mass       
    ------------   -----------------  -----------------  -----------------  -----------------
           H         -1.687191137556     0.427113931508     0.465559555282     1.007825032070
           H         -1.459586930406     2.058371404926    -0.139755933284     1.007825032070
           H         -1.240736835146     0.684242609181    -1.208795087205     1.007825032070
           C         -1.111780077103     1.040018150857    -0.203111175124    12.000000000000
           H          0.935943190220     1.606156399562    -0.493785561263     1.007825032070
           H          0.491616891379     1.348284498022     1.189760361120     1.007825032070
           C          0.381797349576     0.981075822293     0.184678309145    12.000000000000
           H          1.642823252884    -0.518674363597    -0.711558923880     1.007825032070
           H          1.478055301478    -0.668514507133     1.034568352842     1.007825032070
           C          0.957754257719    -0.460670280724     0.115912316070    12.000000000000
           H          0.310401654925    -2.504307172211    -0.119105867642     1.007825032070
           H         -0.670725574927    -1.343919352673    -0.994470977170     1.007825032070
           H         -0.833746689440    -1.490635471005     0.743235004419     1.007825032070
           C         -0.141002256523    -1.526671462164    -0.077797544605    12.000000000000

  Running in c1 symmetry.

  Rotational constants: A =      0.38633  B =      0.19249  C =      0.14221 [cm^-1]
  Rotational constants: A =  11581.74234  B =   5770.69319  C =   4263.29495 [MHz]
  Nuclear repulsion =  134.503075223605720

  Charge       = 0
  Multiplicity = 1
  Electrons    = 34
  Nalpha       = 17
  Nbeta        = 17

  ==> Algorithm <==

  SCF Algorithm Type is DF.
  DIIS enabled.
  MOM disabled.
  Fractional occupation disabled.
  Guess Type is READ.
  Energy threshold   = 1.00e-10
  Density threshold  = 1.00e-10
  Integral threshold = 0.00e+00

  ==> Primary Basis <==

  Basis Set: 6-31G(D)
    Number of shells: 44
    Number of basis function: 80
    Number of Cartesian functions: 80
    Spherical Harmonics?: false
    Max angular momentum: 2

  ==> Pre-Iterations <==

   -------------------------------------------------------
    Irrep   Nso     Nmo     Nalpha   Nbeta   Ndocc  Nsocc
   -------------------------------------------------------
     A         80      80       0       0       0       0
   -------------------------------------------------------
    Total      80      80      17      17      17       0
   -------------------------------------------------------

  ==> Integral Setup <==

  ==> DFJK: Density-Fitted J/K Matrices <==

    J tasked:                  Yes
    K tasked:                  Yes
    wK tasked:                  No
    OpenMP threads:              1
    Integrals threads:           1
    Memory (MB):               715
    Algorithm:                Core
    Integral Cache:           NONE
    Schwarz Cutoff:          1E-12
    Fitting Condition:       1E-12

   => Auxiliary Basis Set <=

  Basis Set: 
    Number of shells: 186
    Number of basis function: 574
    Number of Cartesian functions: 574
    Spherical Harmonics?: false
    Max angular momentum: 3

  Minimum eigenvalue in the overlap matrix is 3.7723960629E-03.
  Using Symmetric Orthogonalization.
  SCF Guess was Projection but file not found.
  Switching over to SAD guess.

  SCF Guess: Superposition of Atomic Densities via on-the-fly atomic UHF.

  ==> Iterations <==

                           Total Energy        Delta E     RMS |[F,P]|

   @DF-RHF iter   0:  -158.76656095164151   -1.58767e+02   4.56114e-02 
   @DF-RHF iter   1:  -157.17149105826383    1.59507e+00   4.68360e-03 
   @DF-RHF iter   2:  -157.27054887004931   -9.90578e-02   1.57763e-03 DIIS
   @DF-RHF iter   3:  -157.28151940580278   -1.09705e-02   6.05063e-04 DIIS
   @DF-RHF iter   4:  -157.28338704735052   -1.86764e-03   8.43877e-05 DIIS
   @DF-RHF iter   5:  -157.28344046070595   -5.34134e-05   1.82551e-05 DIIS
   @DF-RHF iter   6:  -157.28344280825837   -2.34755e-06   4.84078e-06 DIIS
   @DF-RHF iter   7:  -157.28344293199279   -1.23734e-07   1.20110e-06 DIIS
   @DF-RHF iter   8:  -157.28344294225826   -1.02655e-08   2.86870e-07 DIIS
   @DF-RHF iter   9:  -157.28344294293470   -6.76437e-10   7.71678e-08 DIIS
   @DF-RHF iter  10:  -157.28344294297966   -4.49631e-11   2.24196e-08 DIIS
   @DF-RHF iter  11:  -157.28344294298222   -2.55795e-12   4.91728e-09 DIIS
   @DF-RHF iter  12:  -157.28344294298245   -2.27374e-13   1.06370e-09 DIIS
   @DF-RHF iter  13:  -157.28344294298245    0.00000e+00   2.24751e-10 DIIS
   @DF-RHF iter  14:  -157.28344294298228    1.70530e-13   7.60592e-11 DIIS

  ==> Post-Iterations <==

    Orbital Energies (a.u.)
    -----------------------

    Doubly Occupied:                                                      

       1A    -11.210120     2A    -11.209587     3A    -11.202115  
       4A    -11.202037     5A     -1.068912     6A     -0.969872  
       7A     -0.883134     8A     -0.769528     9A     -0.645229  
      10A     -0.618223    11A     -0.567493    12A     -0.533576  
      13A     -0.527285    14A     -0.520560    15A     -0.455755  
      16A     -0.453217    17A     -0.452361  

    Virtual:                                                              

      18A      0.226506    19A      0.276008    20A      0.281468  
      21A      0.301260    22A      0.305829    23A      0.313940  
      24A      0.352543    25A      0.361822    26A      0.370757  
      27A      0.379048    28A      0.426840    29A      0.431557  
      30A      0.487114    31A      0.707325    32A      0.733093  
      33A      0.743787    34A      0.780342    35A      0.794131  
      36A      0.805146    37A      0.858916    38A      0.919062  
      39A      0.935320    40A      1.008379    41A      1.121776  
      42A      1.145397    43A      1.158605    44A      1.170995  
      45A      1.184859    46A      1.199167    47A      1.206212  
      48A      1.215685    49A      1.221283    50A      1.266043  
      51A      1.269140    52A      1.282642    53A      1.324407  
      54A      1.613808    55A      1.676892    56A      1.711698  
      57A      1.715823    58A      1.933906    59A      2.088693  
      60A      2.146904    61A      2.174318    62A      2.269293  
      63A      2.286494    64A      2.325030    65A      2.367954  
      66A      2.427859    67A      2.545509    68A      2.579276  
      69A      2.649471    70A      2.692521    71A      2.712635  
      72A      2.742400    73A      2.813050    74A      2.899358  
      75A      2.985208    76A      3.089272    77A      4.564982  
      78A      4.718480    79A      4.770766    80A      5.013270  

    Final Occupation by Irrep:
              A 
    DOCC [    17 ]

  Energy converged.

  @DF-RHF Final Energy:  -157.28344294298228

   => Energetics <=

    Nuclear Repulsion Energy =            134.5030752236057197
    One-Electron Energy =                -476.9950313171838729
    Two-Electron Energy =                 185.2085131505959907
    DFT Exchange-Correlation Energy =       0.0000000000000000
    Empirical Dispersion Energy =           0.0000000000000000
    PCM Polarization Energy =               0.0000000000000000
    EFP Energy =                            0.0000000000000000
    Total Energy =                       -157.2834429429821625


  Saving occupied orbitals to File 180.

*** tstop() called on lski1497 at Thu Feb 16 16:38:33 2017
Module time:
	user time   =       4.91 seconds =       0.08 minutes
	system time =       0.14 seconds =       0.00 minutes
	total time  =          6 seconds =       0.10 minutes
Total time:
	user time   =      28.11 seconds =       0.47 minutes
	system time =       0.81 seconds =       0.01 minutes
	total time  =         32 seconds =       0.53 minutes


Properties will be evaluated at   0.000000,   0.000000,   0.000000 Bohr

Properties computed using the SCF density matrix

  Nuclear Dipole Moment: (a.u.)
     X:    -0.9685      Y:    -0.3768      Z:    -0.2197

  Electronic Dipole Moment: (a.u.)
     X:     0.9988      Y:     0.3882      Z:     0.2262

  Dipole Moment: (a.u.)
     X:     0.0303      Y:     0.0115      Z:     0.0065     Total:     0.0330

  Dipole Moment: (Debye)
     X:     0.0769      Y:     0.0292      Z:     0.0166     Total:     0.0839


  //>>>>>>>>>>>>>>>>>>>>>>>>>>>>>>>>>>>//
  //               DFMP2               //
  //<<<<<<<<<<<<<<<<<<<<<<<<<<<<<<<<<<<//


*** tstart() called on lski1497
*** at Thu Feb 16 16:38:33 2017


*** tstop() called on lski1497 at Thu Feb 16 16:38:34 2017
Module time:
	user time   =       0.51 seconds =       0.01 minutes
	system time =       0.00 seconds =       0.00 minutes
	total time  =          1 seconds =       0.02 minutes
Total time:
	user time   =      28.64 seconds =       0.48 minutes
	system time =       0.81 seconds =       0.01 minutes
	total time  =         33 seconds =       0.55 minutes
	 --------------------------------------------------------
	                          DF-MP2                         
	      2nd-Order Density-Fitted Moller-Plesset Theory     
	              RMP2 Wavefunction,   1 Threads             
	                                                         
	        Rob Parrish, Justin Turney, Andy Simmonett,      
	           Ed Hohenstein, and C. David Sherrill          
	 --------------------------------------------------------

   => Auxiliary Basis Set <=

  Basis Set: 
    Number of shells: 132
    Number of basis function: 364
    Number of Cartesian functions: 414
    Spherical Harmonics?: true
    Max angular momentum: 3

	 --------------------------------------------------------
	                 NBF =    80, NAUX =   364
	 --------------------------------------------------------
	   CLASS    FOCC     OCC    AOCC    AVIR     VIR    FVIR
	   PAIRS       0      17      17      63      63       0
	 --------------------------------------------------------

DGAS Warning! /src/lib/libfock/apps.cc:80 is not currently checking restricted

         ------------------------------------------------------------
                                     CPHF                           
                                  Rob Parrish                       
         ------------------------------------------------------------

  ==> Geometry <==

    Molecular point group: c1
    Full point group: C1

    Geometry (in Angstrom), charge = 0, multiplicity = 1:

       Center              X                  Y                   Z               Mass       
    ------------   -----------------  -----------------  -----------------  -----------------
           H         -1.687191137556     0.427113931508     0.465559555282     1.007825032070
           H         -1.459586930406     2.058371404926    -0.139755933284     1.007825032070
           H         -1.240736835146     0.684242609181    -1.208795087205     1.007825032070
           C         -1.111780077103     1.040018150857    -0.203111175124    12.000000000000
           H          0.935943190220     1.606156399562    -0.493785561263     1.007825032070
           H          0.491616891379     1.348284498022     1.189760361120     1.007825032070
           C          0.381797349576     0.981075822293     0.184678309145    12.000000000000
           H          1.642823252884    -0.518674363597    -0.711558923880     1.007825032070
           H          1.478055301478    -0.668514507133     1.034568352842     1.007825032070
           C          0.957754257719    -0.460670280724     0.115912316070    12.000000000000
           H          0.310401654925    -2.504307172211    -0.119105867642     1.007825032070
           H         -0.670725574927    -1.343919352673    -0.994470977170     1.007825032070
           H         -0.833746689440    -1.490635471005     0.743235004419     1.007825032070
           C         -0.141002256523    -1.526671462164    -0.077797544605    12.000000000000

  Nuclear repulsion =  134.503075223605720
  Reference energy  = -157.283442942982276

  ==> Basis Set <==

  Basis Set: 6-31G(D)
    Number of shells: 44
    Number of basis function: 80
    Number of Cartesian functions: 80
    Spherical Harmonics?: false
    Max angular momentum: 2

  ==> CGRSolver (by Rob Parrish) <==

   Number of roots    =         1
   Preconditioning    =    JACOBI
   Convergence cutoff =     1E-06
   Maximum iterations =       100

  ==> CPHFRHamiltonian (by Rob Parrish) <== 

  ==> DFJK: Density-Fitted J/K Matrices <==

    J tasked:                  Yes
    K tasked:                  Yes
    wK tasked:                  No
    OpenMP threads:              1
    Integrals threads:           1
    Memory (MB):               715
    Algorithm:                Core
    Integral Cache:           NONE
    Schwarz Cutoff:          1E-12
    Fitting Condition:       1E-12

   => Auxiliary Basis Set <=

  Basis Set: 
    Number of shells: 186
    Number of basis function: 574
    Number of Cartesian functions: 574
    Spherical Harmonics?: false
    Max angular momentum: 3

  ==> CPHF Iterations <==

  => Iterations <=

             Iter  Converged  Remaining    Residual
  CGR           1          0          1   7.479E-02
  CGR           2          0          1   8.581E-03
  CGR           3          0          1   2.143E-03
  CGR           4          0          1   4.245E-04
  CGR           5          0          1   7.484E-05
  CGR           6          0          1   1.333E-05
  CGR           7          0          1   1.686E-06
  CGR           8          1          0   4.244E-07

    CGRSolver converged.

  ==> DFCorrGrad: Density-Fitted Correlated Gradients <==

    OpenMP threads:              1
    Integrals threads:           1
    Memory (MB):               715
    Schwarz Cutoff:          0E+00
    Fitting Condition:       1E-12

   => Auxiliary Basis Set <=

  Basis Set: 
    Number of shells: 186
    Number of basis function: 510
    Number of Cartesian functions: 574
    Spherical Harmonics?: true
    Max angular momentum: 3

	-----------------------------------------------------------
	 ==================> DF-MP2 Energies <==================== 
	-----------------------------------------------------------
	 Reference Energy          =    -157.2834429429822762 [Eh]
	 Singles Energy            =      -0.0000000000000000 [Eh]
	 Same-Spin Energy          =      -0.1246221539670749 [Eh]
	 Opposite-Spin Energy      =      -0.4215780406710626 [Eh]
	 Correlation Energy        =      -0.5462001946381375 [Eh]
	 Total Energy              =    -157.8296431376204225 [Eh]
	-----------------------------------------------------------
	 ================> DF-SCS-MP2 Energies <================== 
	-----------------------------------------------------------
	 SCS Same-Spin Scale       =       0.3333333333333333 [-]
	 SCS Opposite-Spin Scale   =       1.2000000000000000 [-]
	 SCS Same-Spin Energy      =      -0.0415407179890250 [Eh]
	 SCS Opposite-Spin Energy  =      -0.5058936488052751 [Eh]
	 SCS Correlation Energy    =      -0.5474343667943000 [Eh]
	 SCS Total Energy          =    -157.8308773097765823 [Eh]
	-----------------------------------------------------------


  -Total Gradient:
     Atom            X                  Y                   Z
    ------   -----------------  -----------------  -----------------
       1        0.009466232084     0.003531780401    -0.005388847054
       2        0.005598854076    -0.009491885662     0.000186316559
       3        0.005180401263     0.001352928188     0.011246915004
       4       -0.023290697189    -0.007282377352    -0.006218234885
       5       -0.007211687849    -0.010967375445     0.003035612469
       6       -0.002480658797    -0.008742950734    -0.009912363836
       7        0.016905238925     0.020629059514     0.007129023627
       8       -0.010996588671     0.003452163925     0.006784441271
       9       -0.010790279939     0.003963403683    -0.007149095760
      10        0.027086493706    -0.003809936954     0.002955245731
      11       -0.002438220678     0.011041901156     0.000433524837
      12        0.006464132379     0.002608435780     0.008899559525
      13        0.008273947228     0.003995384380    -0.008076390504
      14       -0.021767166536    -0.010280530882    -0.003925706984


			-----------------------------------------
			 OPTKING 2.0: for geometry optimizations 
			  - R.A. King,  Bethel University        
			-----------------------------------------

	Previous internal coordinate definitions found.
	---Fragment 1 Geometry and Gradient---
	 H          -3.1883291838        0.8071283581        0.8797800580
	 H          -2.7582195656        3.8897582351       -0.2641004394
	 H          -2.3446528214        1.2930311398       -2.2842916656
	 C          -2.1009598657        1.9653494784       -0.3838244955
	 H           1.7686763055        3.0351957218       -0.9331194792
	 H           0.9290212870        2.5478884505        2.2483212463
	 C           0.7214924290        1.8539646197        0.3489914270
	 H           3.1044860327       -0.9801524993       -1.3446514935
	 H           2.7931197291       -1.2633093343        1.9550508526
	 C           1.8098932497       -0.8705406681        0.2190425328
	 H           0.5865741190       -4.7324547081       -0.2250774707
	 H          -1.2674876469       -2.5396395212       -1.8792777940
	 H          -1.5755529072       -2.8168928042        1.4045106107
	 C          -0.2664556489       -2.8849909584       -0.1470160531
	             0.0094662321        0.0035317804       -0.0053888471
	             0.0055988541       -0.0094918857        0.0001863166
	             0.0051804013        0.0013529282        0.0112469150
	            -0.0232906972       -0.0072823774       -0.0062182349
	            -0.0072116878       -0.0109673754        0.0030356125
	            -0.0024806588       -0.0087429507       -0.0099123638
	             0.0169052389        0.0206290595        0.0071290236
	            -0.0109965887        0.0034521639        0.0067844413
	            -0.0107902799        0.0039634037       -0.0071490958
	             0.0270864937       -0.0038099370        0.0029552457
	            -0.0024382207        0.0110419012        0.0004335248
	             0.0064641324        0.0026084358        0.0088995595
	             0.0082739472        0.0039953844       -0.0080763905
	            -0.0217671665       -0.0102805309       -0.0039257070

	---Fragment 1 Intrafragment Coordinates---
	 - Coordinate -           - BOHR/RAD -       - ANG/DEG -
	 R(1,4)           =         2.029912	       1.074183
	 R(2,4)           =         2.037075	       1.077973
	 R(3,4)           =         2.030560	       1.074526
	 R(4,7)           =         2.918161	       1.544224
	 R(5,7)           =         2.033644	       1.076158
	 R(6,7)           =         2.032745	       1.075682
	 R(7,10)          =         2.936738	       1.554055
	 R(8,10)          =         2.033009	       1.075822
	 R(9,10)          =         2.033403	       1.076030
	 R(10,14)         =         2.916030	       1.543097
	 R(11,14)         =         2.036388	       1.077610
	 R(12,14)         =         2.030287	       1.074381
	 R(13,14)         =         2.031159	       1.074843
	 B(1,4,2)         =         1.906676	     109.244492
	 B(1,4,3)         =         1.906470	     109.232672
	 B(1,4,7)         =         1.917717	     109.877105
	 B(2,4,3)         =         1.906118	     109.212507
	 B(2,4,7)         =         1.910668	     109.473210
	 B(3,4,7)         =         1.916089	     109.783831
	 B(4,7,5)         =         1.893942	     108.514855
	 B(4,7,6)         =         1.896901	     108.684399
	 B(4,7,10)        =         1.963578	     112.504706
	 B(5,7,6)         =         1.915817	     109.768245
	 B(5,7,10)        =         1.896663	     108.670779
	 B(6,7,10)        =         1.896748	     108.675644
	 B(7,10,8)        =         1.896586	     108.666384
	 B(7,10,9)        =         1.897189	     108.700902
	 B(7,10,14)       =         1.963356	     112.491995
	 B(8,10,9)        =         1.915944	     109.775528
	 B(8,10,14)       =         1.896126	     108.640017
	 B(9,10,14)       =         1.894455	     108.544253
	 B(10,14,11)      =         1.910566	     109.467350
	 B(10,14,12)      =         1.918428	     109.917830
	 B(10,14,13)      =         1.917573	     109.868841
	 B(11,14,12)      =         1.905139	     109.156401
	 B(11,14,13)      =         1.906758	     109.249214
	 B(12,14,13)      =         1.905256	     109.163111
	 D(1,4,7,5)       =        -3.135438	    -179.647382
	 D(1,4,7,6)       =        -1.052814	     -60.321826
	 D(1,4,7,10)      =         1.048521	      60.075835
	 D(2,4,7,5)       =        -1.041524	     -59.674921
	 D(2,4,7,6)       =         1.041100	      59.650636
	 D(2,4,7,10)      =        -3.140750	    -179.951703
	 D(3,4,7,5)       =         1.050703	      60.200835
	 D(3,4,7,6)       =         3.133327	     179.526392
	 D(3,4,7,10)      =        -1.048523	     -60.075947
	 D(4,7,10,8)      =         1.923450	     110.205592
	 D(4,7,10,9)      =        -2.275264	    -130.363050
	 D(4,7,10,14)     =        -0.176751	     -10.127092
	 D(5,7,10,8)      =        -0.174205	      -9.981183
	 D(5,7,10,9)      =         1.910266	     109.450175
	 D(5,7,10,14)     =        -2.274406	    -130.313867
	 D(6,7,10,8)      =        -2.258311	    -129.391702
	 D(6,7,10,9)      =        -0.173841	      -9.960344
	 D(6,7,10,14)     =         1.924673	     110.275614
	 D(7,10,14,11)    =         3.141221	     179.978687
	 D(7,10,14,12)    =         1.048821	      60.093043
	 D(7,10,14,13)    =        -1.048101	     -60.051782
	 D(8,10,14,11)    =         1.040754	      59.630795
	 D(8,10,14,12)    =        -1.051645	     -60.254848
	 D(8,10,14,13)    =         3.134617	     179.600327
	 D(9,10,14,11)    =        -1.041873	     -59.694952
	 D(9,10,14,12)    =        -3.134273	    -179.580596
	 D(9,10,14,13)    =         1.051990	      60.274579

	Current energy   :      -157.8296431376

	Energy change for the previous step:
		Projected    :        -0.0138168546
		Actual       :        -0.0095194457

	Performing BFGS update.
	Previous computed or guess Hessian on step 1.
	Steps to be used in Hessian update: 1
	Adding user-defined constraint: Fragment 1; Coordinate 49:
		Value =    -0.176751; Fixed value    =    -0.174530
		Force =     0.001166; Force constant =     0.525000
	Removing off-diagonal coupling between coordinate 49 and others.
	Taking RFO optimization step.
	Going to follow RFO solution 1.
	Using RFO vector 1.

	Determining step-restricting scale parameter for RS-RFO.
	Maximum step size allowed    0.10000

	 Iter      |step|        alpha        rfo_root  
	------------------------------------------------
	    0     0.19828       1.00000           1
	    1     0.15100       6.20996           1
	    2     0.12049      16.49226           1
	    3     0.10497      27.35995           1
	    4     0.10040      31.88364           1
	    5     0.10000      32.31719           1
	------------------------------------------------
	Norm of target step-size    0.10000
	Projected energy change by RFO approximation:        -0.0053397353

	Back-transformation to cartesian coordinates...
	Successfully converged to displaced geometry.

	--- Internal Coordinate Step in ANG or DEG, aJ/ANG or AJ/DEG ---
	 ---------------------------------------------------------------------------
	   Coordinate                Previous        Force       Change         New 
	   ----------                --------       ------       ------       ------
	    1 R(1,4)          =      1.074183     0.086016     0.012320     1.086503
	    2 R(2,4)          =      1.077973     0.088669     0.010907     1.088880
	    3 R(3,4)          =      1.074526     0.095536     0.012802     1.087328
	    4 R(4,7)          =      1.544224    -0.020887    -0.005327     1.538897
	    5 R(5,7)          =      1.076158     0.098845     0.012232     1.088390
	    6 R(6,7)          =      1.075682     0.102981     0.012718     1.088400
	    7 R(7,10)         =      1.554055     0.096551     0.003635     1.557690
	    8 R(8,10)         =      1.075822     0.102217     0.012628     1.088450
	    9 R(9,10)         =      1.076030     0.099578     0.012318     1.088349
	   10 R(10,14)        =      1.543097    -0.016380    -0.004648     1.538449
	   11 R(11,14)        =      1.077610     0.091083     0.011190     1.088800
	   12 R(12,14)        =      1.074381     0.085161     0.012220     1.086601
	   13 R(13,14)        =      1.074843     0.093657     0.012581     1.087425
	   14 B(1,4,2)        =    109.244492    -0.000292    -0.546912   108.697580
	   15 B(1,4,3)        =    109.232672    -0.000256    -0.628105   108.604568
	   16 B(1,4,7)        =    109.877105     0.000400     0.727755   110.604859
	   17 B(2,4,3)        =    109.212507    -0.000291    -0.576090   108.636417
	   18 B(2,4,7)        =    109.473210     0.000074     0.242352   109.715562
	   19 B(3,4,7)        =    109.783831     0.000358     0.747054   110.530884
	   20 B(4,7,5)        =    108.514855    -0.000597    -0.387773   108.127082
	   21 B(4,7,6)        =    108.684399    -0.000565    -0.428773   108.255626
	   22 B(4,7,10)       =    112.504706     0.001981     1.460048   113.964754
	   23 B(5,7,6)        =    109.768245     0.000078    -0.486861   109.281384
	   24 B(5,7,10)       =    108.670779    -0.000456    -0.119787   108.550992
	   25 B(6,7,10)       =    108.675644    -0.000457    -0.086907   108.588738
	   26 B(7,10,8)       =    108.666384    -0.000459    -0.086200   108.580184
	   27 B(7,10,9)       =    108.700902    -0.000461    -0.142927   108.557975
	   28 B(7,10,14)      =    112.491995     0.001989     1.476514   113.968509
	   29 B(8,10,9)       =    109.775528     0.000079    -0.486684   109.288844
	   30 B(8,10,14)      =    108.640017    -0.000562    -0.421369   108.218648
	   31 B(9,10,14)      =    108.544253    -0.000601    -0.389424   108.154829
	   32 B(10,14,11)     =    109.467350     0.000079     0.258099   109.725450
	   33 B(10,14,12)     =    109.917830     0.000389     0.704410   110.622240
	   34 B(10,14,13)     =    109.868841     0.000347     0.726551   110.595392
	   35 B(11,14,12)     =    109.156401    -0.000284    -0.526818   108.629583
	   36 B(11,14,13)     =    109.249214    -0.000294    -0.590207   108.659007
	   37 B(12,14,13)     =    109.163111    -0.000247    -0.607547   108.555564
	   38 D(1,4,7,5)      =   -179.647382     0.000082     0.586885  -179.060497
	   39 D(1,4,7,6)      =    -60.321826    -0.000050    -0.453900   -60.775726
	   40 D(1,4,7,10)     =     60.075835     0.000019     0.075958    60.151793
	   41 D(2,4,7,5)      =    -59.674921     0.000066     0.517957   -59.156964
	   42 D(2,4,7,6)      =     59.650636    -0.000065    -0.522829    59.127807
	   43 D(2,4,7,10)     =   -179.951703     0.000004     0.007029  -179.944674
	   44 D(3,4,7,5)      =     60.200835     0.000045     0.423451    60.624286
	   45 D(3,4,7,6)      =    179.526392    -0.000087    -0.617335   178.909057
	   46 D(3,4,7,10)     =    -60.075947    -0.000017    -0.087477   -60.163424
	   47 D(4,7,10,8)     =    110.205592     0.000036     0.208736   110.414328
	   48 D(4,7,10,9)     =   -130.363050    -0.000065    -0.506986  -130.870036
	   49 D(4,7,10,14)    =    -10.127092    -0.000020    -0.149388   -10.276480
	   50 D(5,7,10,8)     =     -9.981183    -0.000009    -0.155254   -10.136437
	   51 D(5,7,10,9)     =    109.450175    -0.000110    -0.870976   108.579199
	   52 D(5,7,10,14)    =   -130.313867    -0.000065    -0.513378  -130.827245
	   53 D(6,7,10,8)     =   -129.391702     0.000091     0.547676  -128.844026
	   54 D(6,7,10,9)     =     -9.960344    -0.000010    -0.168046   -10.128391
	   55 D(6,7,10,14)    =    110.275614     0.000034     0.189552   110.465166
	   56 D(7,10,14,11)   =    179.978687     0.000005     0.030836   180.009523
	   57 D(7,10,14,12)   =     60.093043     0.000019     0.079999    60.173042
	   58 D(7,10,14,13)   =    -60.051782    -0.000018    -0.082626   -60.134407
	   59 D(8,10,14,11)   =     59.630795    -0.000064    -0.513891    59.116905
	   60 D(8,10,14,12)   =    -60.254848    -0.000051    -0.464727   -60.719575
	   61 D(8,10,14,13)   =    179.600327    -0.000087    -0.627352   178.972975
	   62 D(9,10,14,11)   =    -59.694952     0.000067     0.523268   -59.171684
	   63 D(9,10,14,12)   =   -179.580596     0.000081     0.572431  -179.008164
	   64 D(9,10,14,13)   =     60.274579     0.000044     0.409807    60.684386
	 ---------------------------------------------------------------------------
	 Forces used to impose fixed constraints are not included.
	  Forces zeroed: 49 

  ==> Convergence Check <==

  Measures of convergence in internal coordinates in au.
  Criteria marked as inactive (o), active & met (*), and active & unmet ( ).
  ---------------------------------------------------------------------------------------------
   Step     Total Energy     Delta E     MAX Force     RMS Force      MAX Disp      RMS Disp   
  ---------------------------------------------------------------------------------------------
    Convergence Criteria    1.00e-06 *    3.00e-04 *             o    1.20e-03 *             o
  ---------------------------------------------------------------------------------------------
      2    -157.82964314   -9.52e-03      2.61e-02      7.58e-03 o    2.58e-02      1.25e-02 o  ~
  ---------------------------------------------------------------------------------------------

	Writing optimization data to binary file.
	Structure for next step:
	Cartesian Geometry (in Angstrom)
	    H    -1.7112425894   0.4744630088   0.5051453257
	    H    -1.4535666942   2.1080649658  -0.1190499393
	    H    -1.3048297310   0.7142589639  -1.1960022911
	    C    -1.1233529375   1.0725977859  -0.1855862088
	    H     0.9213095951   1.6066579227  -0.5449655682
	    H     0.5159209143   1.3666360335   1.1666387065
	    C     0.3738662058   0.9820332818   0.1584143850
	    H     1.6265714513  -0.5277590183  -0.7596479185
	    H     1.5088171103  -0.6554958195   1.0071773634
	    C     0.9520082634  -0.4628726531   0.0921020673
	    H     0.3594532895  -2.5356436196  -0.0963778761
	    H    -0.6885010775  -1.4135671433  -0.9709060060
	    H    -0.8046738174  -1.5395368582   0.7857544236
	    C    -0.1181575857  -1.5579666436  -0.0573636348
			--------------------------
			 OPTKING Finished Execution 
			--------------------------

    Structure for next step:
    Molecular point group: c1
    Full point group: C1

    Geometry (in Angstrom), charge = 0, multiplicity = 1:

    H           -1.710787345306     0.474455525119     0.507438326296
    H           -1.453111450085     2.108057482139    -0.116756938751
    H           -1.304374486840     0.714251480195    -1.193709290539
    C           -1.122897693352     1.072590302245    -0.183293208178
    H            0.921764839259     1.606650439071    -0.542672567640
    H            0.516376158421     1.366628549858     1.168931707129
    C            0.374321449947     0.982025798080     0.160707385534
    H            1.627026695403    -0.527766501947    -0.757354917927
    H            1.509272354426    -0.655503303206     1.009470364020
    C            0.952463507526    -0.462880136752     0.094395067888
    H            0.359908533650    -2.535651103309    -0.094084875526
    H           -0.688045833355    -1.413574626968    -0.968613005467
    H           -0.804218573302    -1.539544341915     0.788047424188
    C           -0.117702341587    -1.557974127265    -0.055070634191

gradient() will perform analytic gradient computation.
    SCF Algorithm Type (re)set to DF.

*** tstart() called on lski1497
*** at Thu Feb 16 16:38:55 2017


         ---------------------------------------------------------
                                   SCF
            by Justin Turney, Rob Parrish, and Andy Simmonett
                              RHF Reference
                        1 Threads,   1000 MiB Core
         ---------------------------------------------------------

  ==> Geometry <==

    Molecular point group: c1
    Full point group: C1

    Geometry (in Angstrom), charge = 0, multiplicity = 1:

       Center              X                  Y                   Z               Mass       
    ------------   -----------------  -----------------  -----------------  -----------------
           H         -1.710787345306     0.474455525119     0.507438326296     1.007825032070
           H         -1.453111450085     2.108057482139    -0.116756938751     1.007825032070
           H         -1.304374486840     0.714251480195    -1.193709290539     1.007825032070
           C         -1.122897693352     1.072590302245    -0.183293208178    12.000000000000
           H          0.921764839259     1.606650439071    -0.542672567640     1.007825032070
           H          0.516376158421     1.366628549858     1.168931707129     1.007825032070
           C          0.374321449947     0.982025798080     0.160707385534    12.000000000000
           H          1.627026695403    -0.527766501947    -0.757354917927     1.007825032070
           H          1.509272354426    -0.655503303206     1.009470364020     1.007825032070
           C          0.952463507526    -0.462880136752     0.094395067888    12.000000000000
           H          0.359908533650    -2.535651103309    -0.094084875526     1.007825032070
           H         -0.688045833355    -1.413574626968    -0.968613005467     1.007825032070
           H         -0.804218573302    -1.539544341915     0.788047424188     1.007825032070
           C         -0.117702341587    -1.557974127265    -0.055070634191    12.000000000000

  Running in c1 symmetry.

  Rotational constants: A =      0.39089  B =      0.18502  C =      0.13889 [cm^-1]
  Rotational constants: A =  11718.58579  B =   5546.65148  C =   4163.87231 [MHz]
  Nuclear repulsion =  133.433018036614527

  Charge       = 0
  Multiplicity = 1
  Electrons    = 34
  Nalpha       = 17
  Nbeta        = 17

  ==> Algorithm <==

  SCF Algorithm Type is DF.
  DIIS enabled.
  MOM disabled.
  Fractional occupation disabled.
  Guess Type is READ.
  Energy threshold   = 1.00e-10
  Density threshold  = 1.00e-10
  Integral threshold = 0.00e+00

  ==> Primary Basis <==

  Basis Set: 6-31G(D)
    Number of shells: 44
    Number of basis function: 80
    Number of Cartesian functions: 80
    Spherical Harmonics?: false
    Max angular momentum: 2

  ==> Pre-Iterations <==

   -------------------------------------------------------
    Irrep   Nso     Nmo     Nalpha   Nbeta   Ndocc  Nsocc
   -------------------------------------------------------
     A         80      80       0       0       0       0
   -------------------------------------------------------
    Total      80      80      17      17      17       0
   -------------------------------------------------------

  ==> Integral Setup <==

  ==> DFJK: Density-Fitted J/K Matrices <==

    J tasked:                  Yes
    K tasked:                  Yes
    wK tasked:                  No
    OpenMP threads:              1
    Integrals threads:           1
    Memory (MB):               715
    Algorithm:                Core
    Integral Cache:           NONE
    Schwarz Cutoff:          1E-12
    Fitting Condition:       1E-12

   => Auxiliary Basis Set <=

  Basis Set: 
    Number of shells: 186
    Number of basis function: 574
    Number of Cartesian functions: 574
    Spherical Harmonics?: false
    Max angular momentum: 3

  Minimum eigenvalue in the overlap matrix is 3.9423501222E-03.
  Using Symmetric Orthogonalization.
  SCF Guess was Projection but file not found.
  Switching over to SAD guess.

  SCF Guess: Superposition of Atomic Densities via on-the-fly atomic UHF.

  ==> Iterations <==

                           Total Energy        Delta E     RMS |[F,P]|

   @DF-RHF iter   0:  -158.65953303860786   -1.58660e+02   4.47842e-02 
   @DF-RHF iter   1:  -157.17333060777653    1.48620e+00   4.69466e-03 
   @DF-RHF iter   2:  -157.27324418435344   -9.99136e-02   1.61753e-03 DIIS
   @DF-RHF iter   3:  -157.28458419090597   -1.13400e-02   6.14812e-04 DIIS
   @DF-RHF iter   4:  -157.28654443007323   -1.96024e-03   8.40960e-05 DIIS
   @DF-RHF iter   5:  -157.28659752837174   -5.30983e-05   1.79214e-05 DIIS
   @DF-RHF iter   6:  -157.28659981950963   -2.29114e-06   4.70686e-06 DIIS
   @DF-RHF iter   7:  -157.28659993506668   -1.15557e-07   1.17307e-06 DIIS
   @DF-RHF iter   8:  -157.28659994465974   -9.59307e-09   2.77696e-07 DIIS
   @DF-RHF iter   9:  -157.28659994528547   -6.25732e-10   7.59059e-08 DIIS
   @DF-RHF iter  10:  -157.28659994532902   -4.35421e-11   2.21308e-08 DIIS
   @DF-RHF iter  11:  -157.28659994533152   -2.50111e-12   4.71224e-09 DIIS
   @DF-RHF iter  12:  -157.28659994533186   -3.41061e-13   1.02127e-09 DIIS
   @DF-RHF iter  13:  -157.28659994533186    0.00000e+00   2.32184e-10 DIIS
   @DF-RHF iter  14:  -157.28659994533174    1.13687e-13   7.54563e-11 DIIS

  ==> Post-Iterations <==

    Orbital Energies (a.u.)
    -----------------------

    Doubly Occupied:                                                      

       1A    -11.214527     2A    -11.214006     3A    -11.207134  
       4A    -11.207108     5A     -1.065588     6A     -0.970313  
       7A     -0.877945     8A     -0.766382     9A     -0.640148  
      10A     -0.613745    11A     -0.565675    12A     -0.533668  
      13A     -0.523099    14A     -0.518340    15A     -0.455206  
      16A     -0.453909    17A     -0.450854  

    Virtual:                                                              

      18A      0.223428    19A      0.273767    20A      0.277924  
      21A      0.298254    22A      0.303093    23A      0.312175  
      24A      0.348036    25A      0.362935    26A      0.363526  
      27A      0.373093    28A      0.422793    29A      0.425930  
      30A      0.489765    31A      0.706846    32A      0.733018  
      33A      0.734111    34A      0.786988    35A      0.801635  
      36A      0.807660    37A      0.862273    38A      0.915238  
      39A      0.938236    40A      1.008048    41A      1.119500  
      42A      1.133220    43A      1.147171    44A      1.160973  
      45A      1.169832    46A      1.180137    47A      1.192651  
      48A      1.204053    49A      1.215041    50A      1.251765  
      51A      1.255032    52A      1.278912    53A      1.309187  
      54A      1.606707    55A      1.658582    56A      1.704859  
      57A      1.717516    58A      1.935651    59A      2.079375  
      60A      2.120591    61A      2.168303    62A      2.259341  
      63A      2.280798    64A      2.323202    65A      2.363212  
      66A      2.417835    67A      2.530175    68A      2.567606  
      69A      2.637727    70A      2.669493    71A      2.709222  
      72A      2.731904    73A      2.791787    74A      2.894842  
      75A      2.985326    76A      3.085706    77A      4.549802  
      78A      4.711879    79A      4.762407    80A      5.004678  

    Final Occupation by Irrep:
              A 
    DOCC [    17 ]

  Energy converged.

  @DF-RHF Final Energy:  -157.28659994533174

   => Energetics <=

    Nuclear Repulsion Energy =            133.4330180366145271
    One-Electron Energy =                -474.8839415619524402
    Two-Electron Energy =                 184.1643235800061120
    DFT Exchange-Correlation Energy =       0.0000000000000000
    Empirical Dispersion Energy =           0.0000000000000000
    PCM Polarization Energy =               0.0000000000000000
    EFP Energy =                            0.0000000000000000
    Total Energy =                       -157.2865999453317727


  Saving occupied orbitals to File 180.

*** tstop() called on lski1497 at Thu Feb 16 16:39:00 2017
Module time:
	user time   =       4.86 seconds =       0.08 minutes
	system time =       0.13 seconds =       0.00 minutes
	total time  =          5 seconds =       0.08 minutes
Total time:
	user time   =      51.20 seconds =       0.85 minutes
	system time =       1.43 seconds =       0.02 minutes
	total time  =         59 seconds =       0.98 minutes


Properties will be evaluated at   0.000000,   0.000000,   0.000000 Bohr

Properties computed using the SCF density matrix

  Nuclear Dipole Moment: (a.u.)
     X:    -0.9620      Y:    -0.3769      Z:    -0.1868

  Electronic Dipole Moment: (a.u.)
     X:     0.9904      Y:     0.3879      Z:     0.1921

  Dipole Moment: (a.u.)
     X:     0.0284      Y:     0.0110      Z:     0.0053     Total:     0.0309

  Dipole Moment: (Debye)
     X:     0.0721      Y:     0.0280      Z:     0.0134     Total:     0.0785


  //>>>>>>>>>>>>>>>>>>>>>>>>>>>>>>>>>>>//
  //               DFMP2               //
  //<<<<<<<<<<<<<<<<<<<<<<<<<<<<<<<<<<<//


*** tstart() called on lski1497
*** at Thu Feb 16 16:39:00 2017


*** tstop() called on lski1497 at Thu Feb 16 16:39:01 2017
Module time:
	user time   =       0.54 seconds =       0.01 minutes
	system time =       0.01 seconds =       0.00 minutes
	total time  =          1 seconds =       0.02 minutes
Total time:
	user time   =      51.76 seconds =       0.86 minutes
	system time =       1.44 seconds =       0.02 minutes
	total time  =         60 seconds =       1.00 minutes
	 --------------------------------------------------------
	                          DF-MP2                         
	      2nd-Order Density-Fitted Moller-Plesset Theory     
	              RMP2 Wavefunction,   1 Threads             
	                                                         
	        Rob Parrish, Justin Turney, Andy Simmonett,      
	           Ed Hohenstein, and C. David Sherrill          
	 --------------------------------------------------------

   => Auxiliary Basis Set <=

  Basis Set: 
    Number of shells: 132
    Number of basis function: 364
    Number of Cartesian functions: 414
    Spherical Harmonics?: true
    Max angular momentum: 3

	 --------------------------------------------------------
	                 NBF =    80, NAUX =   364
	 --------------------------------------------------------
	   CLASS    FOCC     OCC    AOCC    AVIR     VIR    FVIR
	   PAIRS       0      17      17      63      63       0
	 --------------------------------------------------------

DGAS Warning! /src/lib/libfock/apps.cc:80 is not currently checking restricted

         ------------------------------------------------------------
                                     CPHF                           
                                  Rob Parrish                       
         ------------------------------------------------------------

  ==> Geometry <==

    Molecular point group: c1
    Full point group: C1

    Geometry (in Angstrom), charge = 0, multiplicity = 1:

       Center              X                  Y                   Z               Mass       
    ------------   -----------------  -----------------  -----------------  -----------------
           H         -1.710787345306     0.474455525119     0.507438326296     1.007825032070
           H         -1.453111450085     2.108057482139    -0.116756938751     1.007825032070
           H         -1.304374486840     0.714251480195    -1.193709290539     1.007825032070
           C         -1.122897693352     1.072590302245    -0.183293208178    12.000000000000
           H          0.921764839259     1.606650439071    -0.542672567640     1.007825032070
           H          0.516376158421     1.366628549858     1.168931707129     1.007825032070
           C          0.374321449947     0.982025798080     0.160707385534    12.000000000000
           H          1.627026695403    -0.527766501947    -0.757354917927     1.007825032070
           H          1.509272354426    -0.655503303206     1.009470364020     1.007825032070
           C          0.952463507526    -0.462880136752     0.094395067888    12.000000000000
           H          0.359908533650    -2.535651103309    -0.094084875526     1.007825032070
           H         -0.688045833355    -1.413574626968    -0.968613005467     1.007825032070
           H         -0.804218573302    -1.539544341915     0.788047424188     1.007825032070
           C         -0.117702341587    -1.557974127265    -0.055070634191    12.000000000000

  Nuclear repulsion =  133.433018036614527
  Reference energy  = -157.286599945331744

  ==> Basis Set <==

  Basis Set: 6-31G(D)
    Number of shells: 44
    Number of basis function: 80
    Number of Cartesian functions: 80
    Spherical Harmonics?: false
    Max angular momentum: 2

  ==> CGRSolver (by Rob Parrish) <==

[...]
  CGR           4          0          1   4.291E-04
  CGR           5          0          1   7.653E-05
  CGR           6          0          1   1.478E-05
  CGR           7          0          1   2.103E-06
  CGR           8          1          0   5.078E-07

    CGRSolver converged.

  ==> DFCorrGrad: Density-Fitted Correlated Gradients <==

    OpenMP threads:              1
    Integrals threads:           1
    Memory (MB):               715
    Schwarz Cutoff:          0E+00
    Fitting Condition:       1E-12

   => Auxiliary Basis Set <=

  Basis Set: 
    Number of shells: 186
    Number of basis function: 510
    Number of Cartesian functions: 574
    Spherical Harmonics?: true
    Max angular momentum: 3

	-----------------------------------------------------------
	 ==================> DF-MP2 Energies <==================== 
	-----------------------------------------------------------
	 Reference Energy          =    -157.2885910146495405 [Eh]
	 Singles Energy            =      -0.0000000000000000 [Eh]
	 Same-Spin Energy          =      -0.1242893558419119 [Eh]
	 Opposite-Spin Energy      =      -0.4226374336004293 [Eh]
	 Correlation Energy        =      -0.5469267894423413 [Eh]
	 Total Energy              =    -157.8355178040918929 [Eh]
	-----------------------------------------------------------
	 ================> DF-SCS-MP2 Energies <================== 
	-----------------------------------------------------------
	 SCS Same-Spin Scale       =       0.3333333333333333 [-]
	 SCS Opposite-Spin Scale   =       1.2000000000000000 [-]
	 SCS Same-Spin Energy      =      -0.0414297852806373 [Eh]
	 SCS Opposite-Spin Energy  =      -0.5071649203205152 [Eh]
	 SCS Correlation Energy    =      -0.5485947056011525 [Eh]
	 SCS Total Energy          =    -157.8371857202506874 [Eh]
	-----------------------------------------------------------


  -Total Gradient:
     Atom            X                  Y                   Z
    ------   -----------------  -----------------  -----------------
       1       -0.000041773048    -0.000013765216     0.000005173519
       2       -0.000022487685     0.000010672463     0.000001874394
       3       -0.000003641421    -0.000001473302    -0.000005918470
       4       -0.000469644107    -0.000344081135     0.002774804225
       5        0.000003059293     0.000019605010    -0.000001524852
       6        0.000023198375     0.000010719899    -0.000034201699
       7        0.000806985473     0.000500549376    -0.005184361820
       8        0.000014697884     0.000004070416     0.000040171848
       9        0.000014916871    -0.000013742827     0.000003825057
      10       -0.000428235268    -0.000348978051     0.005241305952
      11       -0.000007105050    -0.000021844036    -0.000006438982
      12       -0.000037785116    -0.000015129284    -0.000017696714
      13       -0.000003534892    -0.000003809286     0.000004094110
      14        0.000151348693     0.000217205972    -0.002821106567


			-----------------------------------------
			 OPTKING 2.0: for geometry optimizations 
			  - R.A. King,  Bethel University        
			-----------------------------------------

	Previous internal coordinate definitions found.
	---Fragment 1 Geometry and Gradient---
	 H          -3.2862771039        1.0219102795        1.0161815918
	 H          -2.7185124603        4.0814463502       -0.1796960096
	 H          -2.6229560760        1.4546340618       -2.2275733987
	 C          -2.1460828342        2.1006459122       -0.3236614695
	 H           1.7273195428        3.0486255504       -1.0849733907
	 H           1.0167534256        2.6443114892        2.1079025265
	 C           0.6756341267        1.8448964936        0.2284244950
	 H           3.0274171466       -1.0315989326       -1.4966163055
	 H           2.9754739658       -1.1733288941        1.7958019836
	 C           1.7710930769       -0.8692132408        0.1414143259
	 H           0.8264207069       -4.8359352776       -0.1066395674
	 H          -1.3255687150       -2.8606948228       -1.7130919962
	 H          -1.4036900663       -3.0606450449        1.6190448444
	 C          -0.1508463265       -3.0165924156       -0.0235298665
	            -0.0000417730       -0.0000137652        0.0000051735
	            -0.0000224877        0.0000106725        0.0000018744
	            -0.0000036414       -0.0000014733       -0.0000059185
	            -0.0004696441       -0.0003440811        0.0027748042
	             0.0000030593        0.0000196050       -0.0000015249
	             0.0000231984        0.0000107199       -0.0000342017
	             0.0008069855        0.0005005494       -0.0051843618
	             0.0000146979        0.0000040704        0.0000401718
	             0.0000149169       -0.0000137428        0.0000038251
	            -0.0004282353       -0.0003489781        0.0052413060
	            -0.0000071050       -0.0000218440       -0.0000064390
	            -0.0000377851       -0.0000151293       -0.0000176967
	            -0.0000035349       -0.0000038093        0.0000040941
	             0.0001513487        0.0002172060       -0.0028211066

	---Fragment 1 Intrafragment Coordinates---
	 - Coordinate -           - BOHR/RAD -       - ANG/DEG -
	 R(1,4)           =         2.063709	       1.092068
	 R(2,4)           =         2.066875	       1.093743
	 R(3,4)           =         2.066306	       1.093442
	 R(4,7)           =         2.886571	       1.527508
	 R(5,7)           =         2.068821	       1.094773
	 R(6,7)           =         2.070716	       1.095776
	 R(7,10)          =         2.928138	       1.549504
	 R(8,10)          =         2.070716	       1.095776
	 R(9,10)          =         2.068820	       1.094773
	 R(10,14)         =         2.886571	       1.527508
	 R(11,14)         =         2.066874	       1.093742
	 R(12,14)         =         2.063710	       1.092068
	 R(13,14)         =         2.066303	       1.093441
	 B(1,4,2)         =         1.878331	     107.620450
	 B(1,4,3)         =         1.883135	     107.895660
	 B(1,4,7)         =         1.949373	     111.690830
	 B(2,4,3)         =         1.875367	     107.450613
	 B(2,4,7)         =         1.920181	     110.018267
	 B(3,4,7)         =         1.954254	     111.970492
	 B(4,7,5)         =         1.900704	     108.902306
	 B(4,7,6)         =         1.875935	     107.483178
	 B(4,7,10)        =         2.028790	     116.241101
	 B(5,7,6)         =         1.841962	     105.536644
	 B(5,7,10)        =         1.907384	     109.285046
	 B(6,7,10)        =         1.899884	     108.855353
	 B(7,10,8)        =         1.899877	     108.854934
	 B(7,10,9)        =         1.907403	     109.286142
	 B(7,10,14)       =         2.028790	     116.241089
	 B(8,10,9)        =         1.841959	     105.536478
	 B(8,10,14)       =         1.875929	     107.482834
	 B(9,10,14)       =         1.900700	     108.902106
	 B(10,14,11)      =         1.920170	     110.017642
	 B(10,14,12)      =         1.949363	     111.690263
	 B(10,14,13)      =         1.954263	     111.971005
	 B(11,14,12)      =         1.878342	     107.621041
	 B(11,14,13)      =         1.875365	     107.450481
	 B(12,14,13)      =         1.883139	     107.895915
	 D(1,4,7,5)       =        -3.080466	    -176.497678
	 D(1,4,7,6)       =        -1.093030	     -62.626002
	 D(1,4,7,10)      =         1.039947	      59.584571
	 D(2,4,7,5)       =        -0.995693	     -57.049030
	 D(2,4,7,6)       =         0.991742	      56.822646
	 D(2,4,7,10)      =         3.124719	     179.033219
	 D(3,4,7,5)       =         1.088503	      62.366628
	 D(3,4,7,6)       =         3.075939	     176.238304
	 D(3,4,7,10)      =        -1.074270	     -61.551124
	 D(4,7,10,8)      =         1.939403	     111.119613
	 D(4,7,10,9)      =        -2.340239	    -134.085801
	 D(4,7,10,14)     =        -0.180907	     -10.365190
	 D(5,7,10,8)      =        -0.219918	     -12.600370
	 D(5,7,10,9)      =         1.783626	     102.194216
	 D(5,7,10,14)     =        -2.340228	    -134.085173
	 D(6,7,10,8)      =        -2.223459	    -127.394793
	 D(6,7,10,9)      =        -0.219915	     -12.600206
	 D(6,7,10,14)     =         1.939417	     111.120404
	 D(7,10,14,11)    =         3.124546	     179.023322
	 D(7,10,14,12)    =         1.039775	      59.574711
	 D(7,10,14,13)    =        -1.074447	     -61.561273
	 D(8,10,14,11)    =         0.991584	      56.813574
	 D(8,10,14,12)    =        -1.093188	     -62.635037
	 D(8,10,14,13)    =         3.075776	     176.228980
	 D(9,10,14,11)    =        -0.995844	     -57.057631
	 D(9,10,14,12)    =        -3.080615	    -176.506243
	 D(9,10,14,13)    =         1.088348	      62.357774

	Current energy   :      -157.8355178041

	Energy change for the previous step:
		Projected    :        -0.0000045811
		Actual       :        -0.0000064652

	Performing BFGS update.
	Previous computed or guess Hessian on step 1.
	Steps to be used in Hessian update: 10 9
	Adding user-defined constraint: Fragment 1; Coordinate 49:
		Value =    -0.180907; Fixed value    =    -0.174530
		Force =     0.004783; Force constant =     0.750000
	Removing off-diagonal coupling between coordinate 49 and others.
	Taking RFO optimization step.
	Going to follow RFO solution 1.
	Rejecting RFO root 1 because normalization gives large value.
	Using RFO vector 2.
	Norm of target step-size    0.00340
	Projected energy change by RFO approximation:         0.0000005110

	Back-transformation to cartesian coordinates...
	Successfully converged to displaced geometry.

	--- Internal Coordinate Step in ANG or DEG, aJ/ANG or AJ/DEG ---
	 ---------------------------------------------------------------------------
	   Coordinate                Previous        Force       Change         New 
	   ----------                --------       ------       ------       ------
	    1 R(1,4)          =      1.092068    -0.000277    -0.000043     1.092024
	    2 R(2,4)          =      1.093743    -0.000137    -0.000029     1.093714
	    3 R(3,4)          =      1.093442    -0.000056    -0.000022     1.093420
	    4 R(4,7)          =      1.527508     0.000299     0.000099     1.527606
	    5 R(5,7)          =      1.094773    -0.000115    -0.000038     1.094735
	    6 R(6,7)          =      1.095776     0.000190     0.000023     1.095798
	    7 R(7,10)         =      1.549504     0.000118     0.000037     1.549541
	    8 R(8,10)         =      1.095776     0.000191     0.000023     1.095798
	    9 R(9,10)         =      1.094773    -0.000113    -0.000038     1.094735
	   10 R(10,14)        =      1.527508     0.000308     0.000102     1.527610
	   11 R(11,14)        =      1.093742    -0.000133    -0.000029     1.093713
	   12 R(12,14)        =      1.092068    -0.000287    -0.000045     1.092023
	   13 R(13,14)        =      1.093441    -0.000045    -0.000020     1.093421
	   14 B(1,4,2)        =    107.620450     0.000002     0.008976   107.629426
	   15 B(1,4,3)        =    107.895660     0.000001     0.006718   107.902378
	   16 B(1,4,7)        =    111.690830    -0.000003    -0.018633   111.672197
	   17 B(2,4,3)        =    107.450613     0.000001     0.004993   107.455606
	   18 B(2,4,7)        =    110.018267    -0.000002    -0.011550   110.006717
	   19 B(3,4,7)        =    111.970492     0.000001     0.010644   111.981136
	   20 B(4,7,5)        =    108.902306    -0.000002    -0.021987   108.880319
	   21 B(4,7,6)        =    107.483178    -0.000002     0.009478   107.492656
	   22 B(4,7,10)       =    116.241101     0.000005     0.011488   116.252589
	   23 B(5,7,6)        =    105.536644     0.000002     0.013939   105.550583
	   24 B(5,7,10)       =    109.285046    -0.000002    -0.002032   109.283014
	   25 B(6,7,10)       =    108.855353    -0.000001    -0.010087   108.845267
	   26 B(7,10,8)       =    108.854934    -0.000001    -0.009321   108.845613
	   27 B(7,10,9)       =    109.286142    -0.000002    -0.003780   109.282362
	   28 B(7,10,14)      =    116.241089     0.000005     0.011686   116.252775
	   29 B(8,10,9)       =    105.536478     0.000002     0.014188   105.550666
	   30 B(8,10,14)      =    107.482834    -0.000002     0.009972   107.492806
	   31 B(9,10,14)      =    108.902106    -0.000002    -0.021890   108.880216
	   32 B(10,14,11)     =    110.017642    -0.000001    -0.010375   110.007267
	   33 B(10,14,12)     =    111.690263    -0.000003    -0.017475   111.672788
	   34 B(10,14,13)     =    111.971005     0.000001     0.011027   111.982032
	   35 B(11,14,12)     =    107.621041     0.000002     0.007665   107.628706
	   36 B(11,14,13)     =    107.450481     0.000001     0.004562   107.455043
	   37 B(12,14,13)     =    107.895915     0.000001     0.005582   107.901497
	   38 D(1,4,7,5)      =   -176.497678     0.000000     0.016484  -176.481194
	   39 D(1,4,7,6)      =    -62.626002     0.000000     0.026721   -62.599281
	   40 D(1,4,7,10)     =     59.584571     0.000000     0.028783    59.613354
	   41 D(2,4,7,5)      =    -57.049030    -0.000000     0.008113   -57.040917
	   42 D(2,4,7,6)      =     56.822646    -0.000000     0.018349    56.840995
	   43 D(2,4,7,10)     =    179.033219     0.000000     0.020412   179.053631
	   44 D(3,4,7,5)      =     62.366628    -0.000000     0.013538    62.380166
	   45 D(3,4,7,6)      =    176.238304     0.000000     0.023774   176.262078
	   46 D(3,4,7,10)     =    -61.551124     0.000000     0.025837   -61.525286
	   47 D(4,7,10,8)     =    111.119613    -0.000000     0.027202   111.146815
	   48 D(4,7,10,9)     =   -134.085801    -0.000000     0.036964  -134.048837
	   49 D(4,7,10,14)    =    -10.365190    -0.000000     0.013191   -10.351998
	   50 D(5,7,10,8)     =    -12.600370    -0.000000     0.049809   -12.550561
	   51 D(5,7,10,9)     =    102.194216    -0.000000     0.059571   102.253787
	   52 D(5,7,10,14)    =   -134.085173    -0.000000     0.035799  -134.049375
	   53 D(6,7,10,8)     =   -127.394793    -0.000000     0.039819  -127.354973
	   54 D(6,7,10,9)     =    -12.600206    -0.000000     0.049581   -12.550625
	   55 D(6,7,10,14)    =    111.120404    -0.000000     0.025809   111.146213
	   56 D(7,10,14,11)   =    179.023322     0.000000     0.042497   179.065820
	   57 D(7,10,14,12)   =     59.574711     0.000000     0.050991    59.625702
	   58 D(7,10,14,13)   =    -61.561273     0.000000     0.048415   -61.512858
	   59 D(8,10,14,11)   =     56.813574    -0.000000     0.038912    56.852486
	   60 D(8,10,14,12)   =    -62.635037     0.000000     0.047406   -62.587631
	   61 D(8,10,14,13)   =    176.228980     0.000000     0.044829   176.273809
	   62 D(9,10,14,11)   =    -57.057631    -0.000000     0.028082   -57.029549
	   63 D(9,10,14,12)   =   -176.506243     0.000000     0.036576  -176.469667
	   64 D(9,10,14,13)   =     62.357774    -0.000000     0.033999    62.391773
	 ---------------------------------------------------------------------------
	 Forces used to impose fixed constraints are not included.
	  Forces zeroed: 49 

  ==> Convergence Check <==

  Measures of convergence in internal coordinates in au.
  Criteria marked as inactive (o), active & met (*), and active & unmet ( ).
  ---------------------------------------------------------------------------------------------
   Step     Total Energy     Delta E     MAX Force     RMS Force      MAX Disp      RMS Disp   
  ---------------------------------------------------------------------------------------------
    Convergence Criteria    1.00e-06 *    3.00e-04 *             o    1.20e-03 *             o
  ---------------------------------------------------------------------------------------------
     11    -157.83551780   -6.47e-06      6.43e-05 *    2.05e-05 o    1.04e-03 *    4.25e-04 o  ~
  ---------------------------------------------------------------------------------------------


  **** Optimization is complete! (in 11 steps) ****

  ==> Optimization Summary <==

  Measures of convergence in internal coordinates in au.
  --------------------------------------------------------------------------------------------------------------- ~
   Step         Total Energy             Delta E       MAX Force       RMS Force        MAX Disp        RMS Disp  ~
  --------------------------------------------------------------------------------------------------------------- ~
      1    -157.820123691941   -157.820123691941      0.07216704      0.01735727      0.05251331      0.01265588  ~
      2    -157.829643137620     -0.009519445680      0.02613468      0.00757679      0.02577003      0.01253685  ~
      3    -157.833526493403     -0.003883355783      0.01272895      0.00336766      0.03405686      0.01252036  ~
      4    -157.834945926554     -0.001419433151      0.00594696      0.00151618      0.04452729      0.01249795  ~
      5    -157.835462635545     -0.000516708991      0.00189710      0.00046533      0.02913063      0.00771170  ~
      6    -157.835525535400     -0.000062899855      0.00051843      0.00013174      0.00514442      0.00205018  ~
      7    -157.835529677918     -0.000004142518      0.00016105      0.00004960      0.01810780      0.00862370  ~
      8    -157.835535117464     -0.000005439546      0.00084955      0.00033196      0.02573013      0.01226157  ~
      9    -157.835495597075      0.000039520389      0.00075755      0.00021846      0.00390491      0.00174770  ~
     10    -157.835511338907     -0.000015741832      0.00025391      0.00008393      0.00211577      0.00107878  ~
     11    -157.835517804092     -0.000006465185      0.00006434      0.00002062      0.00103971      0.00042496  ~
  --------------------------------------------------------------------------------------------------------------- ~

	Writing optimization data to binary file.
	Final energy is   -157.8355178040919
	Final (previous) structure:
	Cartesian Geometry (in Angstrom)
	    H    -1.7390229445   0.5407716291   0.5377401382
	    H    -1.4385748352   2.1598083866  -0.0950910328
	    H    -1.3880085745   0.7697591924  -1.1787810730
	    C    -1.1356581236   1.1116139401  -0.1712742730
	    H     0.9140581340   1.6132631588  -0.5741431903
	    H     0.5380427396   1.3993093725   1.1154539750
	    C     0.3575301812   0.9762771766   0.1208770366
	    H     1.6020401549  -0.5458986435  -0.7919752389
	    H     1.5745530074  -0.6208989089   0.9502974809
	    C     0.9372220906  -0.4599678364   0.0748332382
	    H     0.4373230028  -2.5590667311  -0.0564312286
	    H    -0.7014607524  -1.5138145010  -0.9065292406
	    H    -0.7428007910  -1.6196236014   0.8567616314
	    C    -0.0798244380  -1.5963119539  -0.0124514691
	Saving final (previous) structure.
			--------------------------
			 OPTKING Finished Execution 
			--------------------------

    Final optimized geometry and variables:
    Molecular point group: c1
    Full point group: C1

    Geometry (in Angstrom), charge = 0, multiplicity = 1:

    H           -1.739022944493     0.540771629131     0.537740138187
    H           -1.438574835248     2.159808386584    -0.095091032779
    H           -1.388008574534     0.769759192368    -1.178781073047
    C           -1.135658123621     1.111613940052    -0.171274272983
    H            0.914058133979     1.613263158820    -0.574143190292
    H            0.538042739589     1.399309372513     1.115453974968
    C            0.357530181219     0.976277176609     0.120877036624
    H            1.602040154879    -0.545898643533    -0.791975238889
    H            1.574553007441    -0.620898908914     0.950297480879
    C            0.937222090579    -0.459967836448     0.074833238234
    H            0.437323002783    -2.559066731132    -0.056431228598
    H           -0.701460752392    -1.513814500959    -0.906529240590
    H           -0.742800790993    -1.619623601360     0.856761631362
    C           -0.079824437991    -1.596311953933    -0.012451469083

	Cleaning optimization helper files.

*** Psi4 exiting successfully. Buy a developer a beer!
