    -----------------------------------------------------------------------
          Psi4: An Open-Source Ab Initio Electronic Structure Package
                              Psi4 1.0.0 Driver

                          Git: Rev {master} 6a9a71b 

    J. M. Turney, A. C. Simmonett, R. M. Parrish, E. G. Hohenstein,
    F. A. Evangelista, J. T. Fermann, B. J. Mintz, L. A. Burns, J. J. Wilke,
    M. L. Abrams, N. J. Russ, M. L. Leininger, C. L. Janssen, E. T. Seidl,
    W. D. Allen, H. F. Schaefer, R. A. King, E. F. Valeev, C. D. Sherrill,
    and T. D. Crawford, WIREs Comput. Mol. Sci. 2, 556-565 (2012)
    (doi: 10.1002/wcms.93)

                         Additional Contributions by
    A. E. DePrince, U. Bozkaya, A. Yu. Sokolov, D. G. A. Smith, R. Di Remigio,
    R. M. Richard, J. F. Gonthier, H. R. McAlexander, M. Saitow, and
    B. P. Pritchard
    -----------------------------------------------------------------------


    Psi4 started on: Mon Feb 20 16:58:55 2017

    Process ID:  27811
    PSI4DATADIR: /Users/sternc1/anaconda/share/psi4
    Memory level set to 256.000 MB

  ==> Input File <==

--------------------------------------------------------------------------

memory 1000 mb

molecule butane {
  symmetry C1
  0 1 
  H      1.604   0.760   -8.260
  H      1.745   2.388   -8.880
  H      2.043   1.024   -9.930
  C      2.142   1.395   -8.932
  H      4.169   2.051   -9.210
  H      3.731   1.788   -7.539
  C      3.631   1.416   -8.537
  H      5.006   -0.037   -9.318
  H      4.567   -0.302   -7.649
  C      4.203   -0.012   -8.612
  H      3.495   -1.978   -9.109
  H      2.733   -0.697   -10.020
  H      2.293   -0.961   -8.351
  C      3.097   -0.986   -9.057
  units Angstrom
}

dih_string = "4 7 10 14 0.001"
set optking fixed_dihedral = $dih_string

optimize('MP2/6-31G(d)')
--------------------------------------------------------------------------

  Memory set to 1000.000 MiB by Python script.
gradient() will perform analytic gradient computation.
    SCF Algorithm Type (re)set to DF.

*** tstart() called on lski1497
*** at Mon Feb 20 16:58:57 2017


         ---------------------------------------------------------
                                   SCF
            by Justin Turney, Rob Parrish, and Andy Simmonett
                              RHF Reference
                        1 Threads,   1000 MiB Core
         ---------------------------------------------------------

  ==> Geometry <==

    Molecular point group: c1
    Full point group: C1

    Geometry (in Angstrom), charge = 0, multiplicity = 1:

       Center              X                  Y                   Z               Mass       
    ------------   -----------------  -----------------  -----------------  -----------------
           H         -1.641751988320     0.315365705977     0.531805563376     1.007825032070
           H         -1.500751988320     1.943365705977    -0.088194436624     1.007825032070
           H         -1.202751988320     0.579365705977    -1.138194436624     1.007825032070
           C         -1.103751988320     0.950365705977    -0.140194436624    12.000000000000
           H          0.923248011680     1.606365705977    -0.418194436624     1.007825032070
           H          0.485248011680     1.343365705977     1.252805563376     1.007825032070
           C          0.385248011680     0.971365705977     0.254805563376    12.000000000000
           H          1.760248011680    -0.481634294023    -0.526194436624     1.007825032070
           H          1.321248011680    -0.746634294023     1.142805563376     1.007825032070
           C          0.957248011680    -0.456634294023     0.179805563376    12.000000000000
           H          0.249248011680    -2.422634294023    -0.317194436624     1.007825032070
           H         -0.512751988320    -1.141634294023    -1.228194436624     1.007825032070
           H         -0.952751988320    -1.405634294023     0.440805563376     1.007825032070
           C         -0.148751988320    -1.430634294023    -0.265194436624    12.000000000000

  Running in c1 symmetry.

  Rotational constants: A =      0.37738  B =      0.21145  C =      0.15038 [cm^-1]
  Rotational constants: A =  11313.47966  B =   6339.07487  C =   4508.38722 [MHz]
  Nuclear repulsion =  136.588151271564413

  Charge       = 0
  Multiplicity = 1
  Electrons    = 34
  Nalpha       = 17
  Nbeta        = 17

  ==> Algorithm <==

  SCF Algorithm Type is DF.
  DIIS enabled.
  MOM disabled.
  Fractional occupation disabled.
  Guess Type is SAD.
  Energy threshold   = 1.00e-10
  Density threshold  = 1.00e-10
  Integral threshold = 0.00e+00

  ==> Primary Basis <==

  Basis Set: 6-31G(D)
    Number of shells: 44
    Number of basis function: 80
    Number of Cartesian functions: 80
    Spherical Harmonics?: false
    Max angular momentum: 2

  ==> Pre-Iterations <==

   -------------------------------------------------------
    Irrep   Nso     Nmo     Nalpha   Nbeta   Ndocc  Nsocc
   -------------------------------------------------------
     A         80      80       0       0       0       0
   -------------------------------------------------------
    Total      80      80      17      17      17       0
   -------------------------------------------------------

  ==> Integral Setup <==

  ==> DFJK: Density-Fitted J/K Matrices <==

    J tasked:                  Yes
    K tasked:                  Yes
    wK tasked:                  No
    OpenMP threads:              1
    Integrals threads:           1
    Memory (MB):               715
    Algorithm:                Core
    Integral Cache:           NONE
    Schwarz Cutoff:          1E-12
    Fitting Condition:       1E-12

   => Auxiliary Basis Set <=

  Basis Set: 
    Number of shells: 186
    Number of basis function: 574
    Number of Cartesian functions: 574
    Spherical Harmonics?: false
    Max angular momentum: 3

  Minimum eigenvalue in the overlap matrix is 3.2227163201E-03.
  Using Symmetric Orthogonalization.
  SCF Guess: Superposition of Atomic Densities via on-the-fly atomic UHF.

  ==> Iterations <==

                           Total Energy        Delta E     RMS |[F,P]|

   @DF-RHF iter   0:  -158.91776779555499   -1.58918e+02   4.67042e-02 
   @DF-RHF iter   1:  -157.16327366220355    1.75449e+00   4.55684e-03 
   @DF-RHF iter   2:  -157.25955703560362   -9.62834e-02   1.46096e-03 DIIS
   @DF-RHF iter   3:  -157.26971377955880   -1.01567e-02   5.82171e-04 DIIS
   @DF-RHF iter   4:  -157.27136715472119   -1.65338e-03   8.65754e-05 DIIS
   @DF-RHF iter   5:  -157.27142283022408   -5.56755e-05   1.90146e-05 DIIS
   @DF-RHF iter   6:  -157.27142541585073   -2.58563e-06   4.99447e-06 DIIS
   @DF-RHF iter   7:  -157.27142555371603   -1.37865e-07   1.28801e-06 DIIS
   @DF-RHF iter   8:  -157.27142556561517   -1.18991e-08   3.08701e-07 DIIS
   @DF-RHF iter   9:  -157.27142556641940   -8.04221e-10   8.22321e-08 DIIS
   @DF-RHF iter  10:  -157.27142556647095   -5.15570e-11   2.36952e-08 DIIS
   @DF-RHF iter  11:  -157.27142556647391   -2.95586e-12   5.33234e-09 DIIS
   @DF-RHF iter  12:  -157.27142556647465   -7.38964e-13   1.14976e-09 DIIS
   @DF-RHF iter  13:  -157.27142556647431    3.41061e-13   1.87990e-10 DIIS
   @DF-RHF iter  14:  -157.27142556647459   -2.84217e-13   4.47838e-11 DIIS

  ==> Post-Iterations <==

    Orbital Energies (a.u.)
    -----------------------

    Doubly Occupied:                                                      

       1A    -11.206454     2A    -11.205860     3A    -11.197596  
       4A    -11.197486     5A     -1.078142     6A     -0.965685  
       7A     -0.890292     8A     -0.769106     9A     -0.652363  
      10A     -0.627224    11A     -0.562038    12A     -0.540746  
      13A     -0.536190    14A     -0.511038    15A     -0.455958  
      16A     -0.452100    17A     -0.450967  

    Virtual:                                                              

      18A      0.229378    19A      0.272856    20A      0.279143  
      21A      0.305158    22A      0.308503    23A      0.315289  
      24A      0.356703    25A      0.360944    26A      0.385352  
      27A      0.386103    28A      0.431287    29A      0.458754  
      30A      0.494206    31A      0.702115    32A      0.735160  
      33A      0.760627    34A      0.769027    35A      0.799607  
      36A      0.804694    37A      0.863590    38A      0.929914  
      39A      0.932331    40A      1.011830    41A      1.131924  
      42A      1.156165    43A      1.157861    44A      1.193626  
      45A      1.195736    46A      1.211936    47A      1.219002  
      48A      1.220242    49A      1.242238    50A      1.275494  
      51A      1.282261    52A      1.283001    53A      1.338965  
      54A      1.616712    55A      1.702153    56A      1.703475  
      57A      1.753259    58A      1.935359    59A      2.114045  
      60A      2.183604    61A      2.272568    62A      2.273825  
      63A      2.282429    64A      2.335204    65A      2.378187  
      66A      2.434212    67A      2.550186    68A      2.583434  
      69A      2.650312    70A      2.711784    71A      2.724913  
      72A      2.757715    73A      2.840229    74A      2.905390  
      75A      3.003820    76A      3.103968    77A      4.593438  
      78A      4.725354    79A      4.781920    80A      5.046895  

    Final Occupation by Irrep:
              A 
    DOCC [    17 ]

  Energy converged.

  @DF-RHF Final Energy:  -157.27142556647459

   => Energetics <=

    Nuclear Repulsion Energy =            136.5881512715644135
    One-Electron Energy =                -481.1206628720093477
    Two-Electron Energy =                 187.2610860339704004
    DFT Exchange-Correlation Energy =       0.0000000000000000
    Empirical Dispersion Energy =           0.0000000000000000
    PCM Polarization Energy =               0.0000000000000000
    EFP Energy =                            0.0000000000000000
    Total Energy =                       -157.2714255664745338


  Saving occupied orbitals to File 180.

*** tstop() called on lski1497 at Mon Feb 20 16:59:03 2017
Module time:
	user time   =       5.67 seconds =       0.09 minutes
	system time =       0.19 seconds =       0.00 minutes
	total time  =          6 seconds =       0.10 minutes
Total time:
	user time   =       5.67 seconds =       0.09 minutes
	system time =       0.19 seconds =       0.00 minutes
	total time  =          6 seconds =       0.10 minutes


Properties will be evaluated at   0.000000,   0.000000,   0.000000 Bohr

Properties computed using the SCF density matrix

  Nuclear Dipole Moment: (a.u.)
     X:    -1.0045      Y:    -0.3847      Z:    -0.3262

  Electronic Dipole Moment: (a.u.)
     X:     1.0366      Y:     0.3965      Z:     0.3362

  Dipole Moment: (a.u.)
     X:     0.0321      Y:     0.0118      Z:     0.0100     Total:     0.0356

  Dipole Moment: (Debye)
     X:     0.0815      Y:     0.0301      Z:     0.0254     Total:     0.0905


  //>>>>>>>>>>>>>>>>>>>>>>>>>>>>>>>>>>>//
  //               DFMP2               //
  //<<<<<<<<<<<<<<<<<<<<<<<<<<<<<<<<<<<//


*** tstart() called on lski1497
*** at Mon Feb 20 16:59:03 2017


*** tstop() called on lski1497 at Mon Feb 20 16:59:04 2017
Module time:
	user time   =       0.48 seconds =       0.01 minutes
	system time =       0.00 seconds =       0.00 minutes
	total time  =          1 seconds =       0.02 minutes
Total time:
	user time   =       6.16 seconds =       0.10 minutes
	system time =       0.19 seconds =       0.00 minutes
	total time  =          7 seconds =       0.12 minutes
	 --------------------------------------------------------
	                          DF-MP2                         
	      2nd-Order Density-Fitted Moller-Plesset Theory     
	              RMP2 Wavefunction,   1 Threads             
	                                                         
	        Rob Parrish, Justin Turney, Andy Simmonett,      
	           Ed Hohenstein, and C. David Sherrill          
	 --------------------------------------------------------

   => Auxiliary Basis Set <=

  Basis Set: 
    Number of shells: 132
    Number of basis function: 364
    Number of Cartesian functions: 414
    Spherical Harmonics?: true
    Max angular momentum: 3

	 --------------------------------------------------------
	                 NBF =    80, NAUX =   364
	 --------------------------------------------------------
	   CLASS    FOCC     OCC    AOCC    AVIR     VIR    FVIR
	   PAIRS       0      17      17      63      63       0
	 --------------------------------------------------------

DGAS Warning! /src/lib/libfock/apps.cc:80 is not currently checking restricted

         ------------------------------------------------------------
                                     CPHF                           
                                  Rob Parrish                       
         ------------------------------------------------------------

  ==> Geometry <==

    Molecular point group: c1
    Full point group: C1

    Geometry (in Angstrom), charge = 0, multiplicity = 1:

       Center              X                  Y                   Z               Mass       
    ------------   -----------------  -----------------  -----------------  -----------------
           H         -1.641751988320     0.315365705977     0.531805563376     1.007825032070
           H         -1.500751988320     1.943365705977    -0.088194436624     1.007825032070
           H         -1.202751988320     0.579365705977    -1.138194436624     1.007825032070
           C         -1.103751988320     0.950365705977    -0.140194436624    12.000000000000
           H          0.923248011680     1.606365705977    -0.418194436624     1.007825032070
           H          0.485248011680     1.343365705977     1.252805563376     1.007825032070
           C          0.385248011680     0.971365705977     0.254805563376    12.000000000000
           H          1.760248011680    -0.481634294023    -0.526194436624     1.007825032070
           H          1.321248011680    -0.746634294023     1.142805563376     1.007825032070
           C          0.957248011680    -0.456634294023     0.179805563376    12.000000000000
           H          0.249248011680    -2.422634294023    -0.317194436624     1.007825032070
           H         -0.512751988320    -1.141634294023    -1.228194436624     1.007825032070
           H         -0.952751988320    -1.405634294023     0.440805563376     1.007825032070
           C         -0.148751988320    -1.430634294023    -0.265194436624    12.000000000000

  Nuclear repulsion =  136.588151271564413
  Reference energy  = -157.271425566474591

  ==> Basis Set <==

  Basis Set: 6-31G(D)
    Number of shells: 44
    Number of basis function: 80
    Number of Cartesian functions: 80
    Spherical Harmonics?: false
    Max angular momentum: 2

  ==> CGRSolver (by Rob Parrish) <==

   Number of roots    =         1
   Preconditioning    =    JACOBI
   Convergence cutoff =     1E-06
   Maximum iterations =       100

  ==> CPHFRHamiltonian (by Rob Parrish) <== 

  ==> DFJK: Density-Fitted J/K Matrices <==

    J tasked:                  Yes
    K tasked:                  Yes
    wK tasked:                  No
    OpenMP threads:              1
    Integrals threads:           1
    Memory (MB):               715
    Algorithm:                Core
    Integral Cache:           NONE
    Schwarz Cutoff:          1E-12
    Fitting Condition:       1E-12

   => Auxiliary Basis Set <=

  Basis Set: 
    Number of shells: 186
    Number of basis function: 574
    Number of Cartesian functions: 574
    Spherical Harmonics?: false
    Max angular momentum: 3

  ==> CPHF Iterations <==

  => Iterations <=

             Iter  Converged  Remaining    Residual
  CGR           1          0          1   7.624E-02
  CGR           2          0          1   8.686E-03
  CGR           3          0          1   2.088E-03
  CGR           4          0          1   4.161E-04
  CGR           5          0          1   7.776E-05
  CGR           6          0          1   1.322E-05
  CGR           7          0          1   1.541E-06
  CGR           8          1          0   3.666E-07

    CGRSolver converged.

  ==> DFCorrGrad: Density-Fitted Correlated Gradients <==

    OpenMP threads:              1
    Integrals threads:           1
    Memory (MB):               715
    Schwarz Cutoff:          0E+00
    Fitting Condition:       1E-12

   => Auxiliary Basis Set <=

  Basis Set: 
    Number of shells: 186
    Number of basis function: 510
    Number of Cartesian functions: 574
    Spherical Harmonics?: true
    Max angular momentum: 3

	-----------------------------------------------------------
	 ==================> DF-MP2 Energies <==================== 
	-----------------------------------------------------------
	 Reference Energy          =    -157.2714255664745906 [Eh]
	 Singles Energy            =      -0.0000000000000000 [Eh]
	 Same-Spin Energy          =      -0.1253697037509469 [Eh]
	 Opposite-Spin Energy      =      -0.4216604363239234 [Eh]
	 Correlation Energy        =      -0.5470301400748703 [Eh]
	 Total Energy              =    -157.8184557065494573 [Eh]
	-----------------------------------------------------------
	 ================> DF-SCS-MP2 Energies <================== 
	-----------------------------------------------------------
	 SCS Same-Spin Scale       =       0.3333333333333333 [-]
	 SCS Opposite-Spin Scale   =       1.2000000000000000 [-]
	 SCS Same-Spin Energy      =      -0.0417899012503156 [Eh]
	 SCS Opposite-Spin Energy  =      -0.5059925235887081 [Eh]
	 SCS Correlation Energy    =      -0.5477824248390237 [Eh]
	 SCS Total Energy          =    -157.8192079913136183 [Eh]
	-----------------------------------------------------------


  -Total Gradient:
     Atom            X                  Y                   Z
    ------   -----------------  -----------------  -----------------
       1        0.012218611610     0.001461007343    -0.006797722699
       2        0.008804723414    -0.014673730456    -0.000051823034
       3        0.007243462866    -0.001323536905     0.012175828474
       4       -0.021857958263    -0.020216790514    -0.009258822189
       5       -0.007717361640    -0.013553703422     0.007100580954
       6       -0.002234367031    -0.010456353561    -0.013879349102
       7        0.018929572300     0.020274200319     0.008619537365
       8       -0.015070035178     0.003848273053     0.008486060012
       9       -0.009360504107     0.007124544661    -0.013168316282
      10        0.028155079928    -0.002643765550     0.006964976962
      11       -0.003866229133     0.017031038864     0.001680579412
      12        0.004694104408     0.004896049861     0.012600288095
      13        0.009197014494     0.007945898228    -0.006291653728
      14       -0.029136113666     0.000286868082    -0.008180164241


			-----------------------------------------
			 OPTKING 2.0: for geometry optimizations 
			  - R.A. King,  Bethel University        
			-----------------------------------------

	Internal coordinates to be generated automatically.
	Detected frag 1 with atoms:  1 2 3 4 5 6 7 8 9 10 11 12 13 14
	---Fragment 1 Bond Connectivity---
	 1 : 4
	 2 : 4
	 3 : 4
	 4 : 1 2 3 7
	 5 : 7
	 6 : 7
	 7 : 4 5 6 10
	 8 : 10
	 9 : 10
	 10 : 7 8 9 14
	 11 : 14
	 12 : 14
	 13 : 14
	 14 : 10 11 12 13

	Assuming in current code that numbering for constraints corresponds to unified fragment.
	Fixed dihedral atom list: 
	     4     7    10    14
	---Fragment 1 Geometry and Gradient---
	 H          -3.1024616360        0.5959548160        1.0049668707
	 H          -2.8360102513        3.6724289603       -0.1666633317
	 H          -2.2728718637        1.0948425151       -2.1508757712
	 C          -2.0857889766        1.7959309104       -0.2649290906
	 H           1.7446858948        3.0355912536       -0.7902729555
	 H           0.9169858486        2.5385932806        2.3674594125
	 C           0.7280132353        1.8356151592        0.4815127319
	 H           3.3263866680       -0.9101569119       -0.9943633779
	 H           2.4967968957       -1.4109343371        2.1595895379
	 C           1.8089365833       -0.8629137586        0.3397832720
	 H           0.4710104812       -4.5781153358       -0.5994106161
	 H          -0.9689608320       -2.1573761596       -2.3209511232
	 H          -1.8004403305       -2.6562638587        0.8330017926
	 C          -0.2811005196       -2.7035070120       -0.5011448572
	             0.0122186116        0.0014610073       -0.0067977227
	             0.0088047234       -0.0146737305       -0.0000518230
	             0.0072434629       -0.0013235369        0.0121758285
	            -0.0218579583       -0.0202167905       -0.0092588222
	            -0.0077173616       -0.0135537034        0.0071005810
	            -0.0022343670       -0.0104563536       -0.0138793491
	             0.0189295723        0.0202742003        0.0086195374
	            -0.0150700352        0.0038482731        0.0084860600
	            -0.0093605041        0.0071245447       -0.0131683163
	             0.0281550799       -0.0026437656        0.0069649770
	            -0.0038662291        0.0170310389        0.0016805794
	             0.0046941044        0.0048960499        0.0126002881
	             0.0091970145        0.0079458982       -0.0062916537
	            -0.0291361137        0.0002868681       -0.0081801642

	Previous optimization step data not found.  Starting new optimization.

	---Fragment 1 Intrafragment Coordinates---
	 - Coordinate -           - BOHR/RAD -       - ANG/DEG -
	 R(1,4)           =         2.021436	       1.069698
	 R(2,4)           =         2.023298	       1.070683
	 R(3,4)           =         2.020723	       1.069320
	 R(4,7)           =         2.911397	       1.540645
	 R(5,7)           =         2.022623	       1.070326
	 R(6,7)           =         2.021555	       1.069761
	 R(7,10)          =         2.910419	       1.540128
	 R(8,10)          =         2.021097	       1.069519
	 R(9,10)          =         2.021181	       1.069563
	 R(10,14)         =         2.909158	       1.539460
	 R(11,14)         =         2.022247	       1.070127
	 R(12,14)         =         2.020670	       1.069292
	 R(13,14)         =         2.022516	       1.070270
	 B(1,4,2)         =         1.910870	     109.484805
	 B(1,4,3)         =         1.911121	     109.499161
	 B(1,4,7)         =         1.910399	     109.457783
	 B(2,4,3)         =         1.910042	     109.437340
	 B(2,4,7)         =         1.910564	     109.467262
	 B(3,4,7)         =         1.910803	     109.480971
	 B(4,7,5)         =         1.909937	     109.431343
	 B(4,7,6)         =         1.911630	     109.528316
	 B(4,7,10)        =         1.911154	     109.501062
	 B(5,7,6)         =         1.910605	     109.469614
	 B(5,7,10)        =         1.910047	     109.437654
	 B(6,7,10)        =         1.910425	     109.459295
	 B(7,10,8)        =         1.909926	     109.430678
	 B(7,10,9)        =         1.911287	     109.508677
	 B(7,10,14)       =         1.911212	     109.504376
	 B(8,10,9)        =         1.909734	     109.419706
	 B(8,10,14)       =         1.911130	     109.499680
	 B(9,10,14)       =         1.910510	     109.464178
	 B(10,14,11)      =         1.910647	     109.471985
	 B(10,14,12)      =         1.911227	     109.505266
	 B(10,14,13)      =         1.911594	     109.526246
	 B(11,14,12)      =         1.910687	     109.474289
	 B(11,14,13)      =         1.910382	     109.456851
	 B(12,14,13)      =         1.909262	     109.392649
	 D(1,4,7,5)       =         3.140997	     179.965873
	 D(1,4,7,6)       =        -1.047644	     -60.025575
	 D(1,4,7,10)      =         1.047427	      60.013132
	 D(2,4,7,5)       =        -1.047689	     -60.028143
	 D(2,4,7,6)       =         1.046856	      59.980409
	 D(2,4,7,10)      =        -3.141259	    -179.980883
	 D(3,4,7,5)       =         1.046044	      59.933911
	 D(3,4,7,6)       =         3.140588	     179.942463
	 D(3,4,7,10)      =        -1.047526	     -60.018830
	 D(4,7,10,8)      =         2.095109	     120.040906
	 D(4,7,10,9)      =        -2.094815	    -120.024080
	 D(4,7,10,14)     =         0.000185	       0.010589
	 D(5,7,10,8)      =         0.001606	       0.092031
	 D(5,7,10,9)      =         2.094867	     120.027044
	 D(5,7,10,14)     =        -2.093318	    -119.938287
	 D(6,7,10,8)      =        -2.092269	    -119.878168
	 D(6,7,10,9)      =         0.000992	       0.056845
	 D(6,7,10,14)     =         2.095992	     120.091515
	 D(7,10,14,11)    =         3.141528	     179.996267
	 D(7,10,14,12)    =         1.046695	      59.971179
	 D(7,10,14,13)    =        -1.046973	     -59.987149
	 D(8,10,14,11)    =         1.047340	      60.008175
	 D(8,10,14,12)    =        -1.047493	     -60.016914
	 D(8,10,14,13)    =        -3.141161	    -179.975241
	 D(9,10,14,11)    =        -1.046183	     -59.941843
	 D(9,10,14,12)    =        -3.141016	    -179.966932
	 D(9,10,14,13)    =         1.048502	      60.074741

	Current energy   :      -157.8184557065

	Generating empirical Hessian (Schlegel '84) for each fragment.
	Adding user-defined constraint: Fragment 1; Coordinate 49:
		Value =     0.000185; Fixed value    =     0.000017
		Force =    -0.000084; Force constant =     0.500000
	Removing off-diagonal coupling between coordinate 49 and others.
	Taking RFO optimization step.
	Going to follow RFO solution 1.
	Using RFO vector 1.

	Determining step-restricting scale parameter for RS-RFO.
	Maximum step size allowed    0.10000

	 Iter      |step|        alpha        rfo_root  
	------------------------------------------------
	    0     0.53741       1.00000           1
	    1     0.34876       4.14330           1
	    2     0.22901      12.64496           1
	    3     0.15865      30.29882           1
	    4     0.12077      56.05621           1
	    5     0.10428      77.43087           1
	    6     0.10025      84.36530           1
	    7     0.10000      84.82839           1
	------------------------------------------------
	Norm of target step-size    0.10000
	Projected energy change by RFO approximation:        -0.0144412702

	Back-transformation to cartesian coordinates...
	Could not converge backtransformation.
	Using first guess instead.

	--- Internal Coordinate Step in ANG or DEG, aJ/ANG or AJ/DEG ---
	 ---------------------------------------------------------------------------
	   Coordinate                Previous        Force       Change         New 
	   ----------                --------       ------       ------       ------
	    1 R(1,4)          =      1.069698     0.092958     0.004374     1.074072
	    2 R(2,4)          =      1.070683     0.139039     0.006987     1.077670
	    3 R(3,4)          =      1.069320     0.095364     0.004465     1.073785
	    4 R(4,7)          =      1.540645     0.038821     0.003771     1.544416
	    5 R(5,7)          =      1.070326     0.134991     0.005424     1.075750
	    6 R(6,7)          =      1.069761     0.138355     0.005554     1.075315
	    7 R(7,10)         =      1.540128     0.341933     0.014210     1.554338
	    8 R(8,10)         =      1.069519     0.140111     0.005622     1.075141
	    9 R(9,10)         =      1.069563     0.139842     0.005613     1.075176
	   10 R(10,14)        =      1.539460     0.043636     0.003974     1.543434
	   11 R(11,14)        =      1.070127     0.142589     0.007124     1.077251
	   12 R(12,14)        =      1.069292     0.095754     0.004484     1.073776
	   13 R(13,14)        =      1.070270     0.089584     0.004241     1.074511
	   14 B(1,4,2)        =    109.484805    -0.000470    -0.226670   109.258134
	   15 B(1,4,3)        =    109.499161    -0.000311    -0.261426   109.237736
	   16 B(1,4,7)        =    109.457783     0.000642     0.360819   109.818602
	   17 B(2,4,3)        =    109.437340    -0.000462    -0.222582   109.214758
	   18 B(2,4,7)        =    109.467262    -0.000030    -0.008716   109.458546
	   19 B(3,4,7)        =    109.480971     0.000632     0.355275   109.836246
	   20 B(4,7,5)        =    109.431343    -0.001757    -0.885814   108.545529
	   21 B(4,7,6)        =    109.528316    -0.001768    -0.891587   108.636730
	   22 B(4,7,10)       =    109.501062     0.005935     3.029929   112.530992
	   23 B(5,7,6)        =    109.469614     0.000749     0.310912   109.780526
	   24 B(5,7,10)       =    109.437654    -0.001579    -0.785477   108.652177
	   25 B(6,7,10)       =    109.459295    -0.001581    -0.786335   108.672960
	   26 B(7,10,8)       =    109.430678    -0.001579    -0.785236   108.645442
	   27 B(7,10,9)       =    109.508677    -0.001589    -0.791151   108.717526
	   28 B(7,10,14)      =    109.504376     0.005939     3.031265   112.535641
	   29 B(8,10,9)       =    109.419706     0.000753     0.312974   109.732680
	   30 B(8,10,14)      =    109.499680    -0.001765    -0.889707   108.609973
	   31 B(9,10,14)      =    109.464178    -0.001763    -0.888541   108.575638
	   32 B(10,14,11)     =    109.471985    -0.000024    -0.006037   109.465948
	   33 B(10,14,12)     =    109.505266     0.000632     0.355867   109.861134
	   34 B(10,14,13)     =    109.526246     0.000626     0.352948   109.879194
	   35 B(11,14,12)     =    109.474289    -0.000468    -0.225688   109.248601
	   36 B(11,14,13)     =    109.456851    -0.000466    -0.225237   109.231614
	   37 B(12,14,13)     =    109.392649    -0.000301    -0.255696   109.136953
	   38 D(1,4,7,5)      =    179.965873     0.000188     0.400152   180.366024
	   39 D(1,4,7,6)      =    -60.025575    -0.000097    -0.277801   -60.303376
	   40 D(1,4,7,10)     =     60.013132     0.000046     0.062114    60.075247
	   41 D(2,4,7,5)      =    -60.028143     0.000142     0.338256   -59.689886
	   42 D(2,4,7,6)      =     59.980409    -0.000143    -0.339696    59.640713
	   43 D(2,4,7,10)     =   -179.980883     0.000000     0.000219  -179.980664
	   44 D(3,4,7,5)      =     59.933911     0.000097     0.277873    60.211784
	   45 D(3,4,7,6)      =    179.942463    -0.000188    -0.400080   179.542383
	   46 D(3,4,7,10)     =    -60.018830    -0.000045    -0.060164   -60.078994
	   47 D(4,7,10,8)     =    120.040906     0.000117     0.279095   120.320001
	   48 D(4,7,10,9)     =   -120.024080    -0.000116    -0.278654  -120.302735
	   49 D(4,7,10,14)    =      0.010589     0.000001     0.000951     0.011540
	   50 D(5,7,10,8)     =      0.092031    -0.000001    -0.001293     0.090738
	   51 D(5,7,10,9)     =    120.027044    -0.000233    -0.559041   119.468002
	   52 D(5,7,10,14)    =   -119.938287    -0.000117    -0.279437  -120.217723
	   53 D(6,7,10,8)     =   -119.878168     0.000232     0.555917  -119.322250
	   54 D(6,7,10,9)     =      0.056845    -0.000001    -0.001831     0.055014
	   55 D(6,7,10,14)    =    120.091515     0.000116     0.277773   120.369288
	   56 D(7,10,14,11)   =    179.996267     0.000001     0.002420   179.998687
	   57 D(7,10,14,12)   =     59.971179     0.000047     0.064352    60.035530
	   58 D(7,10,14,13)   =    -59.987149    -0.000045    -0.060754   -60.047903
	   59 D(8,10,14,11)   =     60.008175    -0.000142    -0.338394    59.669782
	   60 D(8,10,14,12)   =    -60.016914    -0.000096    -0.276462   -60.293375
	   61 D(8,10,14,13)   =   -179.975241    -0.000189    -0.401567  -180.376808
	   62 D(9,10,14,11)   =    -59.941843     0.000142     0.336559   -59.605284
	   63 D(9,10,14,12)   =   -179.966932     0.000188     0.398491  -179.568441
	   64 D(9,10,14,13)   =     60.074741     0.000095     0.273386    60.348126
	 ---------------------------------------------------------------------------
	 Forces used to impose fixed constraints are not included.
	  Forces zeroed: 49 

  ==> Convergence Check <==

  Measures of convergence in internal coordinates in au.
  Criteria marked as inactive (o), active & met (*), and active & unmet ( ).
  --------------------------------------------------------------------------------------------- ~
   Step     Total Energy     Delta E     MAX Force     RMS Force      MAX Disp      RMS Disp    ~
  --------------------------------------------------------------------------------------------- ~
    Convergence Criteria    1.00e-06 *    3.00e-04 *             o    1.20e-03 *             o  ~
  --------------------------------------------------------------------------------------------- ~
      1    -157.81845571   -1.58e+02      7.80e-02      1.86e-02 o    5.29e-02      1.27e-02 o  ~
  ---------------------------------------------------------------------------------------------

	Writing optimization data to binary file.
	Structure for next step:
	Cartesian Geometry (in Angstrom)
	    H    -1.7008904917   0.4153353400   0.5343310417
	    H    -1.4764942662   2.0490003646  -0.0651075579
	    H    -1.2607491874   0.6799066190  -1.1398655116
	    C    -1.1285195084   1.0313781055  -0.1338847718
	    H     0.9185721331   1.5995912299  -0.4268988271
	    H     0.4775232030   1.3347877689   1.2559081024
	    C     0.3662720708   0.9717424791   0.2498646849
	    H     1.7520100707  -0.4790876573  -0.5345293122
	    H     1.3098722813  -0.7458766217   1.1464978158
	    C     0.9435751941  -0.4694233568   0.1741787564
	    H     0.3403090353  -2.4841895142  -0.3028961563
	    H    -0.4856454066  -1.2539108931  -1.2411656585
	    H    -0.9265775943  -1.5185481588   0.4320342915
	    C    -0.1107853703  -1.5065858213  -0.2671890102
			--------------------------
			 OPTKING Finished Execution 
			--------------------------

    Structure for next step:
    Molecular point group: c1
    Full point group: C1

    Geometry (in Angstrom), charge = 0, multiplicity = 1:

    H           -1.697209353365     0.416726705431     0.535514438373
    H           -1.472813127899     2.050391729941    -0.063924161165
    H           -1.257068049107     0.681297984401    -1.138682114919
    C           -1.124838370096     1.032769470896    -0.132701375155
    H            0.922253271433     1.600982595267    -0.425715430415
    H            0.481204341286     1.336179134249     1.257091499092
    C            0.369953209122     0.973133844468     0.251048081613
    H            1.755691209033    -0.477696291870    -0.533345915501
    H            1.313553419602    -0.744485256366     1.147681212522
    C            0.947256332352    -0.468031991458     0.175362153128
    H            0.343990173614    -2.482798148843    -0.301712759577
    H           -0.481964268303    -1.252519527752    -1.239982261853
    H           -0.922896456038    -1.517156793408     0.433217688207
    C           -0.107104231984    -1.505194455926    -0.266005613491

gradient() will perform analytic gradient computation.
    SCF Algorithm Type (re)set to DF.

*** tstart() called on lski1497
*** at Mon Feb 20 16:59:26 2017


         ---------------------------------------------------------
                                   SCF
            by Justin Turney, Rob Parrish, and Andy Simmonett
                              RHF Reference
                        1 Threads,   1000 MiB Core
         ---------------------------------------------------------

  ==> Geometry <==

    Molecular point group: c1
    Full point group: C1

    Geometry (in Angstrom), charge = 0, multiplicity = 1:

       Center              X                  Y                   Z               Mass       
    ------------   -----------------  -----------------  -----------------  -----------------
           H         -1.697209353365     0.416726705431     0.535514438373     1.007825032070
           H         -1.472813127899     2.050391729941    -0.063924161165     1.007825032070
           H         -1.257068049107     0.681297984401    -1.138682114919     1.007825032070
           C         -1.124838370096     1.032769470896    -0.132701375155    12.000000000000
           H          0.922253271433     1.600982595267    -0.425715430415     1.007825032070
           H          0.481204341286     1.336179134249     1.257091499092     1.007825032070
           C          0.369953209122     0.973133844468     0.251048081613    12.000000000000
           H          1.755691209033    -0.477696291870    -0.533345915501     1.007825032070
           H          1.313553419602    -0.744485256366     1.147681212522     1.007825032070
           C          0.947256332352    -0.468031991458     0.175362153128    12.000000000000
           H          0.343990173614    -2.482798148843    -0.301712759577     1.007825032070
           H         -0.481964268303    -1.252519527752    -1.239982261853     1.007825032070
           H         -0.922896456038    -1.517156793408     0.433217688207     1.007825032070
           C         -0.107104231984    -1.505194455926    -0.266005613491    12.000000000000

  Running in c1 symmetry.

  Rotational constants: A =      0.38538  B =      0.19338  C =      0.14226 [cm^-1]
  Rotational constants: A =  11553.26136  B =   5797.35395  C =   4264.75206 [MHz]
  Nuclear repulsion =  134.550746730243503

  Charge       = 0
  Multiplicity = 1
  Electrons    = 34
  Nalpha       = 17
  Nbeta        = 17

  ==> Algorithm <==

  SCF Algorithm Type is DF.
  DIIS enabled.
  MOM disabled.
  Fractional occupation disabled.
  Guess Type is READ.
  Energy threshold   = 1.00e-10
  Density threshold  = 1.00e-10
  Integral threshold = 0.00e+00

  ==> Primary Basis <==

  Basis Set: 6-31G(D)
    Number of shells: 44
    Number of basis function: 80
    Number of Cartesian functions: 80
    Spherical Harmonics?: false
    Max angular momentum: 2

  ==> Pre-Iterations <==

   -------------------------------------------------------
    Irrep   Nso     Nmo     Nalpha   Nbeta   Ndocc  Nsocc
   -------------------------------------------------------
     A         80      80       0       0       0       0
   -------------------------------------------------------
    Total      80      80      17      17      17       0
   -------------------------------------------------------

  ==> Integral Setup <==

  ==> DFJK: Density-Fitted J/K Matrices <==

    J tasked:                  Yes
    K tasked:                  Yes
    wK tasked:                  No
    OpenMP threads:              1
    Integrals threads:           1
    Memory (MB):               715
    Algorithm:                Core
    Integral Cache:           NONE
    Schwarz Cutoff:          1E-12
    Fitting Condition:       1E-12

   => Auxiliary Basis Set <=

  Basis Set: 
    Number of shells: 186
    Number of basis function: 574
    Number of Cartesian functions: 574
    Spherical Harmonics?: false
    Max angular momentum: 3

  Minimum eigenvalue in the overlap matrix is 3.6383318409E-03.
  Using Symmetric Orthogonalization.
  SCF Guess was Projection but file not found.
  Switching over to SAD guess.

  SCF Guess: Superposition of Atomic Densities via on-the-fly atomic UHF.

  ==> Iterations <==

                           Total Energy        Delta E     RMS |[F,P]|

   @DF-RHF iter   0:  -158.78688231920680   -1.58787e+02   4.57765e-02 
   @DF-RHF iter   1:  -157.17387824832613    1.61300e+00   4.56229e-03 
   @DF-RHF iter   2:  -157.27032828452687   -9.64500e-02   1.49713e-03 DIIS
   @DF-RHF iter   3:  -157.28071613542684   -1.03879e-02   5.88505e-04 DIIS
   @DF-RHF iter   4:  -157.28244456954147   -1.72843e-03   8.41455e-05 DIIS
   @DF-RHF iter   5:  -157.28249753588207   -5.29663e-05   1.76838e-05 DIIS
   @DF-RHF iter   6:  -157.28249977361443   -2.23773e-06   4.54060e-06 DIIS
   @DF-RHF iter   7:  -157.28249988104372   -1.07429e-07   1.15153e-06 DIIS
   @DF-RHF iter   8:  -157.28249989024667   -9.20295e-09   2.71176e-07 DIIS
   @DF-RHF iter   9:  -157.28249989085279   -6.06121e-10   7.42552e-08 DIIS
   @DF-RHF iter  10:  -157.28249989089520   -4.24052e-11   2.13161e-08 DIIS
   @DF-RHF iter  11:  -157.28249989089787   -2.67164e-12   4.75184e-09 DIIS
   @DF-RHF iter  12:  -157.28249989089781    5.68434e-14   1.03292e-09 DIIS
   @DF-RHF iter  13:  -157.28249989089821   -3.97904e-13   2.06650e-10 DIIS
   @DF-RHF iter  14:  -157.28249989089781    3.97904e-13   7.18946e-11 DIIS

  ==> Post-Iterations <==

    Orbital Energies (a.u.)
    -----------------------

    Doubly Occupied:                                                      

       1A    -11.209862     2A    -11.209312     3A    -11.201878  
       4A    -11.201791     5A     -1.068914     6A     -0.969739  
       7A     -0.883537     8A     -0.769332     9A     -0.646051  
      10A     -0.618078    11A     -0.566762    12A     -0.533672  
      13A     -0.527756    14A     -0.521425    15A     -0.454289  
      16A     -0.453794    17A     -0.452130  

    Virtual:                                                              

      18A      0.226297    19A      0.275315    20A      0.280304  
      21A      0.300606    22A      0.305857    23A      0.313690  
      24A      0.352409    25A      0.361194    26A      0.373637  
      27A      0.381486    28A      0.427593    29A      0.439950  
      30A      0.491606    31A      0.704881    32A      0.733140  
      33A      0.743591    34A      0.780894    35A      0.787332  
      36A      0.811118    37A      0.858324    38A      0.919101  
      39A      0.933368    40A      1.010202    41A      1.122938  
      42A      1.149020    43A      1.155297    44A      1.171776  
      45A      1.184671    46A      1.199584    47A      1.211648  
      48A      1.213451    49A      1.222693    50A      1.268520  
      51A      1.270805    52A      1.280241    53A      1.325404  
      54A      1.605977    55A      1.699119    56A      1.706369  
      57A      1.709280    58A      1.933200    59A      2.091436  
      60A      2.177272    61A      2.187552    62A      2.264806  
      63A      2.280276    64A      2.327438    65A      2.369488  
      66A      2.427819    67A      2.547245    68A      2.591627  
      69A      2.643749    70A      2.695580    71A      2.711150  
      72A      2.743577    73A      2.818569    74A      2.895576  
      75A      2.989839    76A      3.090067    77A      4.565039  
      78A      4.724388    79A      4.769193    80A      5.025337  

    Final Occupation by Irrep:
              A 
    DOCC [    17 ]

  Energy converged.

  @DF-RHF Final Energy:  -157.28249989089781

   => Energetics <=

    Nuclear Repulsion Energy =            134.5507467302435032
    One-Electron Energy =                -477.0898451489081253
    Two-Electron Energy =                 185.2565985277668688
    DFT Exchange-Correlation Energy =       0.0000000000000000
    Empirical Dispersion Energy =           0.0000000000000000
    PCM Polarization Energy =               0.0000000000000000
    EFP Energy =                            0.0000000000000000
    Total Energy =                       -157.2824998908977250


  Saving occupied orbitals to File 180.

*** tstop() called on lski1497 at Mon Feb 20 16:59:33 2017
Module time:
	user time   =       5.24 seconds =       0.09 minutes
	system time =       0.14 seconds =       0.00 minutes
	total time  =          7 seconds =       0.12 minutes
Total time:
	user time   =      28.85 seconds =       0.48 minutes
	system time =       0.85 seconds =       0.01 minutes
	total time  =         36 seconds =       0.60 minutes


Properties will be evaluated at   0.000000,   0.000000,   0.000000 Bohr

Properties computed using the SCF density matrix

  Nuclear Dipole Moment: (a.u.)
     X:    -0.9518      Y:    -0.3647      Z:    -0.3092

  Electronic Dipole Moment: (a.u.)
     X:     0.9819      Y:     0.3760      Z:     0.3187

  Dipole Moment: (a.u.)
     X:     0.0302      Y:     0.0113      Z:     0.0095     Total:     0.0336

  Dipole Moment: (Debye)
     X:     0.0767      Y:     0.0286      Z:     0.0240     Total:     0.0853


  //>>>>>>>>>>>>>>>>>>>>>>>>>>>>>>>>>>>//
  //               DFMP2               //
  //<<<<<<<<<<<<<<<<<<<<<<<<<<<<<<<<<<<//


*** tstart() called on lski1497
*** at Mon Feb 20 16:59:33 2017


*** tstop() called on lski1497 at Mon Feb 20 16:59:33 2017
Module time:
	user time   =       0.50 seconds =       0.01 minutes
	system time =       0.01 seconds =       0.00 minutes
	total time  =          0 seconds =       0.00 minutes
Total time:
	user time   =      29.37 seconds =       0.49 minutes
	system time =       0.86 seconds =       0.01 minutes
	total time  =         36 seconds =       0.60 minutes
	 --------------------------------------------------------
	                          DF-MP2                         
	      2nd-Order Density-Fitted Moller-Plesset Theory     
	              RMP2 Wavefunction,   1 Threads             
	                                                         
	        Rob Parrish, Justin Turney, Andy Simmonett,      
	           Ed Hohenstein, and C. David Sherrill          
	 --------------------------------------------------------

   => Auxiliary Basis Set <=

  Basis Set: 
    Number of shells: 132
    Number of basis function: 364
    Number of Cartesian functions: 414
    Spherical Harmonics?: true
    Max angular momentum: 3

	 --------------------------------------------------------
	                 NBF =    80, NAUX =   364
	 --------------------------------------------------------
	   CLASS    FOCC     OCC    AOCC    AVIR     VIR    FVIR
	   PAIRS       0      17      17      63      63       0
	 --------------------------------------------------------

DGAS Warning! /src/lib/libfock/apps.cc:80 is not currently checking restricted

         ------------------------------------------------------------
                                     CPHF                           
                                  Rob Parrish                       
         ------------------------------------------------------------

  ==> Geometry <==

    Molecular point group: c1
    Full point group: C1

    Geometry (in Angstrom), charge = 0, multiplicity = 1:

       Center              X                  Y                   Z               Mass       
    ------------   -----------------  -----------------  -----------------  -----------------
           H         -1.697209353365     0.416726705431     0.535514438373     1.007825032070
           H         -1.472813127899     2.050391729941    -0.063924161165     1.007825032070
           H         -1.257068049107     0.681297984401    -1.138682114919     1.007825032070
           C         -1.124838370096     1.032769470896    -0.132701375155    12.000000000000
           H          0.922253271433     1.600982595267    -0.425715430415     1.007825032070
           H          0.481204341286     1.336179134249     1.257091499092     1.007825032070
           C          0.369953209122     0.973133844468     0.251048081613    12.000000000000
           H          1.755691209033    -0.477696291870    -0.533345915501     1.007825032070
           H          1.313553419602    -0.744485256366     1.147681212522     1.007825032070
           C          0.947256332352    -0.468031991458     0.175362153128    12.000000000000
           H          0.343990173614    -2.482798148843    -0.301712759577     1.007825032070
           H         -0.481964268303    -1.252519527752    -1.239982261853     1.007825032070
           H         -0.922896456038    -1.517156793408     0.433217688207     1.007825032070
           C         -0.107104231984    -1.505194455926    -0.266005613491    12.000000000000

  Nuclear repulsion =  134.550746730243475
  Reference energy  = -157.282499890897810

  ==> Basis Set <==

  Basis Set: 6-31G(D)
    Number of shells: 44
    Number of basis function: 80
    Number of Cartesian functions: 80
    Spherical Harmonics?: false
    Max angular momentum: 2

  ==> CGRSolver (by Rob Parrish) <==

   Number of roots    =         1
   Preconditioning    =    JACOBI
   Convergence cutoff =     1E-06
   Maximum iterations =       100

  ==> CPHFRHamiltonian (by Rob Parrish) <== 

  ==> DFJK: Density-Fitted J/K Matrices <==

    J tasked:                  Yes
    K tasked:                  Yes
    wK tasked:                  No
    OpenMP threads:              1
    Integrals threads:           1
    Memory (MB):               715
    Algorithm:                Core
    Integral Cache:           NONE
    Schwarz Cutoff:          1E-12
    Fitting Condition:       1E-12

   => Auxiliary Basis Set <=

  Basis Set: 
    Number of shells: 186
    Number of basis function: 574
    Number of Cartesian functions: 574
    Spherical Harmonics?: false
    Max angular momentum: 3

  ==> CPHF Iterations <==

  => Iterations <=

             Iter  Converged  Remaining    Residual
  CGR           1          0          1   7.476E-02
  CGR           2          0          1   8.567E-03
  CGR           3          0          1   2.125E-03
  CGR           4          0          1   4.227E-04
  CGR           5          0          1   7.448E-05
  CGR           6          0          1   1.304E-05
  CGR           7          0          1   1.563E-06
  CGR           8          1          0   3.819E-07

    CGRSolver converged.

  ==> DFCorrGrad: Density-Fitted Correlated Gradients <==

    OpenMP threads:              1
    Integrals threads:           1
    Memory (MB):               715
    Schwarz Cutoff:          0E+00
    Fitting Condition:       1E-12

   => Auxiliary Basis Set <=

  Basis Set: 
    Number of shells: 186
    Number of basis function: 510
    Number of Cartesian functions: 574
    Spherical Harmonics?: true
    Max angular momentum: 3

	-----------------------------------------------------------
	 ==================> DF-MP2 Energies <==================== 
	-----------------------------------------------------------
	 Reference Energy          =    -157.2824998908978102 [Eh]
	 Singles Energy            =      -0.0000000000000000 [Eh]
	 Same-Spin Energy          =      -0.1245895800376692 [Eh]
	 Opposite-Spin Energy      =      -0.4215300111911445 [Eh]
	 Correlation Energy        =      -0.5461195912288138 [Eh]
	 Total Energy              =    -157.8286194821266122 [Eh]
	-----------------------------------------------------------
	 ================> DF-SCS-MP2 Energies <================== 
	-----------------------------------------------------------
	 SCS Same-Spin Scale       =       0.3333333333333333 [-]
	 SCS Opposite-Spin Scale   =       1.2000000000000000 [-]
	 SCS Same-Spin Energy      =      -0.0415298600125564 [Eh]
	 SCS Opposite-Spin Energy  =      -0.5058360134293735 [Eh]
	 SCS Correlation Energy    =      -0.5473658734419299 [Eh]
	 SCS Total Energy          =    -157.8298657643397291 [Eh]
	-----------------------------------------------------------


  -Total Gradient:
     Atom            X                  Y                   Z
    ------   -----------------  -----------------  -----------------
       1        0.009823395350     0.003588509085    -0.005931363698
       2        0.005725814115    -0.009676650701    -0.000069062448
       3        0.005417432344     0.001100976501     0.010854592848
       4       -0.023092101877    -0.007596747401    -0.007522784851
       5       -0.006721179002    -0.011140111307     0.003709561115
       6       -0.003173126441    -0.009159368603    -0.009796744815
       7        0.017013055985     0.020354723285     0.008042974966
       8       -0.012684391107     0.003095138530     0.004817177790
       9       -0.008982891011     0.005173766993    -0.009206949216
      10        0.026730728657    -0.003890444889     0.006397209061
      11       -0.002636435786     0.011197396422     0.001084184995
      12        0.004985583250     0.002005924233     0.010984327078
      13        0.009047266744     0.004668565880    -0.005779557604
      14       -0.021453151222    -0.009721678027    -0.007583565221


			-----------------------------------------
			 OPTKING 2.0: for geometry optimizations 
			  - R.A. King,  Bethel University        
			-----------------------------------------

	Previous internal coordinate definitions found.
	---Fragment 1 Geometry and Gradient---
	 H          -3.2072608680        0.7874993455        1.0119756287
	 H          -2.7832134566        3.8746788347       -0.1207991579
	 H          -2.3755143432        1.2874666054       -2.1517973496
	 C          -2.1256364632        1.9516514584       -0.2507692565
	 H           1.7428061082        3.0254186486       -0.8044855740
	 H           0.9093444190        2.5250126282        2.3755586573
	 C           0.6991102472        1.8389564567        0.4744121204
	 H           3.3177755590       -0.9027151663       -1.0078777144
	 H           2.4822562240       -1.4068732445        2.1688031795
	 C           1.7900550458       -0.8844522853        0.3313864435
	 H           0.6500472205       -4.6918085445       -0.5701544864
	 H          -0.9107804729       -2.3669188835       -2.3432268845
	 H          -1.7440215509       -2.8670108402        0.8186627866
	 C          -0.2023976661       -2.8444052984       -0.5026777593
	             0.0098233954        0.0035885091       -0.0059313637
	             0.0057258141       -0.0096766507       -0.0000690624
	             0.0054174323        0.0011009765        0.0108545928
	            -0.0230921019       -0.0075967474       -0.0075227849
	            -0.0067211790       -0.0111401113        0.0037095611
	            -0.0031731264       -0.0091593686       -0.0097967448
	             0.0170130560        0.0203547233        0.0080429750
	            -0.0126843911        0.0030951385        0.0048171778
	            -0.0089828910        0.0051737670       -0.0092069492
	             0.0267307287       -0.0038904449        0.0063972091
	            -0.0026364358        0.0111973964        0.0010841850
	             0.0049855832        0.0020059242        0.0109843271
	             0.0090472667        0.0046685659       -0.0057795576
	            -0.0214531512       -0.0097216780       -0.0075835652

	---Fragment 1 Intrafragment Coordinates---
	 - Coordinate -           - BOHR/RAD -       - ANG/DEG -
	 R(1,4)           =         2.029701	       1.074072
	 R(2,4)           =         2.036500	       1.077670
	 R(3,4)           =         2.029160	       1.073785
	 R(4,7)           =         2.918524	       1.544416
	 R(5,7)           =         2.032873	       1.075750
	 R(6,7)           =         2.032051	       1.075315
	 R(7,10)          =         2.937273	       1.554338
	 R(8,10)          =         2.031721	       1.075141
	 R(9,10)          =         2.031789	       1.075176
	 R(10,14)         =         2.916667	       1.543434
	 R(11,14)         =         2.035710	       1.077251
	 R(12,14)         =         2.029143	       1.073776
	 R(13,14)         =         2.030531	       1.074511
	 B(1,4,2)         =         1.906914	     109.258134
	 B(1,4,3)         =         1.906558	     109.237736
	 B(1,4,7)         =         1.916696	     109.818602
	 B(2,4,3)         =         1.906157	     109.214758
	 B(2,4,7)         =         1.910412	     109.458546
	 B(3,4,7)         =         1.917004	     109.836246
	 B(4,7,5)         =         1.894477	     108.545529
	 B(4,7,6)         =         1.896069	     108.636730
	 B(4,7,10)        =         1.964036	     112.530992
	 B(5,7,6)         =         1.916032	     109.780526
	 B(5,7,10)        =         1.896338	     108.652177
	 B(6,7,10)        =         1.896701	     108.672960
	 B(7,10,8)        =         1.896221	     108.645442
	 B(7,10,9)        =         1.897479	     108.717526
	 B(7,10,14)       =         1.964117	     112.535641
	 B(8,10,9)        =         1.915197	     109.732680
	 B(8,10,14)       =         1.895602	     108.609973
	 B(9,10,14)       =         1.895002	     108.575638
	 B(10,14,11)      =         1.910541	     109.465948
	 B(10,14,12)      =         1.917439	     109.861134
	 B(10,14,13)      =         1.917754	     109.879194
	 B(11,14,12)      =         1.906748	     109.248601
	 B(11,14,13)      =         1.906451	     109.231614
	 B(12,14,13)      =         1.904799	     109.136953
	 D(1,4,7,5)       =        -3.135204	    -179.633976
	 D(1,4,7,6)       =        -1.052492	     -60.303376
	 D(1,4,7,10)      =         1.048511	      60.075247
	 D(2,4,7,5)       =        -1.041785	     -59.689886
	 D(2,4,7,6)       =         1.040927	      59.640713
	 D(2,4,7,10)      =        -3.141255	    -179.980664
	 D(3,4,7,5)       =         1.050894	      60.211784
	 D(3,4,7,6)       =         3.133606	     179.542383
	 D(3,4,7,10)      =        -1.048576	     -60.078994
	 D(4,7,10,8)      =         2.099980	     120.320001
	 D(4,7,10,9)      =        -2.099679	    -120.302735
	 D(4,7,10,14)     =         0.000201	       0.011540
	 D(5,7,10,8)      =         0.001584	       0.090738
	 D(5,7,10,9)      =         2.085110	     119.468002
	 D(5,7,10,14)     =        -2.098195	    -120.217723
	 D(6,7,10,8)      =        -2.082566	    -119.322250
	 D(6,7,10,9)      =         0.000960	       0.055014
	 D(6,7,10,14)     =         2.100840	     120.369288
	 D(7,10,14,11)    =         3.141570	     179.998687
	 D(7,10,14,12)    =         1.047818	      60.035530
	 D(7,10,14,13)    =        -1.048034	     -60.047903
	 D(8,10,14,11)    =         1.041434	      59.669782
	 D(8,10,14,12)    =        -1.052318	     -60.293375
	 D(8,10,14,13)    =         3.135016	     179.623192
	 D(9,10,14,11)    =        -1.040308	     -59.605284
	 D(9,10,14,12)    =        -3.134061	    -179.568441
	 D(9,10,14,13)    =         1.053274	      60.348126

	Current energy   :      -157.8286194821

	Energy change for the previous step:
		Projected    :        -0.0144412702
		Actual       :        -0.0101637756

	Performing BFGS update.
	Previous computed or guess Hessian on step 1.
	Steps to be used in Hessian update: 1
	Adding user-defined constraint: Fragment 1; Coordinate 49:
		Value =     0.000201; Fixed value    =     0.000020
		Force =    -0.000095; Force constant =     0.525000
	Removing off-diagonal coupling between coordinate 49 and others.
	Taking RFO optimization step.
	Going to follow RFO solution 1.
	Using RFO vector 1.

	Determining step-restricting scale parameter for RS-RFO.
	Maximum step size allowed    0.10000

	 Iter      |step|        alpha        rfo_root  
	------------------------------------------------
	    0     0.19205       1.00000           1
	    1     0.14504       7.29296           1
	    2     0.11698      18.20102           1
	    3     0.10362      28.27931           1
	    4     0.10022      31.70840           1
	    5     0.10000      31.94479           1
	------------------------------------------------
	Norm of target step-size    0.10000
	Projected energy change by RFO approximation:        -0.0056434088

	Back-transformation to cartesian coordinates...
	Successfully converged to displaced geometry.

	--- Internal Coordinate Step in ANG or DEG, aJ/ANG or AJ/DEG ---
	 ---------------------------------------------------------------------------
	   Coordinate                Previous        Force       Change         New 
	   ----------                --------       ------       ------       ------
	    1 R(1,4)          =      1.074072     0.090487     0.012449     1.086521
	    2 R(2,4)          =      1.077670     0.090549     0.010906     1.088575
	    3 R(3,4)          =      1.073785     0.092246     0.012649     1.086434
	    4 R(4,7)          =      1.544416    -0.018408    -0.005045     1.539371
	    5 R(5,7)          =      1.075750     0.101223     0.012272     1.088022
	    6 R(6,7)          =      1.075315     0.103695     0.012556     1.087870
	    7 R(7,10)         =      1.554338     0.111270     0.004593     1.558931
	    8 R(8,10)         =      1.075141     0.104970     0.012702     1.087842
	    9 R(9,10)         =      1.075176     0.104770     0.012680     1.087856
	   10 R(10,14)        =      1.543434    -0.014528    -0.004476     1.538958
	   11 R(11,14)        =      1.077251     0.093110     0.011200     1.088452
	   12 R(12,14)        =      1.073776     0.092536     0.012685     1.086461
	   13 R(13,14)        =      1.074511     0.088005     0.012164     1.086675
	   14 B(1,4,2)        =    109.258134    -0.000305    -0.564151   108.693983
	   15 B(1,4,3)        =    109.237736    -0.000260    -0.621903   108.615832
	   16 B(1,4,7)        =    109.818602     0.000400     0.745976   110.564578
	   17 B(2,4,3)        =    109.214758    -0.000298    -0.546054   108.668705
	   18 B(2,4,7)        =    109.458546     0.000064     0.229975   109.688522
	   19 B(3,4,7)        =    109.836246     0.000391     0.723138   110.559385
	   20 B(4,7,5)        =    108.545529    -0.000636    -0.427938   108.117592
	   21 B(4,7,6)        =    108.636730    -0.000644    -0.445222   108.191508
	   22 B(4,7,10)       =    112.530992     0.002167     1.499678   114.030670
	   23 B(5,7,6)        =    109.780526     0.000102    -0.466188   109.314338
	   24 B(5,7,10)       =    108.652177    -0.000503    -0.103983   108.548194
	   25 B(6,7,10)       =    108.672960    -0.000502    -0.106178   108.566782
	   26 B(7,10,8)       =    108.645442    -0.000501    -0.096686   108.548756
	   27 B(7,10,9)       =    108.717526    -0.000512    -0.133185   108.584341
	   28 B(7,10,14)      =    112.535641     0.002170     1.506714   114.042355
	   29 B(8,10,9)       =    109.732680     0.000105    -0.456453   109.276226
	   30 B(8,10,14)      =    108.609973    -0.000642    -0.443712   108.166262
	   31 B(9,10,14)      =    108.575638    -0.000638    -0.427234   108.148404
	   32 B(10,14,11)     =    109.465948     0.000068     0.238349   109.704297
	   33 B(10,14,12)     =    109.861134     0.000391     0.722409   110.583543
	   34 B(10,14,13)     =    109.879194     0.000385     0.712331   110.591525
	   35 B(11,14,12)     =    109.248601    -0.000303    -0.557431   108.691170
	   36 B(11,14,13)     =    109.231614    -0.000300    -0.555297   108.676317
	   37 B(12,14,13)     =    109.136953    -0.000250    -0.594265   108.542688
	   38 D(1,4,7,5)      =   -179.633976     0.000090     0.610746  -179.023229
	   39 D(1,4,7,6)      =    -60.303376    -0.000050    -0.436366   -60.739742
	   40 D(1,4,7,10)     =     60.075247     0.000020     0.081531    60.156777
	   41 D(2,4,7,5)      =    -59.689886     0.000070     0.523127   -59.166759
	   42 D(2,4,7,6)      =     59.640713    -0.000071    -0.523985    59.116728
	   43 D(2,4,7,10)     =   -179.980664    -0.000000    -0.006089  -179.986753
	   44 D(3,4,7,5)      =     60.211784     0.000050     0.443352    60.655135
	   45 D(3,4,7,6)      =    179.542383    -0.000090    -0.603761   178.938622
	   46 D(3,4,7,10)     =    -60.078994    -0.000020    -0.085864   -60.164858
	   47 D(4,7,10,8)     =    120.320001     0.000053     0.344195   120.664196
	   48 D(4,7,10,9)     =   -120.302735    -0.000052    -0.335417  -120.638152
	   49 D(4,7,10,14)    =      0.011540     0.000000     0.002858     0.014398
	   50 D(5,7,10,8)     =      0.090738    -0.000000    -0.006229     0.084509
	   51 D(5,7,10,9)     =    119.468002    -0.000106    -0.685841   118.782161
	   52 D(5,7,10,14)    =   -120.217723    -0.000053    -0.347565  -120.565288
	   53 D(6,7,10,8)     =   -119.322250     0.000105     0.673736  -118.648514
	   54 D(6,7,10,9)     =      0.055014    -0.000001    -0.005876     0.049138
	   55 D(6,7,10,14)    =    120.369288     0.000052     0.332400   120.701688
	   56 D(7,10,14,11)   =    179.998687     0.000001     0.012580   180.011268
	   57 D(7,10,14,12)   =     60.035530     0.000021     0.100766    60.136296
	   58 D(7,10,14,13)   =    -60.047903    -0.000020    -0.079250   -60.127153
	   59 D(8,10,14,11)   =     59.669782    -0.000070    -0.521598    59.148184
	   60 D(8,10,14,12)   =    -60.293375    -0.000050    -0.433412   -60.726788
	   61 D(8,10,14,13)   =    179.623192    -0.000091    -0.613428   179.009763
	   62 D(9,10,14,11)   =    -59.605284     0.000069     0.512144   -59.093140
	   63 D(9,10,14,12)   =   -179.568441     0.000090     0.600329  -178.968112
	   64 D(9,10,14,13)   =     60.348126     0.000049     0.420313    60.768439
	 ---------------------------------------------------------------------------
	 Forces used to impose fixed constraints are not included.
	  Forces zeroed: 49 

  ==> Convergence Check <==

  Measures of convergence in internal coordinates in au.
  Criteria marked as inactive (o), active & met (*), and active & unmet ( ).
  ---------------------------------------------------------------------------------------------
   Step     Total Energy     Delta E     MAX Force     RMS Force      MAX Disp      RMS Disp   
  ---------------------------------------------------------------------------------------------
    Convergence Criteria    1.00e-06 *    3.00e-04 *             o    1.20e-03 *             o
  ---------------------------------------------------------------------------------------------
      2    -157.82861948   -1.02e-02      2.85e-02      8.06e-03 o    2.63e-02      1.25e-02 o  ~
  ---------------------------------------------------------------------------------------------

	Writing optimization data to binary file.
	Structure for next step:
	Cartesian Geometry (in Angstrom)
	    H    -1.7190789515   0.4667150060   0.5798308083
	    H    -1.4636532263   2.1031396579  -0.0370773523
	    H    -1.3216729784   0.7152755406  -1.1215771879
	    C    -1.1347743976   1.0680813271  -0.1111639773
	    H     0.9085278289   1.6030109029  -0.4770651026
	    H     0.5102512326   1.3539672946   1.2345357481
	    C     0.3644835448   0.9749317926   0.2253054351
	    H     1.7455455464  -0.4838706421  -0.5853624331
	    H     1.3459047981  -0.7344054713   1.1251041133
	    C     0.9435204571  -0.4704854963   0.1494691513
	    H     0.3877592933  -2.5174263107  -0.2792987211
	    H    -0.5047484504  -1.3235902042  -1.2286419610
	    H    -0.9025776762  -1.5720725621   0.4719916026
	    C    -0.0894789212  -1.5396718359  -0.2482046827
			--------------------------
			 OPTKING Finished Execution 
			--------------------------

    Structure for next step:
    Molecular point group: c1
    Full point group: C1

    Geometry (in Angstrom), charge = 0, multiplicity = 1:

    H           -1.718791977382     0.466681142806     0.582158259445
    H           -1.463366252143     2.103105794726    -0.034749901186
    H           -1.321386004319     0.715241677456    -1.119249736751
    C           -1.134487423519     1.068047463926    -0.108836526149
    H            0.908814803012     1.602977039776    -0.474737651438
    H            0.510538206749     1.353933431433     1.236863199191
    C            0.364770518947     0.974897929396     0.227632886236
    H            1.745832520551    -0.483904505320    -0.583034981958
    H            1.346191772192    -0.734439334515     1.127431564432
    C            0.943807431235    -0.470519359489     0.151796602408
    H            0.388046267458    -2.517460173903    -0.276971269947
    H           -0.504461476279    -1.323624067334    -1.226314509859
    H           -0.902290702097    -1.572106425234     0.474319053695
    C           -0.089191947108    -1.539705699102    -0.245877231531

gradient() will perform analytic gradient computation.
    SCF Algorithm Type (re)set to DF.

*** tstart() called on lski1497
*** at Mon Feb 20 16:59:53 2017


         ---------------------------------------------------------
                                   SCF
            by Justin Turney, Rob Parrish, and Andy Simmonett
                              RHF Reference
                        1 Threads,   1000 MiB Core
         ---------------------------------------------------------

  ==> Geometry <==

    Molecular point group: c1
    Full point group: C1

    Geometry (in Angstrom), charge = 0, multiplicity = 1:

       Center              X                  Y                   Z               Mass       
    ------------   -----------------  -----------------  -----------------  -----------------
           H         -1.718791977382     0.466681142806     0.582158259445     1.007825032070
           H         -1.463366252143     2.103105794726    -0.034749901186     1.007825032070
           H         -1.321386004319     0.715241677456    -1.119249736751     1.007825032070
           C         -1.134487423519     1.068047463926    -0.108836526149    12.000000000000
           H          0.908814803012     1.602977039776    -0.474737651438     1.007825032070
           H          0.510538206749     1.353933431433     1.236863199191     1.007825032070
           C          0.364770518947     0.974897929396     0.227632886236    12.000000000000
           H          1.745832520551    -0.483904505320    -0.583034981958     1.007825032070
           H          1.346191772192    -0.734439334515     1.127431564432     1.007825032070
           C          0.943807431235    -0.470519359489     0.151796602408    12.000000000000
           H          0.388046267458    -2.517460173903    -0.276971269947     1.007825032070
           H         -0.504461476279    -1.323624067334    -1.226314509859     1.007825032070
           H         -0.902290702097    -1.572106425234     0.474319053695     1.007825032070
           C         -0.089191947108    -1.539705699102    -0.245877231531    12.000000000000

  Running in c1 symmetry.

  Rotational constants: A =      0.38996  B =      0.18553  C =      0.13878 [cm^-1]
  Rotational constants: A =  11690.74134  B =   5562.08090  C =   4160.61378 [MHz]
  Nuclear repulsion =  133.432966866653658

  Charge       = 0
  Multiplicity = 1
  Electrons    = 34
  Nalpha       = 17
  Nbeta        = 17

  ==> Algorithm <==

  SCF Algorithm Type is DF.
  DIIS enabled.
  MOM disabled.
  Fractional occupation disabled.
  Guess Type is READ.
  Energy threshold   = 1.00e-10
  Density threshold  = 1.00e-10
  Integral threshold = 0.00e+00

  ==> Primary Basis <==

  Basis Set: 6-31G(D)
    Number of shells: 44
    Number of basis function: 80
    Number of Cartesian functions: 80
    Spherical Harmonics?: false
    Max angular momentum: 2

  ==> Pre-Iterations <==

   -------------------------------------------------------
    Irrep   Nso     Nmo     Nalpha   Nbeta   Ndocc  Nsocc
   -------------------------------------------------------
     A         80      80       0       0       0       0
   -------------------------------------------------------
    Total      80      80      17      17      17       0
   -------------------------------------------------------

  ==> Integral Setup <==

  ==> DFJK: Density-Fitted J/K Matrices <==

    J tasked:                  Yes
    K tasked:                  Yes
    wK tasked:                  No
    OpenMP threads:              1
    Integrals threads:           1
    Memory (MB):               715
    Algorithm:                Core
    Integral Cache:           NONE
    Schwarz Cutoff:          1E-12
    Fitting Condition:       1E-12

   => Auxiliary Basis Set <=

  Basis Set: 
    Number of shells: 186
    Number of basis function: 574
    Number of Cartesian functions: 574
    Spherical Harmonics?: false
    Max angular momentum: 3

  Minimum eigenvalue in the overlap matrix is 3.8306069283E-03.
  Using Symmetric Orthogonalization.
  SCF Guess was Projection but file not found.
  Switching over to SAD guess.

  SCF Guess: Superposition of Atomic Densities via on-the-fly atomic UHF.

  ==> Iterations <==

                           Total Energy        Delta E     RMS |[F,P]|

   @DF-RHF iter   0:  -158.67684421212630   -1.58677e+02   4.49211e-02 
   @DF-RHF iter   1:  -157.17588581348218    1.50096e+00   4.57451e-03 
   @DF-RHF iter   2:  -157.27327166876574   -9.73859e-02   1.53691e-03 DIIS
   @DF-RHF iter   3:  -157.28400763823015   -1.07360e-02   6.01098e-04 DIIS
   @DF-RHF iter   4:  -157.28584161286983   -1.83397e-03   8.39489e-05 DIIS
   @DF-RHF iter   5:  -157.28589445606798   -5.28432e-05   1.73977e-05 DIIS
   @DF-RHF iter   6:  -157.28589664640555   -2.19034e-06   4.40865e-06 DIIS
   @DF-RHF iter   7:  -157.28589674647191   -1.00066e-07   1.12265e-06 DIIS
   @DF-RHF iter   8:  -157.28589675501343   -8.54152e-09   2.61358e-07 DIIS
   @DF-RHF iter   9:  -157.28589675556793   -5.54508e-10   7.28085e-08 DIIS
   @DF-RHF iter  10:  -157.28589675560886   -4.09273e-11   2.10675e-08 DIIS
   @DF-RHF iter  11:  -157.28589675561130   -2.44427e-12   4.57944e-09 DIIS
   @DF-RHF iter  12:  -157.28589675561142   -1.13687e-13   9.88184e-10 DIIS
   @DF-RHF iter  13:  -157.28589675561130    1.13687e-13   2.11581e-10 DIIS
   @DF-RHF iter  14:  -157.28589675561159   -2.84217e-13   7.21795e-11 DIIS

  ==> Post-Iterations <==

    Orbital Energies (a.u.)
    -----------------------

    Doubly Occupied:                                                      

       1A    -11.214379     2A    -11.213858     3A    -11.206954  
       4A    -11.206921     5A     -1.065307     6A     -0.970258  
       7A     -0.878139     8A     -0.766269     9A     -0.640757  
      10A     -0.613416    11A     -0.565127    12A     -0.533629  
      13A     -0.522062    14A     -0.520579    15A     -0.454982  
      16A     -0.453253    17A     -0.450666  

    Virtual:                                                              

      18A      0.223177    19A      0.273144    20A      0.276830  
      21A      0.297542    22A      0.302916    23A      0.311904  
      24A      0.347861    25A      0.363481    26A      0.365351  
      27A      0.375111    28A      0.426543    29A      0.429497  
      30A      0.493606    31A      0.705187    32A      0.731886  
      33A      0.734269    34A      0.789732    35A      0.793776  
      36A      0.814279    37A      0.860357    38A      0.914787  
      39A      0.936532    40A      1.009446    41A      1.120746  
      42A      1.137025    43A      1.144007    44A      1.161460  
      45A      1.169626    46A      1.179205    47A      1.198042  
      48A      1.204788    49A      1.212686    50A      1.253093  
      51A      1.256382    52A      1.278130    53A      1.309936  
      54A      1.598714    55A      1.675042    56A      1.698883  
      57A      1.715588    58A      1.935201    59A      2.081925  
      60A      2.152558    61A      2.170169    62A      2.255001  
      63A      2.276418    64A      2.325220    65A      2.364185  
      66A      2.417661    67A      2.531493    68A      2.581061  
      69A      2.630217    70A      2.670725    71A      2.709161  
      72A      2.732781    73A      2.796555    74A      2.891084  
      75A      2.987322    76A      3.086152    77A      4.549132  
      78A      4.717082    79A      4.760362    80A      5.014825  

    Final Occupation by Irrep:
              A 
    DOCC [    17 ]

  Energy converged.

  @DF-RHF Final Energy:  -157.28589675561159

   => Energetics <=

    Nuclear Repulsion Energy =            133.4329668666536577
    One-Electron Energy =                -474.8846147505432782
    Two-Electron Energy =                 184.1657511282780320
    DFT Exchange-Correlation Energy =       0.0000000000000000
    Empirical Dispersion Energy =           0.0000000000000000
    PCM Polarization Energy =               0.0000000000000000
    EFP Energy =                            0.0000000000000000
    Total Energy =                       -157.2858967556115886


  Saving occupied orbitals to File 180.

*** tstop() called on lski1497 at Mon Feb 20 16:59:59 2017
Module time:
	user time   =       5.17 seconds =       0.09 minutes
	system time =       0.15 seconds =       0.00 minutes
	total time  =          6 seconds =       0.10 minutes
Total time:
	user time   =      52.07 seconds =       0.87 minutes
	system time =       1.45 seconds =       0.02 minutes
	total time  =         62 seconds =       1.03 minutes


Properties will be evaluated at   0.000000,   0.000000,   0.000000 Bohr

Properties computed using the SCF density matrix

  Nuclear Dipole Moment: (a.u.)
     X:    -0.9477      Y:    -0.3652      Z:    -0.2759

  Electronic Dipole Moment: (a.u.)
     X:     0.9759      Y:     0.3761      Z:     0.2839

  Dipole Moment: (a.u.)
     X:     0.0282      Y:     0.0108      Z:     0.0081     Total:     0.0313

  Dipole Moment: (Debye)
     X:     0.0718      Y:     0.0276      Z:     0.0205     Total:     0.0796


  //>>>>>>>>>>>>>>>>>>>>>>>>>>>>>>>>>>>//
  //               DFMP2               //
  //<<<<<<<<<<<<<<<<<<<<<<<<<<<<<<<<<<<//


*** tstart() called on lski1497
*** at Mon Feb 20 17:00:00 2017


*** tstop() called on lski1497 at Mon Feb 20 17:00:00 2017
Module time:
	user time   =       0.51 seconds =       0.01 minutes
	system time =       0.01 seconds =       0.00 minutes
	total time  =          0 seconds =       0.00 minutes
Total time:
	user time   =      52.59 seconds =       0.88 minutes
	system time =       1.46 seconds =       0.02 minutes
	total time  =         63 seconds =       1.05 minutes
	 --------------------------------------------------------
	                          DF-MP2                         
	      2nd-Order Density-Fitted Moller-Plesset Theory     
	              RMP2 Wavefunction,   1 Threads             
	                                                         
	        Rob Parrish, Justin Turney, Andy Simmonett,      
	           Ed Hohenstein, and C. David Sherrill          
	 --------------------------------------------------------

   => Auxiliary Basis Set <=

  Basis Set: 
    Number of shells: 132
    Number of basis function: 364
    Number of Cartesian functions: 414
    Spherical Harmonics?: true
    Max angular momentum: 3

	 --------------------------------------------------------
	                 NBF =    80, NAUX =   364
	 --------------------------------------------------------
	   CLASS    FOCC     OCC    AOCC    AVIR     VIR    FVIR
	   PAIRS       0      17      17      63      63       0
	 --------------------------------------------------------

DGAS Warning! /src/lib/libfock/apps.cc:80 is not currently checking restricted

         ------------------------------------------------------------
                                     CPHF                           
                                  Rob Parrish                       
         ------------------------------------------------------------

  ==> Geometry <==

    Molecular point group: c1
    Full point group: C1

    Geometry (in Angstrom), charge = 0, multiplicity = 1:

       Center              X                  Y                   Z               Mass       
    ------------   -----------------  -----------------  -----------------  -----------------
           H         -1.718791977382     0.466681142806     0.582158259445     1.007825032070
           H         -1.463366252143     2.103105794726    -0.034749901186     1.007825032070
           H         -1.321386004319     0.715241677456    -1.119249736751     1.007825032070
           C         -1.134487423519     1.068047463926    -0.108836526149    12.000000000000
           H          0.908814803012     1.602977039776    -0.474737651438     1.007825032070
           H          0.510538206749     1.353933431433     1.236863199191     1.007825032070
           C          0.364770518947     0.974897929396     0.227632886236    12.000000000000
           H          1.745832520551    -0.483904505320    -0.583034981958     1.007825032070
           H          1.346191772192    -0.734439334515     1.127431564432     1.007825032070
           C          0.943807431235    -0.470519359489     0.151796602408    12.000000000000
           H          0.388046267458    -2.517460173903    -0.276971269947     1.007825032070
           H         -0.504461476279    -1.323624067334    -1.226314509859     1.007825032070
           H         -0.902290702097    -1.572106425234     0.474319053695     1.007825032070
[...]
    Schwarz Cutoff:          1E-12
    Fitting Condition:       1E-12

   => Auxiliary Basis Set <=

  Basis Set: 
    Number of shells: 186
    Number of basis function: 574
    Number of Cartesian functions: 574
    Spherical Harmonics?: false
    Max angular momentum: 3

  ==> CPHF Iterations <==

  => Iterations <=

             Iter  Converged  Remaining    Residual
  CGR           1          0          1   7.597E-02
  CGR           2          0          1   8.907E-03
  CGR           3          0          1   2.229E-03
  CGR           4          0          1   4.268E-04
  CGR           5          0          1   7.572E-05
  CGR           6          0          1   1.452E-05
  CGR           7          0          1   2.051E-06
  CGR           8          1          0   5.023E-07

    CGRSolver converged.

  ==> DFCorrGrad: Density-Fitted Correlated Gradients <==

    OpenMP threads:              1
    Integrals threads:           1
    Memory (MB):               715
    Schwarz Cutoff:          0E+00
    Fitting Condition:       1E-12

   => Auxiliary Basis Set <=

  Basis Set: 
    Number of shells: 186
    Number of basis function: 510
    Number of Cartesian functions: 574
    Spherical Harmonics?: true
    Max angular momentum: 3

	-----------------------------------------------------------
	 ==================> DF-MP2 Energies <==================== 
	-----------------------------------------------------------
	 Reference Energy          =    -157.2879799254416184 [Eh]
	 Singles Energy            =      -0.0000000000000000 [Eh]
	 Same-Spin Energy          =      -0.1242217515437546 [Eh]
	 Opposite-Spin Energy      =      -0.4226122649803923 [Eh]
	 Correlation Energy        =      -0.5468340165241470 [Eh]
	 Total Energy              =    -157.8348139419657628 [Eh]
	-----------------------------------------------------------
	 ================> DF-SCS-MP2 Energies <================== 
	-----------------------------------------------------------
	 SCS Same-Spin Scale       =       0.3333333333333333 [-]
	 SCS Opposite-Spin Scale   =       1.2000000000000000 [-]
	 SCS Same-Spin Energy      =      -0.0414072505145849 [Eh]
	 SCS Opposite-Spin Energy  =      -0.5071347179764708 [Eh]
	 SCS Correlation Energy    =      -0.5485419684910556 [Eh]
	 SCS Total Energy          =    -157.8365218939326837 [Eh]
	-----------------------------------------------------------


  -Total Gradient:
     Atom            X                  Y                   Z
    ------   -----------------  -----------------  -----------------
       1       -0.000044399424    -0.000036208890     0.000016077151
       2       -0.000040695851     0.000019893880    -0.000005580498
       3       -0.000029874604    -0.000025121638    -0.000040278604
       4        0.000213688037    -0.000070982968     0.000033244181
       5        0.000026640154     0.000039036032     0.000001415845
       6        0.000024906119     0.000036199434     0.000018495737
       7       -0.000099842694    -0.000091655442    -0.000026508195
       8        0.000047323532    -0.000008285254     0.000001235599
       9        0.000040930855    -0.000012749337     0.000017886630
      10       -0.000130436787     0.000003125251    -0.000040114402
      11       -0.000015258713    -0.000041877418    -0.000009280838
      12       -0.000039792643     0.000000451853    -0.000039407361
      13       -0.000054099193    -0.000004417399     0.000017650454
      14        0.000100911214     0.000192591895     0.000055164298


			-----------------------------------------
			 OPTKING 2.0: for geometry optimizations 
			  - R.A. King,  Bethel University        
			-----------------------------------------

	Previous internal coordinate definitions found.
	---Fragment 1 Geometry and Gradient---
	 H          -3.3279447164        1.0317128274        1.1254956193
	 H          -2.7068378148        4.0965825197       -0.0255622916
	 H          -2.6018251714        1.4914571358       -2.1007568524
	 C          -2.1516316024        2.1118601465       -0.1834345509
	 H           1.7172646420        3.0457160690       -0.8844702865
	 H           1.0009789079        2.5924560833        2.2990194062
	 C           0.6593477979        1.8237915819        0.4081214084
	 H           3.3097667090       -0.9284218631       -1.0917800915
	 H           2.5929370694       -1.3818175739        2.0915764191
	 C           1.7483849677       -0.8943376702        0.2661522988
	 H           0.8612670581       -4.8090552122       -0.4907278441
	 H          -0.9316802920       -2.6764910190       -2.3187357595
	 H          -1.6583476619       -3.1355328098        0.9075056469
	 C          -0.1095952114       -2.9847587939       -0.4498176511
	            -0.0000443994       -0.0000362089        0.0000160772
	            -0.0000406959        0.0000198939       -0.0000055805
	            -0.0000298746       -0.0000251216       -0.0000402786
	             0.0002136880       -0.0000709830        0.0000332442
	             0.0000266402        0.0000390360        0.0000014158
	             0.0000249061        0.0000361994        0.0000184957
	            -0.0000998427       -0.0000916554       -0.0000265082
	             0.0000473235       -0.0000082853        0.0000012356
	             0.0000409309       -0.0000127493        0.0000178866
	            -0.0001304368        0.0000031253       -0.0000401144
	            -0.0000152587       -0.0000418774       -0.0000092808
	            -0.0000397926        0.0000004519       -0.0000394074
	            -0.0000540992       -0.0000044174        0.0000176505
	             0.0001009112        0.0001925919        0.0000551643

	---Fragment 1 Intrafragment Coordinates---
	 - Coordinate -           - BOHR/RAD -       - ANG/DEG -
	 R(1,4)           =         2.064880	       1.092687
	 R(2,4)           =         2.066954	       1.093785
	 R(3,4)           =         2.064873	       1.092684
	 R(4,7)           =         2.886958	       1.527712
	 R(5,7)           =         2.069561	       1.095164
	 R(6,7)           =         2.069554	       1.095161
	 R(7,10)          =         2.931618	       1.551345
	 R(8,10)          =         2.069554	       1.095161
	 R(9,10)          =         2.069560	       1.095164
	 R(10,14)         =         2.886964	       1.527716
	 R(11,14)         =         2.066955	       1.093786
	 R(12,14)         =         2.064875	       1.092685
	 R(13,14)         =         2.064871	       1.092683
	 B(1,4,2)         =         1.876385	     107.508957
	 B(1,4,3)         =         1.883078	     107.892446
	 B(1,4,7)         =         1.952602	     111.875836
	 B(2,4,3)         =         1.876391	     107.509260
	 B(2,4,7)         =         1.919526	     109.980718
	 B(3,4,7)         =         1.952574	     111.874256
	 B(4,7,5)         =         1.886866	     108.109432
	 B(4,7,6)         =         1.886923	     108.112702
	 B(4,7,10)        =         2.031185	     116.378346
	 B(5,7,6)         =         1.841054	     105.484620
	 B(5,7,10)        =         1.904232	     109.104460
	 B(6,7,10)        =         1.904233	     109.104523
	 B(7,10,8)        =         1.904251	     109.105545
	 B(7,10,9)        =         1.904214	     109.103450
	 B(7,10,14)       =         2.031182	     116.378170
	 B(8,10,9)        =         1.841061	     105.484997
	 B(8,10,14)       =         1.886933	     108.113313
	 B(9,10,14)       =         1.886852	     108.108665
	 B(10,14,11)      =         1.919520	     109.980420
	 B(10,14,12)      =         1.952596	     111.875506
	 B(10,14,13)      =         1.952566	     111.873808
	 B(11,14,12)      =         1.876384	     107.508894
	 B(11,14,13)      =         1.876397	     107.509653
	 B(12,14,13)      =         1.883092	     107.893250
	 D(1,4,7,5)       =        -3.076625	    -176.277608
	 D(1,4,7,6)       =        -1.091571	     -62.542439
	 D(1,4,7,10)      =         1.057518	      60.591336
	 D(2,4,7,5)       =        -0.992652	     -56.874742
	 D(2,4,7,6)       =         0.992402	      56.860427
	 D(2,4,7,10)      =         3.141491	     179.994202
	 D(3,4,7,5)       =         1.091311	      62.527487
	 D(3,4,7,6)       =         3.076364	     176.262657
	 D(3,4,7,10)      =        -1.057732	     -60.603569
	 D(4,7,10,8)      =         2.140170	     122.622729
	 D(4,7,10,9)      =        -2.139888	    -122.606547
	 D(4,7,10,14)     =         0.000072	       0.004145
	 D(5,7,10,8)      =         0.000176	       0.010069
	 D(5,7,10,9)      =         2.003303	     114.780793
	 D(5,7,10,14)     =        -2.139922	    -122.608516
	 D(6,7,10,8)      =        -2.002943	    -114.760201
	 D(6,7,10,9)      =         0.000184	       0.010523
	 D(6,7,10,14)     =         2.140144	     122.621215
	 D(7,10,14,11)    =        -3.141414	    -179.989746
	 D(7,10,14,12)    =         1.057807	      60.607878
	 D(7,10,14,13)    =        -1.057452	     -60.587510
	 D(8,10,14,11)    =         0.992652	      56.874758
	 D(8,10,14,12)    =        -1.091313	     -62.527617
	 D(8,10,14,13)    =         3.076614	     176.276994
	 D(9,10,14,11)    =        -0.992408	     -56.860772
	 D(9,10,14,12)    =        -3.076372	    -176.263148
	 D(9,10,14,13)    =         1.091554	      62.541464

	Current energy   :      -157.8348139420

	Energy change for the previous step:
		Projected    :        -0.0000028427
		Actual       :        -0.0000022875

	Performing BFGS update.
	Previous computed or guess Hessian on step 1.
	Steps to be used in Hessian update: 6 5
	Adding user-defined constraint: Fragment 1; Coordinate 49:
		Value =     0.000072; Fixed value    =     0.000020
		Force =    -0.000034; Force constant =     0.650000
	Removing off-diagonal coupling between coordinate 49 and others.
	Taking RFO optimization step.
	Going to follow RFO solution 1.
	Using RFO vector 1.
	Norm of target step-size    0.00219
	Projected energy change by RFO approximation:        -0.0000005486

	Back-transformation to cartesian coordinates...
	Successfully converged to displaced geometry.

	--- Internal Coordinate Step in ANG or DEG, aJ/ANG or AJ/DEG ---
	 ---------------------------------------------------------------------------
	   Coordinate                Previous        Force       Change         New 
	   ----------                --------       ------       ------       ------
	    1 R(1,4)          =      1.092687    -0.000448    -0.000070     1.092618
	    2 R(2,4)          =      1.093785    -0.000244    -0.000057     1.093729
	    3 R(3,4)          =      1.092684    -0.000424    -0.000064     1.092619
	    4 R(4,7)          =      1.527712     0.000890     0.000215     1.527927
	    5 R(5,7)          =      1.095164    -0.000295    -0.000037     1.095127
	    6 R(6,7)          =      1.095161    -0.000284    -0.000034     1.095127
	    7 R(7,10)         =      1.551345     0.001140     0.000074     1.551419
	    8 R(8,10)         =      1.095161    -0.000289    -0.000035     1.095126
	    9 R(9,10)         =      1.095164    -0.000292    -0.000037     1.095127
	   10 R(10,14)        =      1.527716     0.000881     0.000212     1.527927
	   11 R(11,14)        =      1.093786    -0.000247    -0.000057     1.093729
	   12 R(12,14)        =      1.092685    -0.000425    -0.000065     1.092620
	   13 R(13,14)        =      1.092683    -0.000433    -0.000066     1.092617
	   14 B(1,4,2)        =    107.508957     0.000002     0.012254   107.521211
	   15 B(1,4,3)        =    107.892446     0.000002     0.017512   107.909958
	   16 B(1,4,7)        =    111.875836    -0.000001    -0.007861   111.867975
	   17 B(2,4,3)        =    107.509260     0.000002     0.012510   107.521770
	   18 B(2,4,7)        =    109.980718    -0.000004    -0.025026   109.955691
	   19 B(3,4,7)        =    111.874256    -0.000001    -0.007180   111.867077
	   20 B(4,7,5)        =    108.109432    -0.000006    -0.011987   108.097445
	   21 B(4,7,6)        =    108.112702    -0.000006    -0.013820   108.098881
	   22 B(4,7,10)       =    116.378346     0.000019     0.035103   116.413449
	   23 B(5,7,6)        =    105.484620     0.000004     0.014380   105.499000
	   24 B(5,7,10)       =    109.104460    -0.000006    -0.013092   109.091368
	   25 B(6,7,10)       =    109.104523    -0.000006    -0.011942   109.092582
	   26 B(7,10,8)       =    109.105545    -0.000006    -0.013883   109.091662
	   27 B(7,10,9)       =    109.103450    -0.000006    -0.011212   109.092237
	   28 B(7,10,14)      =    116.378170     0.000019     0.035249   116.413419
	   29 B(8,10,9)       =    105.484997     0.000004     0.014106   105.499103
	   30 B(8,10,14)      =    108.113313    -0.000006    -0.014901   108.098412
	   31 B(9,10,14)      =    108.108665    -0.000006    -0.010758   108.097908
	   32 B(10,14,11)     =    109.980420    -0.000004    -0.024739   109.955681
	   33 B(10,14,12)     =    111.875506    -0.000001    -0.007901   111.867605
	   34 B(10,14,13)     =    111.873808    -0.000001    -0.006284   111.867524
	   35 B(11,14,12)     =    107.508894     0.000002     0.012680   107.521574
	   36 B(11,14,13)     =    107.509653     0.000002     0.011637   107.521290
	   37 B(12,14,13)     =    107.893250     0.000002     0.016753   107.910002
	   38 D(1,4,7,5)      =   -176.277608     0.000000     0.023139  -176.254469
	   39 D(1,4,7,6)      =    -62.542439    -0.000000     0.026968   -62.515470
	   40 D(1,4,7,10)     =     60.591336     0.000000     0.025078    60.616414
	   41 D(2,4,7,5)      =    -56.874742     0.000000     0.016806   -56.857936
	   42 D(2,4,7,6)      =     56.860427    -0.000000     0.020635    56.881062
	   43 D(2,4,7,10)     =    179.994202     0.000000     0.018745   180.012946
	   44 D(3,4,7,5)      =     62.527487    -0.000000     0.011232    62.538720
	   45 D(3,4,7,6)      =    176.262657    -0.000000     0.015062   176.277718
	   46 D(3,4,7,10)     =    -60.603569    -0.000000     0.013171   -60.590398
	   47 D(4,7,10,8)     =    122.622729     0.000000    -0.006862   122.615868
	   48 D(4,7,10,9)     =   -122.606547    -0.000000    -0.003675  -122.610222
	   49 D(4,7,10,14)    =      0.004145    -0.000000    -0.001425     0.002720
	   50 D(5,7,10,8)     =      0.010069    -0.000000    -0.005844     0.004225
	   51 D(5,7,10,9)     =    114.780793    -0.000000    -0.002658   114.778135
	   52 D(5,7,10,14)    =   -122.608516    -0.000000    -0.000407  -122.608923
	   53 D(6,7,10,8)     =   -114.760201     0.000000    -0.009390  -114.769590
	   54 D(6,7,10,9)     =      0.010523    -0.000000    -0.006204     0.004320
	   55 D(6,7,10,14)    =    122.621215     0.000000    -0.003953   122.617262
	   56 D(7,10,14,11)   =   -179.989746     0.000000    -0.021924  -180.011670
	   57 D(7,10,14,12)   =     60.607878     0.000000    -0.016291    60.591587
	   58 D(7,10,14,13)   =    -60.587510    -0.000000    -0.027826   -60.615336
	   59 D(8,10,14,11)   =     56.874758    -0.000000    -0.016693    56.858065
	   60 D(8,10,14,12)   =    -62.527617    -0.000000    -0.011060   -62.538678
	   61 D(8,10,14,13)   =    176.276994    -0.000000    -0.022595   176.254399
	   62 D(9,10,14,11)   =    -56.860772     0.000000    -0.020277   -56.881049
	   63 D(9,10,14,12)   =   -176.263148     0.000000    -0.014644  -176.277792
	   64 D(9,10,14,13)   =     62.541464    -0.000000    -0.026179    62.515285
	 ---------------------------------------------------------------------------
	 Forces used to impose fixed constraints are not included.
	  Forces zeroed: 49 

  ==> Convergence Check <==

  Measures of convergence in internal coordinates in au.
  Criteria marked as inactive (o), active & met (*), and active & unmet ( ).
  ---------------------------------------------------------------------------------------------
   Step     Total Energy     Delta E     MAX Force     RMS Force      MAX Disp      RMS Disp   
  ---------------------------------------------------------------------------------------------
    Convergence Criteria    1.00e-06 *    3.00e-04 *             o    1.20e-03 *             o
  ---------------------------------------------------------------------------------------------
      7    -157.83481394   -2.29e-06      2.53e-04 *    6.34e-05 o    6.15e-04 *    2.74e-04 o  ~
  ---------------------------------------------------------------------------------------------


  **** Optimization is complete! (in 7 steps) ****

  ==> Optimization Summary <==

  Measures of convergence in internal coordinates in au.
  --------------------------------------------------------------------------------------------------------------- ~
   Step         Total Energy             Delta E       MAX Force       RMS Force        MAX Disp        RMS Disp  ~
  --------------------------------------------------------------------------------------------------------------- ~
      1    -157.818455706549   -157.818455706549      0.07804461      0.01859071      0.05290555      0.01265262  ~
      2    -157.828619482127     -0.010163775577      0.02852166      0.00805931      0.02629713      0.01253699  ~
      3    -157.832733880794     -0.004114398667      0.01398641      0.00364288      0.02626108      0.01252233  ~
      4    -157.834241537278     -0.001507656484      0.00666176      0.00165896      0.03216312      0.01249808  ~
      5    -157.834771070622     -0.000529533344      0.00220693      0.00051278      0.01048572      0.00384727  ~
      6    -157.834811654430     -0.000040583807      0.00070047      0.00016496      0.00139711      0.00047801  ~
      7    -157.834813941966     -0.000002287536      0.00025296      0.00006343      0.00061521      0.00027394  ~
  --------------------------------------------------------------------------------------------------------------- ~

	Writing optimization data to binary file.
	Final energy is   -157.8348139419658
	Final (previous) structure:
	Cartesian Geometry (in Angstrom)
	    H    -1.7610724954   0.5459589141   0.5955866301
	    H    -1.4323968789   2.1678181025  -0.0135269821
	    H    -1.3768265814   0.7892451239  -1.1116726471
	    C    -1.1385944053   1.1175482573  -0.0970693836
	    H     0.9087373097   1.6117235276  -0.4680415173
	    H     0.5296952243   1.3718686736   1.2165886718
	    C     0.3489118272   0.9651089383   0.2159685477
	    H     1.7514531082  -0.4912996899  -0.5777451412
	    H     1.3721232005  -0.7312263666   1.1068145710
	    C     0.9252054768  -0.4732631119   0.1408417305
	    H     0.4557628977  -2.5448424131  -0.2596819907
	    H    -0.4930239762  -1.4163380462  -1.2270221166
	    H    -0.8775597866  -1.6592524997   0.4802313050
	    C    -0.0579952880  -1.5794663269  -0.2380332490
	Saving final (previous) structure.
			--------------------------
			 OPTKING Finished Execution 
			--------------------------

    Final optimized geometry and variables:
    Molecular point group: c1
    Full point group: C1

    Geometry (in Angstrom), charge = 0, multiplicity = 1:

    H           -1.761072495381     0.545958914093     0.595586630098
    H           -1.432396878925     2.167818102544    -0.013526982106
    H           -1.376826581439     0.789245123852    -1.111672647103
    C           -1.138594405251     1.117548257254    -0.097069383595
    H            0.908737309687     1.611723527558    -0.468041517294
    H            0.529695224330     1.371868673565     1.216588671850
    C            0.348911827178     0.965108938346     0.215968547655
    H            1.751453108158    -0.491299689895    -0.577745141188
    H            1.372123200454    -0.731226366553     1.106814571029
    C            0.925205476755    -0.473263111857     0.140841730534
    H            0.455762897672    -2.544842413135    -0.259681990729
    H           -0.493023976217    -1.416338046249    -1.227022116650
    H           -0.877559786608    -1.659252499731     0.480231304987
    C           -0.057995288032    -1.579466326871    -0.238033249009

	Cleaning optimization helper files.

*** Psi4 exiting successfully. Buy a developer a beer!
