    -----------------------------------------------------------------------
          Psi4: An Open-Source Ab Initio Electronic Structure Package
                              Psi4 1.0.0 Driver

                          Git: Rev {master} 6a9a71b 

    J. M. Turney, A. C. Simmonett, R. M. Parrish, E. G. Hohenstein,
    F. A. Evangelista, J. T. Fermann, B. J. Mintz, L. A. Burns, J. J. Wilke,
    M. L. Abrams, N. J. Russ, M. L. Leininger, C. L. Janssen, E. T. Seidl,
    W. D. Allen, H. F. Schaefer, R. A. King, E. F. Valeev, C. D. Sherrill,
    and T. D. Crawford, WIREs Comput. Mol. Sci. 2, 556-565 (2012)
    (doi: 10.1002/wcms.93)

                         Additional Contributions by
    A. E. DePrince, U. Bozkaya, A. Yu. Sokolov, D. G. A. Smith, R. Di Remigio,
    R. M. Richard, J. F. Gonthier, H. R. McAlexander, M. Saitow, and
    B. P. Pritchard
    -----------------------------------------------------------------------


    Psi4 started on: Tue Feb 21 17:58:41 2017

    Process ID:  34334
    PSI4DATADIR: /Users/sternc1/anaconda/share/psi4
    Memory level set to 256.000 MB

  ==> Input File <==

--------------------------------------------------------------------------

memory 1000 mb

molecule butane {
  symmetry C1
  0 1 
  H      1.604   0.760   -8.260
  H      1.745   2.388   -8.880
  H      2.043   1.024   -9.930
  C      2.142   1.395   -8.932
  H      4.169   2.051   -9.210
  H      3.731   1.788   -7.539
  C      3.631   1.416   -8.537
  H      3.929   -0.552   -7.731
  H      3.808   -0.510   -9.472
  C      4.203   -0.012   -8.612
  H      6.134   -0.938   -8.769
  H      6.133   0.552   -7.857
  H      6.013   0.594   -9.599
  C      5.737   0.054   -8.717
  units Angstrom
}

dih_string = "4 7 10 14 160"
set optking fixed_dihedral = $dih_string

optimize('B3LYP/cc-PVDZ')
--------------------------------------------------------------------------

  Memory set to 1000.000 MiB by Python script.
gradient() will perform analytic gradient computation.

*** tstart() called on lski1497
*** at Tue Feb 21 17:58:43 2017


         ---------------------------------------------------------
                                   SCF
            by Justin Turney, Rob Parrish, and Andy Simmonett
                              RKS Reference
                        1 Threads,   1000 MiB Core
         ---------------------------------------------------------

  ==> Geometry <==

    Molecular point group: c1
    Full point group: C1

    Geometry (in Angstrom), charge = 0, multiplicity = 1:

       Center              X                  Y                   Z               Mass       
    ------------   -----------------  -----------------  -----------------  -----------------
           H         -2.324709851376     0.046324854388     0.443872926296     1.007825032070
           H         -2.183709851376     1.674324854388    -0.176127073704     1.007825032070
           H         -1.885709851376     0.310324854388    -1.226127073704     1.007825032070
           C         -1.786709851376     0.681324854388    -0.228127073704    12.000000000000
           H          0.240290148624     1.337324854388    -0.506127073704     1.007825032070
           H         -0.197709851376     1.074324854388     1.164872926296     1.007825032070
           C         -0.297709851376     0.702324854388     0.166872926296    12.000000000000
           H          0.000290148624    -1.265675145612     0.972872926296     1.007825032070
           H         -0.120709851376    -1.223675145612    -0.768127073704     1.007825032070
           C          0.274290148624    -0.725675145612     0.091872926296    12.000000000000
           H          2.205290148624    -1.651675145612    -0.065127073704     1.007825032070
           H          2.204290148624    -0.161675145612     0.846872926296     1.007825032070
           H          2.084290148624    -0.119675145612    -0.895127073704     1.007825032070
           C          1.808290148624    -0.659675145612    -0.013127073704    12.000000000000

  Running in c1 symmetry.

  Rotational constants: A =      0.74159  B =      0.12545  C =      0.11800 [cm^-1]
  Rotational constants: A =  22232.31494  B =   3760.75927  C =   3537.48422 [MHz]
  Nuclear repulsion =  131.918953698964117

  Charge       = 0
  Multiplicity = 1
  Electrons    = 34
  Nalpha       = 17
  Nbeta        = 17

  ==> Algorithm <==

  SCF Algorithm Type is DF.
  DIIS enabled.
  MOM disabled.
  Fractional occupation disabled.
  Guess Type is SAD.
  Energy threshold   = 1.00e-08
  Density threshold  = 1.00e-08
  Integral threshold = 0.00e+00

  ==> Primary Basis <==

  Basis Set: CC-PVDZ
    Number of shells: 54
    Number of basis function: 106
    Number of Cartesian functions: 110
    Spherical Harmonics?: true
    Max angular momentum: 2

  ==> DFT Potential <==

   => B3LYP Composite Functional <= 

    B3LYP Hybrid-GGA Exchange-Correlation Functional (VWN1-RPA)

    P.J. Stephens et. al., J. Phys. Chem., 98, 11623-11627, 1994

    Points   =           5000
    Deriv    =              1
    GGA      =           TRUE
    Meta     =          FALSE

    X_LRC        =          FALSE
    X_Hybrid     =           TRUE
    X_Alpha      =   2.000000E-01
    X_Omega      =   0.000000E+00
    C_LRC        =          FALSE
    C_Hybrid     =          FALSE
    C_Alpha      =   0.000000E+00
    C_Omega      =   0.000000E+00

   => Exchange Functionals <=

    0.8000    B3_X
    0.2000      HF 

   => Correlation Functionals <=

    0.1900 VWN3RPA_C
    0.8100   LYP_C

   => Molecular Quadrature <=

    Radial Scheme    =       TREUTLER
    Pruning Scheme   =           FLAT
    Nuclear Scheme   =       TREUTLER

    BS radius alpha  =              1
    Pruning alpha    =              1
    Radial Points    =             75
    Spherical Points =            302
    Total Points     =         312740
    Total Blocks     =            273
    Max Points       =           4994
    Max Functions    =            106

  ==> Pre-Iterations <==

   -------------------------------------------------------
    Irrep   Nso     Nmo     Nalpha   Nbeta   Ndocc  Nsocc
   -------------------------------------------------------
     A        106     106       0       0       0       0
   -------------------------------------------------------
    Total     106     106      17      17      17       0
   -------------------------------------------------------

  ==> Integral Setup <==

  ==> DFJK: Density-Fitted J/K Matrices <==

    J tasked:                  Yes
    K tasked:                  Yes
    wK tasked:                  No
    OpenMP threads:              1
    Integrals threads:           1
    Memory (MB):               715
    Algorithm:                Core
    Integral Cache:           NONE
    Schwarz Cutoff:          1E-12
    Fitting Condition:       1E-12

   => Auxiliary Basis Set <=

  Basis Set: 
    Number of shells: 186
    Number of basis function: 510
    Number of Cartesian functions: 574
    Spherical Harmonics?: true
    Max angular momentum: 3

  Minimum eigenvalue in the overlap matrix is 3.8739860878E-03.
  Using Symmetric Orthogonalization.
  SCF Guess: Superposition of Atomic Densities via on-the-fly atomic UHF.

  ==> Iterations <==

                           Total Energy        Delta E     RMS |[F,P]|

   @DF-RKS iter   0:  -159.06739794538123   -1.59067e+02   3.41195e-02 
   @DF-RKS iter   1:  -158.31594164487601    7.51456e-01   4.49703e-03 
   @DF-RKS iter   2:  -158.28223519702232    3.37064e-02   5.16186e-03 DIIS
   @DF-RKS iter   3:  -158.44715505369422   -1.64920e-01   3.52596e-04 DIIS
   @DF-RKS iter   4:  -158.44781580329229   -6.60750e-04   1.27396e-04 DIIS
   @DF-RKS iter   5:  -158.44789802381325   -8.22205e-05   4.30245e-05 DIIS
   @DF-RKS iter   6:  -158.44790827934892   -1.02555e-05   3.64062e-06 DIIS
   @DF-RKS iter   7:  -158.44790835670014   -7.73512e-08   7.28740e-07 DIIS
   @DF-RKS iter   8:  -158.44790836008337   -3.38324e-09   1.27283e-07 DIIS
   @DF-RKS iter   9:  -158.44790836018433   -1.00954e-10   3.53007e-08 DIIS
   @DF-RKS iter  10:  -158.44790836019214   -7.81597e-12   9.76933e-09 DIIS

  ==> Post-Iterations <==

    Orbital Energies (a.u.)
    -----------------------

    Doubly Occupied:                                                      

       1A    -10.169891     2A    -10.169614     3A    -10.163929  
       4A    -10.163836     5A     -0.794454     6A     -0.723698  
       7A     -0.629887     8A     -0.579982     9A     -0.473232  
      10A     -0.426235    11A     -0.421487    12A     -0.407228  
      13A     -0.366869    14A     -0.356447    15A     -0.330539  
      16A     -0.330320    17A     -0.309690  

    Virtual:                                                              

      18A      0.063955    19A      0.086908    20A      0.102435  
      21A      0.108520    22A      0.142882    23A      0.150496  
      24A      0.154877    25A      0.163947    26A      0.170232  
      27A      0.170865    28A      0.228885    29A      0.239858  
      30A      0.241880    31A      0.405820    32A      0.413790  
      33A      0.423065    34A      0.433793    35A      0.455140  
      36A      0.499459    37A      0.509323    38A      0.586216  
      39A      0.607220    40A      0.647861    41A      0.665775  
      42A      0.666557    43A      0.671154    44A      0.680473  
      45A      0.681802    46A      0.686203    47A      0.694742  
      48A      0.705693    49A      0.717200    50A      0.737147  
      51A      0.754261    52A      0.754392    53A      0.885994  
      54A      0.902214    55A      0.972804    56A      1.102040  
      57A      1.182826    58A      1.209411    59A      1.235822  
      60A      1.277506    61A      1.298382    62A      1.339520  
      63A      1.436295    64A      1.439781    65A      1.487635  
      66A      1.491220    67A      1.561890    68A      1.610264  
      69A      1.611485    70A      1.633476    71A      1.648732  
      72A      1.668898    73A      1.678042    74A      1.687967  
      75A      1.703758    76A      1.727642    77A      1.730158  
      78A      1.736305    79A      1.757146    80A      1.763729  
      81A      1.789487    82A      1.792409    83A      1.896871  
      84A      1.950422    85A      1.967524    86A      1.983252  
      87A      2.000141    88A      2.081852    89A      2.092862  
      90A      2.203208    91A      2.239046    92A      2.249314  
      93A      2.279151    94A      2.336715    95A      2.348532  
      96A      2.366308    97A      2.500534    98A      2.503730  
      99A      2.508822   100A      2.513055   101A      2.555658  
     102A      2.583546   103A      2.620732   104A      2.657867  
     105A      2.737712   106A      2.752210  

    Final Occupation by Irrep:
              A 
    DOCC [    17 ]

  Energy converged.

  @DF-RKS Final Energy:  -158.44790836019214

   => Energetics <=

    Nuclear Repulsion Energy =            131.9189536989641169
    One-Electron Energy =                -472.2338908398863850
    Two-Electron Energy =                 202.5468868846923840
    DFT Exchange-Correlation Energy =     -20.6798581039622604
    Empirical Dispersion Energy =           0.0000000000000000
    PCM Polarization Energy =               0.0000000000000000
    EFP Energy =                            0.0000000000000000
    Total Energy =                       -158.4479083601921445


  Saving occupied orbitals to File 180.

*** tstop() called on lski1497 at Tue Feb 21 18:00:49 2017
Module time:
	user time   =     110.43 seconds =       1.84 minutes
	system time =       1.38 seconds =       0.02 minutes
	total time  =        126 seconds =       2.10 minutes
Total time:
	user time   =     110.43 seconds =       1.84 minutes
	system time =       1.38 seconds =       0.02 minutes
	total time  =        126 seconds =       2.10 minutes


Properties will be evaluated at   0.000000,   0.000000,   0.000000 Bohr

Properties computed using the SCF density matrix

  Nuclear Dipole Moment: (a.u.)
     X:     0.0205      Y:     0.0190      Z:    -0.1952

  Electronic Dipole Moment: (a.u.)
     X:    -0.0218      Y:    -0.0211      Z:     0.2098

  Dipole Moment: (a.u.)
     X:    -0.0013      Y:    -0.0021      Z:     0.0145     Total:     0.0147

  Dipole Moment: (Debye)
     X:    -0.0033      Y:    -0.0053      Z:     0.0369     Total:     0.0374


*** tstart() called on lski1497
*** at Tue Feb 21 18:00:49 2017


         ------------------------------------------------------------
                                   SCF GRAD                          
                          Rob Parrish, Justin Turney,                
                       Andy Simmonett, and Alex Sokolov              
         ------------------------------------------------------------

  ==> Geometry <==

    Molecular point group: c1
    Full point group: C1

    Geometry (in Angstrom), charge = 0, multiplicity = 1:

       Center              X                  Y                   Z               Mass       
    ------------   -----------------  -----------------  -----------------  -----------------
           H         -2.324709851376     0.046324854388     0.443872926296     1.007825032070
           H         -2.183709851376     1.674324854388    -0.176127073704     1.007825032070
           H         -1.885709851376     0.310324854388    -1.226127073704     1.007825032070
           C         -1.786709851376     0.681324854388    -0.228127073704    12.000000000000
           H          0.240290148624     1.337324854388    -0.506127073704     1.007825032070
           H         -0.197709851376     1.074324854388     1.164872926296     1.007825032070
           C         -0.297709851376     0.702324854388     0.166872926296    12.000000000000
           H          0.000290148624    -1.265675145612     0.972872926296     1.007825032070
           H         -0.120709851376    -1.223675145612    -0.768127073704     1.007825032070
           C          0.274290148624    -0.725675145612     0.091872926296    12.000000000000
           H          2.205290148624    -1.651675145612    -0.065127073704     1.007825032070
           H          2.204290148624    -0.161675145612     0.846872926296     1.007825032070
           H          2.084290148624    -0.119675145612    -0.895127073704     1.007825032070
           C          1.808290148624    -0.659675145612    -0.013127073704    12.000000000000

  Nuclear repulsion =  131.918953698964117

  ==> Basis Set <==

  Basis Set: CC-PVDZ
    Number of shells: 54
    Number of basis function: 106
    Number of Cartesian functions: 110
    Spherical Harmonics?: true
    Max angular momentum: 2

  ==> DFJKGrad: Density-Fitted SCF Gradients <==

    Gradient:                    1
    J tasked:                  Yes
    K tasked:                  Yes
    wK tasked:                  No
    OpenMP threads:              1
    Integrals threads:           1
    Memory (MB):               715
    Schwarz Cutoff:          0E+00
    Fitting Condition:       1E-12

   => Auxiliary Basis Set <=

  Basis Set: 
    Number of shells: 186
    Number of basis function: 510
    Number of Cartesian functions: 574
    Spherical Harmonics?: true
    Max angular momentum: 3

  ==> DFT Potential <==

   => B3LYP Composite Functional <= 

    B3LYP Hybrid-GGA Exchange-Correlation Functional (VWN1-RPA)

    P.J. Stephens et. al., J. Phys. Chem., 98, 11623-11627, 1994

    Points   =           5000
    Deriv    =              1
    GGA      =           TRUE
    Meta     =          FALSE

    X_LRC        =          FALSE
    X_Hybrid     =           TRUE
    X_Alpha      =   2.000000E-01
    X_Omega      =   0.000000E+00
    C_LRC        =          FALSE
    C_Hybrid     =          FALSE
    C_Alpha      =   0.000000E+00
    C_Omega      =   0.000000E+00

   => Exchange Functionals <=

    0.8000    B3_X
    0.2000      HF 

   => Correlation Functionals <=

    0.1900 VWN3RPA_C
    0.8100   LYP_C

   => Molecular Quadrature <=

    Radial Scheme    =       TREUTLER
    Pruning Scheme   =           FLAT
    Nuclear Scheme   =       TREUTLER

    BS radius alpha  =              1
    Pruning alpha    =              1
    Radial Points    =             75
    Spherical Points =            302
    Total Points     =         312740
    Total Blocks     =            273
    Max Points       =           4994
    Max Functions    =            106


  -Total Gradient:
     Atom            X                  Y                   Z
    ------   -----------------  -----------------  -----------------
       1        0.014444467665     0.013028296708    -0.012487951463
       2        0.012838685245    -0.018817771053     0.000051725599
       3        0.005188877555     0.007602283536     0.021135575712
       4       -0.028906375772    -0.008748483799    -0.010691940054
       5       -0.012005839489    -0.015041043779     0.012643717527
       6       -0.004906380530    -0.011015330718    -0.020421276029
       7        0.026217012008     0.033140990425     0.011039334230
       8        0.008588342710     0.014633972009    -0.017401792896
       9        0.009519666348     0.012623666034     0.017676387037
      10       -0.026932426680    -0.034684905476    -0.000287014325
      11       -0.013233594347     0.019391656102     0.001033320668
      12       -0.011620062698    -0.010335827671    -0.017043481655
      13       -0.008570599704    -0.010721604609     0.017562931655
      14        0.029377224283     0.008943135024    -0.002797969072


*** tstop() called on lski1497 at Tue Feb 21 18:01:33 2017
Module time:
	user time   =      33.71 seconds =       0.56 minutes
	system time =       0.51 seconds =       0.01 minutes
	total time  =         44 seconds =       0.73 minutes
Total time:
	user time   =     144.17 seconds =       2.40 minutes
	system time =       1.89 seconds =       0.03 minutes
	total time  =        170 seconds =       2.83 minutes

			-----------------------------------------
			 OPTKING 2.0: for geometry optimizations 
			  - R.A. King,  Bethel University        
			-----------------------------------------

	Internal coordinates to be generated automatically.
	Detected frag 1 with atoms:  1 2 3 4 5 6 7 8 9 10 11 12 13 14
	---Fragment 1 Bond Connectivity---
	 1 : 4
	 2 : 4
	 3 : 4
	 4 : 1 2 3 7
	 5 : 7
	 6 : 7
	 7 : 4 5 6 10
	 8 : 10
	 9 : 10
	 10 : 7 8 9 14
	 11 : 14
	 12 : 14
	 13 : 14
	 14 : 10 11 12 13

	Assuming in current code that numbering for constraints corresponds to unified fragment.
	Fixed dihedral atom list: 
	     4     7    10    14
	---Fragment 1 Geometry and Gradient---
	 H          -4.3930649575        0.0875412879        0.8387982685
	 H          -4.1266135728        3.1640154323       -0.3328319339
	 H          -3.5634751852        0.5864289870       -2.3170443734
	 C          -3.3763922980        1.2875173823       -0.4310976928
	 H           0.4540825733        2.5271777255       -0.9564415577
	 H          -0.3736174729        2.0301797525        2.2012908103
	 C          -0.5625900862        1.3272016311        0.3153441297
	 H           0.0005483014       -2.3917793984        1.8384633928
	 H          -0.2281085606       -2.3124109008       -1.4515498046
	 C           0.5183332618       -1.3713272866        0.1736146697
	 H           4.1673944244       -3.1212136857       -0.1230723331
	 H           4.1655046983       -0.3055217477        1.6003579001
	 H           3.9387375624       -0.2261532501       -1.6915450234
	 C           3.4171731497       -1.2466053619       -0.0248065742
	             0.0144444677        0.0130282967       -0.0124879515
	             0.0128386852       -0.0188177711        0.0000517256
	             0.0051888776        0.0076022835        0.0211355757
	            -0.0289063758       -0.0087484838       -0.0106919401
	            -0.0120058395       -0.0150410438        0.0126437175
	            -0.0049063805       -0.0110153307       -0.0204212760
	             0.0262170120        0.0331409904        0.0110393342
	             0.0085883427        0.0146339720       -0.0174017929
	             0.0095196663        0.0126236660        0.0176763870
	            -0.0269324267       -0.0346849055       -0.0002870143
	            -0.0132335943        0.0193916561        0.0010333207
	            -0.0116200627       -0.0103358277       -0.0170434817
	            -0.0085705997       -0.0107216046        0.0175629317
	             0.0293772243        0.0089431350       -0.0027979691

	Previous optimization step data not found.  Starting new optimization.

	---Fragment 1 Intrafragment Coordinates---
	 - Coordinate -           - BOHR/RAD -       - ANG/DEG -
	 R(1,4)           =         2.021436	       1.069698
	 R(2,4)           =         2.023298	       1.070683
	 R(3,4)           =         2.020723	       1.069320
	 R(4,7)           =         2.911397	       1.540645
	 R(5,7)           =         2.022623	       1.070326
	 R(6,7)           =         2.021555	       1.069761
	 R(7,10)          =         2.910419	       1.540128
	 R(8,10)          =         2.020184	       1.069036
	 R(9,10)          =         2.020884	       1.069406
	 R(10,14)         =         2.908298	       1.539005
	 R(11,14)         =         2.021545	       1.069756
	 R(12,14)         =         2.021583	       1.069776
	 R(13,14)         =         2.022713	       1.070374
	 B(1,4,2)         =         1.910870	     109.484805
	 B(1,4,3)         =         1.911121	     109.499161
	 B(1,4,7)         =         1.910399	     109.457783
	 B(2,4,3)         =         1.910042	     109.437340
	 B(2,4,7)         =         1.910564	     109.467262
	 B(3,4,7)         =         1.910803	     109.480971
	 B(4,7,5)         =         1.909937	     109.431343
	 B(4,7,6)         =         1.911630	     109.528316
	 B(4,7,10)        =         1.911154	     109.501062
	 B(5,7,6)         =         1.910605	     109.469614
	 B(5,7,10)        =         1.910047	     109.437654
	 B(6,7,10)        =         1.910425	     109.459295
	 B(7,10,8)        =         1.910311	     109.452765
	 B(7,10,9)        =         1.911082	     109.496934
	 B(7,10,14)       =         1.911075	     109.496525
	 B(8,10,9)        =         1.910107	     109.441049
	 B(8,10,14)       =         1.910662	     109.472843
	 B(9,10,14)       =         1.910563	     109.467193
	 B(10,14,11)      =         1.910762	     109.478586
	 B(10,14,12)      =         1.911429	     109.516821
	 B(10,14,13)      =         1.912263	     109.564597
	 B(11,14,12)      =         1.910687	     109.474292
	 B(11,14,13)      =         1.909304	     109.395055
	 B(12,14,13)      =         1.909353	     109.397859
	 D(1,4,7,5)       =         3.140997	     179.965873
	 D(1,4,7,6)       =        -1.047644	     -60.025575
	 D(1,4,7,10)      =         1.047427	      60.013132
	 D(2,4,7,5)       =        -1.047689	     -60.028143
	 D(2,4,7,6)       =         1.046856	      59.980409
	 D(2,4,7,10)      =        -3.141259	    -179.980883
	 D(3,4,7,5)       =         1.046044	      59.933911
	 D(3,4,7,6)       =         3.140588	     179.942463
	 D(3,4,7,10)      =        -1.047526	     -60.018830
	 D(4,7,10,8)      =        -1.396104	     -79.990844
	 D(4,7,10,9)      =         0.697724	      39.976642
	 D(4,7,10,14)     =         2.792579	     160.002980
	 D(5,7,10,8)      =         2.793579	     160.060280
	 D(5,7,10,9)      =        -1.395779	     -79.972233
	 D(5,7,10,14)     =         0.699076	      40.054104
	 D(6,7,10,8)      =         0.699704	      40.090082
	 D(6,7,10,9)      =         2.793532	     160.057568
	 D(6,7,10,14)     =        -1.394799	     -79.916094
	 D(7,10,14,11)    =         3.141517	     179.995688
	 D(7,10,14,12)    =         1.046490	      59.959458
	 D(7,10,14,13)    =        -1.047824	     -60.035895
	 D(8,10,14,11)    =         1.047229	      60.001801
	 D(8,10,14,12)    =        -1.047798	     -60.034428
	 D(8,10,14,13)    =         3.141073	     179.970219
	 D(9,10,14,11)    =        -1.046496	     -59.959777
	 D(9,10,14,12)    =        -3.141523	    -179.996007
	 D(9,10,14,13)    =         1.047348	      60.008640

	Current energy   :      -158.4479083602

	Generating empirical Hessian (Schlegel '84) for each fragment.
	Adding user-defined constraint: Fragment 1; Coordinate 49:
		Value =     2.792579; Fixed value    =     2.792527
		Force =    -0.000026; Force constant =     0.500000
	Removing off-diagonal coupling between coordinate 49 and others.
	Taking RFO optimization step.
	Going to follow RFO solution 1.
	Using RFO vector 1.

	Determining step-restricting scale parameter for RS-RFO.
	Maximum step size allowed    0.10000

	 Iter      |step|        alpha        rfo_root  
	------------------------------------------------
	    0     0.25793       1.00000           1
	    1     0.19168       6.00415           1
	    2     0.14227      19.34985           1
	    3     0.11392      38.78624           1
	    4     0.10232      52.61929           1
	    5     0.10008      55.92739           1
	    6     0.10000      56.05605           1
	------------------------------------------------
	Norm of target step-size    0.10000
	Projected energy change by RFO approximation:        -0.0073733381

	Back-transformation to cartesian coordinates...
	Could not converge backtransformation.
	Using first guess instead.

	--- Internal Coordinate Step in ANG or DEG, aJ/ANG or AJ/DEG ---
	 ---------------------------------------------------------------------------
	   Coordinate                Previous        Force       Change         New 
	   ----------                --------       ------       ------       ------
	    1 R(1,4)          =      1.069698     0.188208     0.015101     1.084799
	    2 R(2,4)          =      1.070683     0.182986     0.014686     1.085369
	    3 R(3,4)          =      1.069320     0.188198     0.015107     1.084427
	    4 R(4,7)          =      1.540645     0.023397     0.002140     1.542785
	    5 R(5,7)          =      1.070326     0.188731     0.015134     1.085460
	    6 R(6,7)          =      1.069761     0.192302     0.015401     1.085161
	    7 R(7,10)         =      1.540128     0.037739     0.003504     1.543632
	    8 R(8,10)         =      1.069036     0.197194     0.015774     1.084810
	    9 R(9,10)         =      1.069406     0.194511     0.015574     1.084980
	   10 R(10,14)        =      1.539005     0.029957     0.002725     1.541731
	   11 R(11,14)        =      1.069756     0.189026     0.015148     1.084903
	   12 R(12,14)        =      1.069776     0.187965     0.015083     1.084858
	   13 R(13,14)        =      1.070374     0.181995     0.014633     1.085007
	   14 B(1,4,2)        =    109.484805    -0.000334    -0.418830   109.065975
	   15 B(1,4,3)        =    109.499161    -0.000257    -0.336408   109.162753
	   16 B(1,4,7)        =    109.457783     0.000247     0.306823   109.764606
	   17 B(2,4,3)        =    109.437340    -0.000307    -0.384356   109.052984
	   18 B(2,4,7)        =    109.467262     0.000457     0.584913   110.052176
	   19 B(3,4,7)        =    109.480971     0.000194     0.240138   109.721109
	   20 B(4,7,5)        =    109.431343    -0.000204    -0.227148   109.204195
	   21 B(4,7,6)        =    109.528316    -0.000233    -0.245597   109.282720
	   22 B(4,7,10)       =    109.501062     0.000888     1.056350   110.557413
	   23 B(5,7,6)        =    109.469614     0.000007    -0.079448   109.390166
	   24 B(5,7,10)       =    109.437654    -0.000232    -0.257957   109.179697
	   25 B(6,7,10)       =    109.459295    -0.000227    -0.250161   109.209134
	   26 B(7,10,8)       =    109.452765    -0.000229    -0.253578   109.199187
	   27 B(7,10,9)       =    109.496934    -0.000239    -0.268176   109.228758
	   28 B(7,10,14)      =    109.496525     0.000894     1.063344   110.559869
	   29 B(8,10,9)       =    109.441049     0.000010    -0.076116   109.364933
	   30 B(8,10,14)      =    109.472843    -0.000230    -0.240173   109.232670
	   31 B(9,10,14)      =    109.467193    -0.000206    -0.229651   109.237542
	   32 B(10,14,11)     =    109.478586     0.000461     0.589240   110.067826
	   33 B(10,14,12)     =    109.516821     0.000238     0.296102   109.812923
	   34 B(10,14,13)     =    109.564597     0.000182     0.225607   109.790204
	   35 B(11,14,12)     =    109.474292    -0.000333    -0.417133   109.057159
	   36 B(11,14,13)     =    109.395055    -0.000303    -0.380091   109.014964
	   37 B(12,14,13)     =    109.397859    -0.000247    -0.323385   109.074473
	   38 D(1,4,7,5)      =    179.965873     0.000023     0.139044   180.104917
	   39 D(1,4,7,6)      =    -60.025575    -0.000036    -0.244641   -60.270216
	   40 D(1,4,7,10)     =     60.013132    -0.000008    -0.052583    59.960549
	   41 D(2,4,7,5)      =    -60.028143     0.000028     0.176589   -59.851554
	   42 D(2,4,7,6)      =     59.980409    -0.000031    -0.207096    59.773313
	   43 D(2,4,7,10)     =   -179.980883    -0.000003    -0.015038  -179.995921
	   44 D(3,4,7,5)      =     59.933911     0.000033     0.214669    60.148579
	   45 D(3,4,7,6)      =    179.942463    -0.000026    -0.169017   179.773446
	   46 D(3,4,7,10)     =    -60.018830     0.000003     0.023041   -59.995788
	   47 D(4,7,10,8)     =    -79.990844     0.000045     0.286334   -79.704510
	   48 D(4,7,10,9)     =     39.976642    -0.000018    -0.122310    39.854333
	   49 D(4,7,10,14)    =    160.002980     0.000016     0.084361   160.087341
	   50 D(5,7,10,8)     =    160.060280     0.000010     0.076163   160.136443
	   51 D(5,7,10,9)     =    -79.972233    -0.000053    -0.332481   -80.304715
	   52 D(5,7,10,14)    =     40.054104    -0.000019    -0.125810    39.928294
	   53 D(6,7,10,8)     =     40.090082     0.000072     0.480223    40.570304
	   54 D(6,7,10,9)     =    160.057568     0.000009     0.071579   160.129147
	   55 D(6,7,10,14)    =    -79.916094     0.000044     0.278250   -79.637845
	   56 D(7,10,14,11)   =    179.995688    -0.000002    -0.011884   179.983803
	   57 D(7,10,14,12)   =     59.959458    -0.000007    -0.048551    59.910907
	   58 D(7,10,14,13)   =    -60.035895     0.000003     0.026139   -60.009756
	   59 D(8,10,14,11)   =     60.001801    -0.000031    -0.206093    59.795708
	   60 D(8,10,14,12)   =    -60.034428    -0.000036    -0.242760   -60.277188
	   61 D(8,10,14,13)   =    179.970219    -0.000026    -0.168070   179.802149
	   62 D(9,10,14,11)   =    -59.959777     0.000027     0.171330   -59.788447
	   63 D(9,10,14,12)   =   -179.996007     0.000022     0.134663  -179.861343
	   64 D(9,10,14,13)   =     60.008640     0.000033     0.209354    60.217994
	 ---------------------------------------------------------------------------
	 Forces used to impose fixed constraints are not included.
	  Forces zeroed: 49 

  ==> Convergence Check <==

  Measures of convergence in internal coordinates in au.
  Criteria marked as inactive (o), active & met (*), and active & unmet ( ).
  --------------------------------------------------------------------------------------------- ~
   Step     Total Energy     Delta E     MAX Force     RMS Force      MAX Disp      RMS Disp    ~
  --------------------------------------------------------------------------------------------- ~
    Convergence Criteria    1.00e-06 *    3.00e-04 *             o    1.20e-03 *             o  ~
  --------------------------------------------------------------------------------------------- ~
      1    -158.44790836   -1.58e+02      2.39e-02      9.63e-03 o    2.98e-02      1.25e-02 o  ~
  ---------------------------------------------------------------------------------------------

	Writing optimization data to binary file.
	Structure for next step:
	Cartesian Geometry (in Angstrom)
	    H    -2.3513779309   0.0468165491   0.4499563892
	    H    -2.2056214967   1.6943108598  -0.1733786699
	    H    -1.9085466574   0.3171544744  -1.2399821187
	    C    -1.7990319390   0.6894245866  -0.2273596021
	    H     0.2364608346   1.3473531895  -0.5171850575
	    H    -0.2052139281   1.0779863147   1.1770068563
	    C    -0.3069173169   0.7007458220   0.1646229766
	    H     0.0050646450  -1.2714427553   0.9856659607
	    H    -0.1152244065  -1.2315083392  -0.7802545871
	    C     0.2834981729  -0.7236448165   0.0916835416
	    H     2.2271305757  -1.6725669531  -0.0621169716
	    H     2.2296762790  -0.1636588743   0.8575073107
	    H     2.1094127419  -0.1245067417  -0.9053007734
	    C     1.8207525072  -0.6679153545  -0.0116442865
			--------------------------
			 OPTKING Finished Execution 
			--------------------------

    Structure for next step:
    Molecular point group: c1
    Full point group: C1

    Geometry (in Angstrom), charge = 0, multiplicity = 1:

    H           -2.351404584982     0.046757721739     0.449992174571
    H           -2.205648150789     1.694252032462    -0.173342884545
    H           -1.908573311532     0.317095647082    -1.239946333371
    C           -1.799058593170     0.689365759242    -0.227323816729
    H            0.236434180464     1.347294362139    -0.517149272104
    H           -0.205240582261     1.077927487368     1.177042641652
    C           -0.306943971023     0.700686994670     0.164658762025
    H            0.005037990858    -1.271501582672     0.985701746068
    H           -0.115251060630    -1.231567166483    -0.780218801700
    C            0.283471518775    -0.723703643850     0.091719326958
    H            2.227103921548    -1.672625780425    -0.062081186242
    H            2.229649624908    -0.163717701606     0.857543096061
    H            2.109386087748    -0.124565569067    -0.905264988063
    C            1.820725853129    -0.667974181779    -0.011608501159

gradient() will perform analytic gradient computation.

*** tstart() called on lski1497
*** at Tue Feb 21 18:01:33 2017


         ---------------------------------------------------------
                                   SCF
            by Justin Turney, Rob Parrish, and Andy Simmonett
                              RKS Reference
                        1 Threads,   1000 MiB Core
         ---------------------------------------------------------

  ==> Geometry <==

    Molecular point group: c1
    Full point group: C1

    Geometry (in Angstrom), charge = 0, multiplicity = 1:

       Center              X                  Y                   Z               Mass       
    ------------   -----------------  -----------------  -----------------  -----------------
           H         -2.351404584982     0.046757721739     0.449992174571     1.007825032070
           H         -2.205648150789     1.694252032462    -0.173342884545     1.007825032070
           H         -1.908573311532     0.317095647082    -1.239946333371     1.007825032070
           C         -1.799058593170     0.689365759242    -0.227323816729    12.000000000000
           H          0.236434180464     1.347294362139    -0.517149272104     1.007825032070
           H         -0.205240582261     1.077927487368     1.177042641652     1.007825032070
           C         -0.306943971023     0.700686994670     0.164658762025    12.000000000000
           H          0.005037990858    -1.271501582672     0.985701746068     1.007825032070
           H         -0.115251060630    -1.231567166483    -0.780218801700     1.007825032070
           C          0.283471518775    -0.723703643850     0.091719326958    12.000000000000
           H          2.227103921548    -1.672625780425    -0.062081186242     1.007825032070
           H          2.229649624908    -0.163717701606     0.857543096061     1.007825032070
           H          2.109386087748    -0.124565569067    -0.905264988063     1.007825032070
           C          1.820725853129    -0.667974181779    -0.011608501159    12.000000000000

  Running in c1 symmetry.

  Rotational constants: A =      0.73844  B =      0.12321  C =      0.11617 [cm^-1]
  Rotational constants: A =  22138.00723  B =   3693.75710  C =   3482.75219 [MHz]
  Nuclear repulsion =  130.886318173489315

  Charge       = 0
  Multiplicity = 1
  Electrons    = 34
  Nalpha       = 17
  Nbeta        = 17

  ==> Algorithm <==

  SCF Algorithm Type is DF.
  DIIS enabled.
  MOM disabled.
  Fractional occupation disabled.
  Guess Type is READ.
  Energy threshold   = 1.00e-08
  Density threshold  = 1.00e-08
  Integral threshold = 0.00e+00

  ==> Primary Basis <==

  Basis Set: CC-PVDZ
    Number of shells: 54
    Number of basis function: 106
    Number of Cartesian functions: 110
    Spherical Harmonics?: true
    Max angular momentum: 2

  ==> DFT Potential <==

   => B3LYP Composite Functional <= 

    B3LYP Hybrid-GGA Exchange-Correlation Functional (VWN1-RPA)

    P.J. Stephens et. al., J. Phys. Chem., 98, 11623-11627, 1994

    Points   =           5000
    Deriv    =              1
    GGA      =           TRUE
    Meta     =          FALSE

    X_LRC        =          FALSE
    X_Hybrid     =           TRUE
    X_Alpha      =   2.000000E-01
    X_Omega      =   0.000000E+00
    C_LRC        =          FALSE
    C_Hybrid     =          FALSE
    C_Alpha      =   0.000000E+00
    C_Omega      =   0.000000E+00

   => Exchange Functionals <=

    0.8000    B3_X
    0.2000      HF 

   => Correlation Functionals <=

    0.1900 VWN3RPA_C
    0.8100   LYP_C

   => Molecular Quadrature <=

    Radial Scheme    =       TREUTLER
    Pruning Scheme   =           FLAT
    Nuclear Scheme   =       TREUTLER

    BS radius alpha  =              1
    Pruning alpha    =              1
    Radial Points    =             75
    Spherical Points =            302
    Total Points     =         312760
    Total Blocks     =            276
    Max Points       =           4998
    Max Functions    =            106

  ==> Pre-Iterations <==

   -------------------------------------------------------
    Irrep   Nso     Nmo     Nalpha   Nbeta   Ndocc  Nsocc
   -------------------------------------------------------
     A        106     106       0       0       0       0
   -------------------------------------------------------
    Total     106     106      17      17      17       0
   -------------------------------------------------------

  ==> Integral Setup <==

  ==> DFJK: Density-Fitted J/K Matrices <==

    J tasked:                  Yes
    K tasked:                  Yes
    wK tasked:                  No
    OpenMP threads:              1
    Integrals threads:           1
    Memory (MB):               715
    Algorithm:                Core
    Integral Cache:           NONE
    Schwarz Cutoff:          1E-12
    Fitting Condition:       1E-12

   => Auxiliary Basis Set <=

  Basis Set: 
    Number of shells: 186
    Number of basis function: 510
    Number of Cartesian functions: 574
    Spherical Harmonics?: true
    Max angular momentum: 3

  Minimum eigenvalue in the overlap matrix is 3.9473408355E-03.
  Using Symmetric Orthogonalization.
  SCF Guess was Projection but file not found.
  Switching over to SAD guess.

  SCF Guess: Superposition of Atomic Densities via on-the-fly atomic UHF.

  ==> Iterations <==

                           Total Energy        Delta E     RMS |[F,P]|

   @DF-RKS iter   0:  -158.99838721999228   -1.58998e+02   3.32990e-02 
   @DF-RKS iter   1:  -158.32790164700253    6.70486e-01   4.37556e-03 
   @DF-RKS iter   2:  -158.29136211418853    3.65395e-02   5.09173e-03 DIIS
   @DF-RKS iter   3:  -158.45305802348983   -1.61696e-01   3.46776e-04 DIIS
   @DF-RKS iter   4:  -158.45370642659179   -6.48403e-04   1.24274e-04 DIIS
   @DF-RKS iter   5:  -158.45378430942640   -7.78828e-05   4.39146e-05 DIIS
   @DF-RKS iter   6:  -158.45379504264741   -1.07332e-05   3.66406e-06 DIIS
   @DF-RKS iter   7:  -158.45379512149145   -7.88440e-08   7.17728e-07 DIIS
   @DF-RKS iter   8:  -158.45379512480426   -3.31281e-09   1.28193e-07 DIIS
   @DF-RKS iter   9:  -158.45379512490959   -1.05331e-10   3.29965e-08 DIIS
   @DF-RKS iter  10:  -158.45379512491675   -7.16227e-12   7.10200e-09 DIIS

  ==> Post-Iterations <==

    Orbital Energies (a.u.)
    -----------------------

    Doubly Occupied:                                                      

       1A    -10.174668     2A    -10.174471     3A    -10.169469  
       4A    -10.169410     5A     -0.791283     6A     -0.721018  
       7A     -0.627493     8A     -0.575457     9A     -0.469876  
      10A     -0.423373    11A     -0.419554    12A     -0.405799  
      13A     -0.365059    14A     -0.354347    15A     -0.328012  
      16A     -0.327796    17A     -0.313237  

    Virtual:                                                              

      18A      0.062120    19A      0.084351    20A      0.099691  
      21A      0.106215    22A      0.140334    23A      0.146416  
      24A      0.152456    25A      0.159250    26A      0.165757  
      27A      0.167535    28A      0.226007    29A      0.238629  
      30A      0.241763    31A      0.405731    32A      0.410866  
      33A      0.419412    34A      0.429546    35A      0.453932  
      36A      0.501785    37A      0.508330    38A      0.581407  
      39A      0.602601    40A      0.640117    41A      0.657467  
      42A      0.659286    43A      0.663430    44A      0.672027  
      45A      0.674668    46A      0.677316    47A      0.687674  
      48A      0.703914    49A      0.707348    50A      0.730750  
      51A      0.743349    52A      0.748631    53A      0.886924  
      54A      0.897112    55A      0.969288    56A      1.094690  
      57A      1.181927    58A      1.205040    59A      1.231380  
      60A      1.271124    61A      1.286670    62A      1.334335  
      63A      1.427263    64A      1.430387    65A      1.475464  
      66A      1.492283    67A      1.558480    68A      1.597536  
      69A      1.602319    70A      1.622000    71A      1.639900  
      72A      1.660090    73A      1.664828    74A      1.672818  
      75A      1.689515    76A      1.714506    77A      1.715317  
      78A      1.725420    79A      1.749943    80A      1.751727  
      81A      1.774605    82A      1.779576    83A      1.892510  
      84A      1.929051    85A      1.951476    86A      1.971954  
      87A      1.990486    88A      2.074413    89A      2.082099  
      90A      2.177610    91A      2.212589    92A      2.229229  
      93A      2.253323    94A      2.315162    95A      2.315197  
      96A      2.337154    97A      2.462045    98A      2.465218  
      99A      2.473536   100A      2.475791   101A      2.527118  
     102A      2.543923   103A      2.600096   104A      2.625640  
     105A      2.708090   106A      2.722019  

    Final Occupation by Irrep:
              A 
    DOCC [    17 ]

  Energy converged.

  @DF-RKS Final Energy:  -158.45379512491675

   => Energetics <=

    Nuclear Repulsion Energy =            130.8863181734893146
    One-Electron Energy =                -470.2277919510271431
    Two-Electron Energy =                 201.5194504639515003
    DFT Exchange-Correlation Energy =     -20.6317718113304132
    Empirical Dispersion Energy =           0.0000000000000000
    PCM Polarization Energy =               0.0000000000000000
    EFP Energy =                            0.0000000000000000
    Total Energy =                       -158.4537951249167520


  Saving occupied orbitals to File 180.

*** tstop() called on lski1497 at Tue Feb 21 18:03:36 2017
Module time:
	user time   =     106.60 seconds =       1.78 minutes
	system time =       1.32 seconds =       0.02 minutes
	total time  =        123 seconds =       2.05 minutes
Total time:
	user time   =     251.42 seconds =       4.19 minutes
	system time =       3.23 seconds =       0.05 minutes
	total time  =        293 seconds =       4.88 minutes


Properties will be evaluated at   0.000000,   0.000000,   0.000000 Bohr

Properties computed using the SCF density matrix

  Nuclear Dipole Moment: (a.u.)
     X:     0.0202      Y:     0.0181      Z:    -0.1947

  Electronic Dipole Moment: (a.u.)
     X:    -0.0214      Y:    -0.0197      Z:     0.2080

  Dipole Moment: (a.u.)
     X:    -0.0012      Y:    -0.0016      Z:     0.0133     Total:     0.0134

  Dipole Moment: (Debye)
     X:    -0.0031      Y:    -0.0040      Z:     0.0337     Total:     0.0341


*** tstart() called on lski1497
*** at Tue Feb 21 18:03:36 2017


         ------------------------------------------------------------
                                   SCF GRAD                          
                          Rob Parrish, Justin Turney,                
                       Andy Simmonett, and Alex Sokolov              
         ------------------------------------------------------------

  ==> Geometry <==

    Molecular point group: c1
    Full point group: C1

    Geometry (in Angstrom), charge = 0, multiplicity = 1:

       Center              X                  Y                   Z               Mass       
    ------------   -----------------  -----------------  -----------------  -----------------
           H         -2.351404584982     0.046757721739     0.449992174571     1.007825032070
           H         -2.205648150789     1.694252032462    -0.173342884545     1.007825032070
           H         -1.908573311532     0.317095647082    -1.239946333371     1.007825032070
           C         -1.799058593170     0.689365759242    -0.227323816729    12.000000000000
           H          0.236434180464     1.347294362139    -0.517149272104     1.007825032070
           H         -0.205240582261     1.077927487368     1.177042641652     1.007825032070
           C         -0.306943971023     0.700686994670     0.164658762025    12.000000000000
           H          0.005037990858    -1.271501582672     0.985701746068     1.007825032070
           H         -0.115251060630    -1.231567166483    -0.780218801700     1.007825032070
           C          0.283471518775    -0.723703643850     0.091719326958    12.000000000000
           H          2.227103921548    -1.672625780425    -0.062081186242     1.007825032070
           H          2.229649624908    -0.163717701606     0.857543096061     1.007825032070
           H          2.109386087748    -0.124565569067    -0.905264988063     1.007825032070
           C          1.820725853129    -0.667974181779    -0.011608501159    12.000000000000

  Nuclear repulsion =  130.886318173489315

  ==> Basis Set <==

  Basis Set: CC-PVDZ
    Number of shells: 54
    Number of basis function: 106
    Number of Cartesian functions: 110
    Spherical Harmonics?: true
    Max angular momentum: 2

  ==> DFJKGrad: Density-Fitted SCF Gradients <==

    Gradient:                    1
    J tasked:                  Yes
    K tasked:                  Yes
    wK tasked:                  No
    OpenMP threads:              1
    Integrals threads:           1
    Memory (MB):               715
    Schwarz Cutoff:          0E+00
    Fitting Condition:       1E-12

   => Auxiliary Basis Set <=

  Basis Set: 
    Number of shells: 186
    Number of basis function: 510
    Number of Cartesian functions: 574
    Spherical Harmonics?: true
    Max angular momentum: 3

  ==> DFT Potential <==

   => B3LYP Composite Functional <= 

    B3LYP Hybrid-GGA Exchange-Correlation Functional (VWN1-RPA)

    P.J. Stephens et. al., J. Phys. Chem., 98, 11623-11627, 1994

    Points   =           5000
    Deriv    =              1
    GGA      =           TRUE
    Meta     =          FALSE

    X_LRC        =          FALSE
    X_Hybrid     =           TRUE
    X_Alpha      =   2.000000E-01
    X_Omega      =   0.000000E+00
    C_LRC        =          FALSE
    C_Hybrid     =          FALSE
    C_Alpha      =   0.000000E+00
    C_Omega      =   0.000000E+00

   => Exchange Functionals <=

    0.8000    B3_X
    0.2000      HF 

   => Correlation Functionals <=

    0.1900 VWN3RPA_C
    0.8100   LYP_C

   => Molecular Quadrature <=

    Radial Scheme    =       TREUTLER
    Pruning Scheme   =           FLAT
    Nuclear Scheme   =       TREUTLER

    BS radius alpha  =              1
    Pruning alpha    =              1
    Radial Points    =             75
    Spherical Points =            302
    Total Points     =         312760
    Total Blocks     =            276
    Max Points       =           4998
    Max Functions    =            106


  -Total Gradient:
     Atom            X                  Y                   Z
    ------   -----------------  -----------------  -----------------
       1        0.008536319790     0.006668844813    -0.005756856136
       2        0.007534364157    -0.009162062226     0.000202660604
       3        0.003867194913     0.003891801377     0.010896620306
       4       -0.019748210040    -0.005778553307    -0.007665059429
       5       -0.006603387151    -0.008914149877     0.005537560641
       6       -0.004061303637    -0.007465953951    -0.009865265751
       7        0.018245248049     0.022746335917     0.007612273926
       8        0.005795039290     0.009149016641    -0.007707108627
       9        0.005456961786     0.007773295876     0.008436578236
      10       -0.018717121105    -0.023653274507    -0.000261262179
      11       -0.007717944073     0.009424597790     0.000425853315
      12       -0.007149779108    -0.005360798266    -0.008344938344
      13       -0.005545031693    -0.005485844350     0.008882101053
      14        0.020106494989     0.006165621279    -0.002380001119


*** tstop() called on lski1497 at Tue Feb 21 18:04:17 2017
Module time:
	user time   =      36.06 seconds =       0.60 minutes
	system time =       0.59 seconds =       0.01 minutes
	total time  =         41 seconds =       0.68 minutes
Total time:
	user time   =     287.51 seconds =       4.79 minutes
	system time =       3.82 seconds =       0.06 minutes
	total time  =        334 seconds =       5.57 minutes

			-----------------------------------------
			 OPTKING 2.0: for geometry optimizations 
			  - R.A. King,  Bethel University        
			-----------------------------------------

	Previous internal coordinate definitions found.
	---Fragment 1 Geometry and Gradient---
	 H          -4.4435106932        0.0883592887        0.8503619719
	 H          -4.1680709505        3.2016723414       -0.3275705789
	 H          -3.6066808633        0.5992239309       -2.3431589895
	 C          -3.3997280381        1.3027124904       -0.4295797571
	 H           0.4467958495        2.5460173648       -0.9772704941
	 H          -0.3878484918        2.0369877422        2.2242882395
	 C          -0.5800400434        1.3241065248        0.3111599656
	 H           0.0095204230       -2.4027897688        1.8627063488
	 H          -0.2177929411       -2.3273246589       -1.4743998589
	 C           0.5356835370       -1.3676016882        0.1733244090
	 H           4.2086164812       -3.1608046478       -0.1173164400
	 H           4.2134271634       -0.3093816191        1.6205215987
	 H           3.9861620144       -0.2353948111       -1.7107029051
	 C           3.4406732255       -1.2622882674       -0.0219368880
	             0.0085363198        0.0066688448       -0.0057568561
	             0.0075343642       -0.0091620622        0.0002026606
	             0.0038671949        0.0038918014        0.0108966203
	            -0.0197482100       -0.0057785533       -0.0076650594
	            -0.0066033872       -0.0089141499        0.0055375606
	            -0.0040613036       -0.0074659540       -0.0098652658
	             0.0182452480        0.0227463359        0.0076122739
	             0.0057950393        0.0091490166       -0.0077071086
	             0.0054569618        0.0077732959        0.0084365782
	            -0.0187171211       -0.0236532745       -0.0002612622
	            -0.0077179441        0.0094245978        0.0004258533
	            -0.0071497791       -0.0053607983       -0.0083449383
	            -0.0055450317       -0.0054858444        0.0088821011
	             0.0201064950        0.0061656213       -0.0023800011

	---Fragment 1 Intrafragment Coordinates---
	 - Coordinate -           - BOHR/RAD -       - ANG/DEG -
	 R(1,4)           =         2.049972	       1.084799
	 R(2,4)           =         2.051050	       1.085369
	 R(3,4)           =         2.049271	       1.084427
	 R(4,7)           =         2.915441	       1.542785
	 R(5,7)           =         2.051222	       1.085460
	 R(6,7)           =         2.050658	       1.085161
	 R(7,10)          =         2.917041	       1.543632
	 R(8,10)          =         2.049993	       1.084810
	 R(9,10)          =         2.050315	       1.084980
	 R(10,14)         =         2.913449	       1.541731
	 R(11,14)         =         2.050170	       1.084903
	 R(12,14)         =         2.050085	       1.084858
	 R(13,14)         =         2.050366	       1.085007
	 B(1,4,2)         =         1.903560	     109.065975
	 B(1,4,3)         =         1.905249	     109.162753
	 B(1,4,7)         =         1.915754	     109.764606
	 B(2,4,3)         =         1.903334	     109.052984
	 B(2,4,7)         =         1.920773	     110.052176
	 B(3,4,7)         =         1.914995	     109.721109
	 B(4,7,5)         =         1.905973	     109.204195
	 B(4,7,6)         =         1.907343	     109.282720
	 B(4,7,10)        =         1.929591	     110.557413
	 B(5,7,6)         =         1.909219	     109.390166
	 B(5,7,10)        =         1.905545	     109.179697
	 B(6,7,10)        =         1.906059	     109.209134
	 B(7,10,8)        =         1.905885	     109.199187
	 B(7,10,9)        =         1.906401	     109.228758
	 B(7,10,14)       =         1.929634	     110.559869
	 B(8,10,9)        =         1.908778	     109.364933
	 B(8,10,14)       =         1.906470	     109.232670
	 B(9,10,14)       =         1.906555	     109.237542
	 B(10,14,11)      =         1.921046	     110.067826
	 B(10,14,12)      =         1.916597	     109.812923
	 B(10,14,13)      =         1.916201	     109.790204
	 B(11,14,12)      =         1.903406	     109.057159
	 B(11,14,13)      =         1.902670	     109.014964
	 B(12,14,13)      =         1.903709	     109.074473
	 D(1,4,7,5)       =        -3.139762	    -179.895083
	 D(1,4,7,6)       =        -1.051914	     -60.270216
	 D(1,4,7,10)      =         1.046509	      59.960549
	 D(2,4,7,5)       =        -1.044607	     -59.851554
	 D(2,4,7,6)       =         1.043241	      59.773313
	 D(2,4,7,10)      =        -3.141521	    -179.995921
	 D(3,4,7,5)       =         1.049791	      60.148579
	 D(3,4,7,6)       =         3.137639	     179.773446
	 D(3,4,7,10)      =        -1.047124	     -59.995788
	 D(4,7,10,8)      =        -1.391106	     -79.704510
	 D(4,7,10,9)      =         0.695589	      39.854333
	 D(4,7,10,14)     =         2.794051	     160.087341
	 D(5,7,10,8)      =         2.794908	     160.136443
	 D(5,7,10,9)      =        -1.401582	     -80.304715
	 D(5,7,10,14)     =         0.696880	      39.928294
	 D(6,7,10,8)      =         0.708085	      40.570304
	 D(6,7,10,9)      =         2.794781	     160.129147
	 D(6,7,10,14)     =        -1.389943	     -79.637845
	 D(7,10,14,11)    =         3.141310	     179.983803
	 D(7,10,14,12)    =         1.045643	      59.910907
	 D(7,10,14,13)    =        -1.047368	     -60.009756
	 D(8,10,14,11)    =         1.043632	      59.795708
	 D(8,10,14,12)    =        -1.052035	     -60.277188
	 D(8,10,14,13)    =         3.138139	     179.802149
	 D(9,10,14,11)    =        -1.043505	     -59.788447
	 D(9,10,14,12)    =        -3.139173	    -179.861343
	 D(9,10,14,13)    =         1.051002	      60.217994

	Current energy   :      -158.4537951249

	Energy change for the previous step:
		Projected    :        -0.0073733381
		Actual       :        -0.0058867647

	Performing BFGS update.
	Previous computed or guess Hessian on step 1.
	Steps to be used in Hessian update: 1
	Adding user-defined constraint: Fragment 1; Coordinate 49:
		Value =     2.794051; Fixed value    =     2.792530
		Force =    -0.000799; Force constant =     0.525000
	Removing off-diagonal coupling between coordinate 49 and others.
	Taking RFO optimization step.
	Going to follow RFO solution 1.
	Using RFO vector 1.

	Determining step-restricting scale parameter for RS-RFO.
	Maximum step size allowed    0.10000

	 Iter      |step|        alpha        rfo_root  
	------------------------------------------------
	    0     0.21307       1.00000           1
	    1     0.16201       5.29051           1
	    2     0.12655      14.84663           1
	    3     0.10762      26.62521           1
	    4     0.10091      33.11961           1
	    5     0.10002      34.10970           1
	    6     0.10000      34.12693           1
	------------------------------------------------
	Norm of target step-size    0.10000
	Projected energy change by RFO approximation:        -0.0041075695

	Back-transformation to cartesian coordinates...
	Successfully converged to displaced geometry.

	--- Internal Coordinate Step in ANG or DEG, aJ/ANG or AJ/DEG ---
	 ---------------------------------------------------------------------------
	   Coordinate                Previous        Force       Change         New 
	   ----------                --------       ------       ------       ------
	    1 R(1,4)          =      1.084799     0.097973     0.012366     1.097164
	    2 R(2,4)          =      1.085369     0.093059     0.011514     1.096882
	    3 R(3,4)          =      1.084427     0.098046     0.012388     1.096816
	    4 R(4,7)          =      1.542785    -0.003625    -0.002759     1.540026
	    5 R(5,7)          =      1.085460     0.099635     0.012716     1.098176
	    6 R(6,7)          =      1.085161     0.100352     0.012674     1.097836
	    7 R(7,10)         =      1.543632     0.009019    -0.000244     1.543388
	    8 R(8,10)         =      1.084810     0.102651     0.012927     1.097737
	    9 R(9,10)         =      1.084980     0.102353     0.013014     1.097994
	   10 R(10,14)        =      1.541731     0.000312    -0.002135     1.539595
	   11 R(11,14)        =      1.084903     0.095886     0.011825     1.096728
	   12 R(12,14)        =      1.084858     0.097818     0.012344     1.097202
	   13 R(13,14)        =      1.085007     0.095053     0.012049     1.097056
	   14 B(1,4,2)        =    109.065975    -0.000259    -0.699212   108.366762
	   15 B(1,4,3)        =    109.162753    -0.000228    -0.692522   108.470231
	   16 B(1,4,7)        =    109.764606     0.000220     0.651516   110.416122
	   17 B(2,4,3)        =    109.052984    -0.000237    -0.639937   108.413047
	   18 B(2,4,7)        =    110.052176     0.000313     0.775114   110.827289
	   19 B(3,4,7)        =    109.721109     0.000182     0.553966   110.275075
	   20 B(4,7,5)        =    109.204195    -0.000121    -0.198241   109.005954
	   21 B(4,7,6)        =    109.282720    -0.000127    -0.155331   109.127389
	   22 B(4,7,10)       =    110.557413     0.000568     1.285477   111.842890
	   23 B(5,7,6)        =    109.390166    -0.000063    -0.556744   108.833422
	   24 B(5,7,10)       =    109.179697    -0.000134    -0.220071   108.959627
	   25 B(6,7,10)       =    109.209134    -0.000129    -0.186036   109.023098
	   26 B(7,10,8)       =    109.199187    -0.000130    -0.186339   109.012847
	   27 B(7,10,9)       =    109.228758    -0.000139    -0.235109   108.993649
	   28 B(7,10,14)      =    110.559869     0.000571     1.287716   111.847585
	   29 B(8,10,9)       =    109.364933    -0.000061    -0.551715   108.813218
	   30 B(8,10,14)      =    109.232670    -0.000124    -0.141742   109.090928
	   31 B(9,10,14)      =    109.237542    -0.000122    -0.204122   109.033419
	   32 B(10,14,11)     =    110.067826     0.000314     0.773647   110.841473
	   33 B(10,14,12)     =    109.812923     0.000213     0.628101   110.441025
	   34 B(10,14,13)     =    109.790204     0.000171     0.524607   110.314811
	   35 B(11,14,12)     =    109.057159    -0.000257    -0.692778   108.364381
	   36 B(11,14,13)     =    109.014964    -0.000233    -0.625333   108.389631
	   37 B(12,14,13)     =    109.074473    -0.000219    -0.660408   108.414065
	   38 D(1,4,7,5)      =   -179.895083     0.000020     0.343765  -179.551318
	   39 D(1,4,7,6)      =    -60.270216    -0.000031    -0.540765   -60.810982
	   40 D(1,4,7,10)     =     59.960549    -0.000005    -0.061237    59.899312
	   41 D(2,4,7,5)      =    -59.851554     0.000024     0.387539   -59.464015
	   42 D(2,4,7,6)      =     59.773313    -0.000028    -0.496991    59.276322
	   43 D(2,4,7,10)     =   -179.995921    -0.000002    -0.017463  -180.013385
	   44 D(3,4,7,5)      =     60.148579     0.000028     0.440340    60.588919
	   45 D(3,4,7,6)      =    179.773446    -0.000024    -0.444191   179.329255
	   46 D(3,4,7,10)     =    -59.995788     0.000002     0.035338   -59.960451
	   47 D(4,7,10,8)     =    -79.704510     0.000038     0.659955   -79.044555
	   48 D(4,7,10,9)     =     39.854333    -0.000016    -0.256745    39.597588
	   49 D(4,7,10,14)    =    160.087341     0.000010     0.146731   160.234072
	   50 D(5,7,10,8)     =    160.136443     0.000010     0.242645   160.379088
	   51 D(5,7,10,9)     =    -80.304715    -0.000043    -0.674054   -80.978769
	   52 D(5,7,10,14)    =     39.928294    -0.000017    -0.270579    39.657715
	   53 D(6,7,10,8)     =     40.570304     0.000064     1.156074    41.726379
	   54 D(6,7,10,9)     =    160.129147     0.000010     0.239375   160.368521
	   55 D(6,7,10,14)    =    -79.637845     0.000037     0.642850   -78.994995
	   56 D(7,10,14,11)   =    179.983803    -0.000001    -0.010331   179.973472
	   57 D(7,10,14,12)   =     59.910907    -0.000004    -0.047321    59.863586
	   58 D(7,10,14,13)   =    -60.009756     0.000003     0.042035   -59.967721
	   59 D(8,10,14,11)   =     59.795708    -0.000028    -0.498193    59.297515
	   60 D(8,10,14,12)   =    -60.277188    -0.000031    -0.535183   -60.812371
	   61 D(8,10,14,13)   =    179.802149    -0.000024    -0.445827   179.356321
	   62 D(9,10,14,11)   =    -59.788447     0.000023     0.375253   -59.413194
	   63 D(9,10,14,12)   =   -179.861343     0.000020     0.338263  -179.523080
	   64 D(9,10,14,13)   =     60.217994     0.000027     0.427619    60.645612
	 ---------------------------------------------------------------------------
	 Forces used to impose fixed constraints are not included.
	  Forces zeroed: 49 

  ==> Convergence Check <==

  Measures of convergence in internal coordinates in au.
  Criteria marked as inactive (o), active & met (*), and active & unmet ( ).
  ---------------------------------------------------------------------------------------------
   Step     Total Energy     Delta E     MAX Force     RMS Force      MAX Disp      RMS Disp   
  ---------------------------------------------------------------------------------------------
    Convergence Criteria    1.00e-06 *    3.00e-04 *             o    1.20e-03 *             o
  ---------------------------------------------------------------------------------------------
      2    -158.45379512   -5.89e-03      1.25e-02      5.21e-03 o    2.46e-02      1.25e-02 o  ~
  ---------------------------------------------------------------------------------------------

	Writing optimization data to binary file.
	Structure for next step:
	Cartesian Geometry (in Angstrom)
	    H    -2.3795504746   0.0365764050   0.4513556790
	    H    -2.2347052312   1.6969450107  -0.1711664537
	    H    -1.9364467763   0.3140190081  -1.2503944755
	    C    -1.8117912407   0.6863721601  -0.2262760960
	    H     0.2228517690   1.3570184500  -0.5257399903
	    H    -0.2171902359   1.0812824845   1.1830479257
	    C    -0.3212269009   0.6947244651   0.1607993222
	    H     0.0153488199  -1.2763950397   0.9928896675
	    H    -0.1004087553  -1.2394029548  -0.7884682537
	    C     0.2979817210  -0.7173026047   0.0914678221
	    H     2.2558534985  -1.6763105134  -0.0558521609
	    H     2.2570433393  -0.1546649504   0.8658318047
	    H     2.1384527106  -0.1198299867  -0.9097120300
	    C     1.8334766796  -0.6653075550  -0.0080607976
			--------------------------
			 OPTKING Finished Execution 
			--------------------------

    Structure for next step:
    Molecular point group: c1
    Full point group: C1

    Geometry (in Angstrom), charge = 0, multiplicity = 1:

    H           -2.379596929911     0.036555294928     0.451263984010
    H           -2.234751686485     1.696923900681    -0.171258148719
    H           -1.936493231598     0.313997898044    -1.250486170440
    C           -1.811837695981     0.686351049997    -0.226367790969
    H            0.222805313705     1.356997339894    -0.525831685300
    H           -0.217236691220     1.081261374480     1.182956230735
    C           -0.321273356239     0.694703354986     0.160707627216
    H            0.015302364559    -1.276416149719     0.992797972474
    H           -0.100455210587    -1.239424064880    -0.788559948654
    C            0.297935265725    -0.717323714762     0.091376127111
    H            2.255807043154    -1.676331623445    -0.055943855848
    H            2.256996883982    -0.154686060457     0.865740109704
    H            2.138406255241    -0.119851096775    -0.909803725026
    C            1.833430224231    -0.665328665069    -0.008152492629

gradient() will perform analytic gradient computation.

*** tstart() called on lski1497
*** at Tue Feb 21 18:04:18 2017


         ---------------------------------------------------------
                                   SCF
            by Justin Turney, Rob Parrish, and Andy Simmonett
                              RKS Reference
                        1 Threads,   1000 MiB Core
         ---------------------------------------------------------

  ==> Geometry <==

    Molecular point group: c1
    Full point group: C1

    Geometry (in Angstrom), charge = 0, multiplicity = 1:

       Center              X                  Y                   Z               Mass       
    ------------   -----------------  -----------------  -----------------  -----------------
           H         -2.379596929911     0.036555294928     0.451263984010     1.007825032070
           H         -2.234751686485     1.696923900681    -0.171258148719     1.007825032070
           H         -1.936493231598     0.313997898044    -1.250486170440     1.007825032070
           C         -1.811837695981     0.686351049997    -0.226367790969    12.000000000000
           H          0.222805313705     1.356997339894    -0.525831685300     1.007825032070
           H         -0.217236691220     1.081261374480     1.182956230735     1.007825032070
           C         -0.321273356239     0.694703354986     0.160707627216    12.000000000000
           H          0.015302364559    -1.276416149719     0.992797972474     1.007825032070
           H         -0.100455210587    -1.239424064880    -0.788559948654     1.007825032070
           C          0.297935265725    -0.717323714762     0.091376127111    12.000000000000
           H          2.255807043154    -1.676331623445    -0.055943855848     1.007825032070
           H          2.256996883982    -0.154686060457     0.865740109704     1.007825032070
           H          2.138406255241    -0.119851096775    -0.909803725026     1.007825032070
           C          1.833430224231    -0.665328665069    -0.008152492629    12.000000000000

  Running in c1 symmetry.

  Rotational constants: A =      0.74087  B =      0.12138  C =      0.11471 [cm^-1]
  Rotational constants: A =  22210.59388  B =   3638.81906  C =   3438.88674 [MHz]
  Nuclear repulsion =  130.153175893531227

  Charge       = 0
  Multiplicity = 1
  Electrons    = 34
  Nalpha       = 17
  Nbeta        = 17

  ==> Algorithm <==

  SCF Algorithm Type is DF.
  DIIS enabled.
  MOM disabled.
  Fractional occupation disabled.
  Guess Type is READ.
  Energy threshold   = 1.00e-08
  Density threshold  = 1.00e-08
  Integral threshold = 0.00e+00

  ==> Primary Basis <==

  Basis Set: CC-PVDZ
    Number of shells: 54
    Number of basis function: 106
    Number of Cartesian functions: 110
    Spherical Harmonics?: true
    Max angular momentum: 2

  ==> DFT Potential <==

   => B3LYP Composite Functional <= 

    B3LYP Hybrid-GGA Exchange-Correlation Functional (VWN1-RPA)

    P.J. Stephens et. al., J. Phys. Chem., 98, 11623-11627, 1994

    Points   =           5000
    Deriv    =              1
    GGA      =           TRUE
    Meta     =          FALSE

    X_LRC        =          FALSE
    X_Hybrid     =           TRUE
    X_Alpha      =   2.000000E-01
    X_Omega      =   0.000000E+00
    C_LRC        =          FALSE
    C_Hybrid     =          FALSE
    C_Alpha      =   0.000000E+00
    C_Omega      =   0.000000E+00

   => Exchange Functionals <=

    0.8000    B3_X
    0.2000      HF 

   => Correlation Functionals <=

    0.1900 VWN3RPA_C
    0.8100   LYP_C

   => Molecular Quadrature <=

    Radial Scheme    =       TREUTLER
    Pruning Scheme   =           FLAT
    Nuclear Scheme   =       TREUTLER

    BS radius alpha  =              1
    Pruning alpha    =              1
    Radial Points    =             75
    Spherical Points =            302
    Total Points     =         312774
    Total Blocks     =            277
    Max Points       =           4996
    Max Functions    =            106

  ==> Pre-Iterations <==

   -------------------------------------------------------
    Irrep   Nso     Nmo     Nalpha   Nbeta   Ndocc  Nsocc
   -------------------------------------------------------
     A        106     106       0       0       0       0
   -------------------------------------------------------
    Total     106     106      17      17      17       0
   -------------------------------------------------------

  ==> Integral Setup <==

  ==> DFJK: Density-Fitted J/K Matrices <==

    J tasked:                  Yes
    K tasked:                  Yes
    wK tasked:                  No
    OpenMP threads:              1
    Integrals threads:           1
    Memory (MB):               715
    Algorithm:                Core
    Integral Cache:           NONE
    Schwarz Cutoff:          1E-12
    Fitting Condition:       1E-12

   => Auxiliary Basis Set <=

  Basis Set: 
    Number of shells: 186
    Number of basis function: 510
    Number of Cartesian functions: 574
    Spherical Harmonics?: true
    Max angular momentum: 3

  Minimum eigenvalue in the overlap matrix is 3.9754307903E-03.
  Using Symmetric Orthogonalization.
  SCF Guess was Projection but file not found.
  Switching over to SAD guess.

  SCF Guess: Superposition of Atomic Densities via on-the-fly atomic UHF.

  ==> Iterations <==

                           Total Energy        Delta E     RMS |[F,P]|

   @DF-RKS iter   0:  -158.95535712555994   -1.58955e+02   3.27733e-02 
   @DF-RKS iter   1:  -158.33563763031799    6.19719e-01   4.27436e-03 
   @DF-RKS iter   2:  -158.29669480566798    3.89428e-02   5.03548e-03 DIIS
   @DF-RKS iter   3:  -158.45580640804170   -1.59112e-01   3.43576e-04 DIIS
   @DF-RKS iter   4:  -158.45645148272686   -6.45075e-04   1.20512e-04 DIIS
   @DF-RKS iter   5:  -158.45652414570475   -7.26630e-05   4.45911e-05 DIIS
   @DF-RKS iter   6:  -158.45653523769306   -1.10920e-05   3.67601e-06 DIIS
   @DF-RKS iter   7:  -158.45653531737514   -7.96821e-08   7.05577e-07 DIIS
   @DF-RKS iter   8:  -158.45653532059882   -3.22368e-09   1.29510e-07 DIIS
   @DF-RKS iter   9:  -158.45653532070799   -1.09168e-10   3.19042e-08 DIIS
   @DF-RKS iter  10:  -158.45653532071461   -6.62226e-12   4.72182e-09 DIIS

  ==> Post-Iterations <==

    Orbital Energies (a.u.)
    -----------------------

    Doubly Occupied:                                                      

       1A    -10.178398     2A    -10.178235     3A    -10.173771  
       4A    -10.173749     5A     -0.789624     6A     -0.719717  
       7A     -0.626277     8A     -0.572103     9A     -0.466897  
      10A     -0.421432    11A     -0.418510    12A     -0.404818  
      13A     -0.364023    14A     -0.352160    15A     -0.327081  
      16A     -0.324460    17A     -0.316964  

    Virtual:                                                              

      18A      0.060895    19A      0.082260    20A      0.097369  
      21A      0.104028    22A      0.138486    23A      0.142369  
      24A      0.150526    25A      0.155222    26A      0.161687  
      27A      0.164811    28A      0.224554    29A      0.239240  
      30A      0.244165    31A      0.405509    32A      0.407279  
      33A      0.416969    34A      0.425171    35A      0.453480  
      36A      0.504497    37A      0.508022    38A      0.579869  
      39A      0.600857    40A      0.633762    41A      0.650324  
      42A      0.652480    43A      0.657356    44A      0.663401  
      45A      0.669350    46A      0.672503    47A      0.681620  
      48A      0.699895    49A      0.702698    50A      0.726772  
      51A      0.735976    52A      0.744437    53A      0.889192  
      54A      0.893395    55A      0.966591    56A      1.087895  
      57A      1.182267    58A      1.201084    59A      1.227788  
      60A      1.266009    61A      1.275660    62A      1.329652  
      63A      1.422345    64A      1.425471    65A      1.463392  
      66A      1.491883    67A      1.557742    68A      1.588370  
      69A      1.596319    70A      1.614967    71A      1.635402  
      72A      1.653491    73A      1.654658    74A      1.660155  
      75A      1.680763    76A      1.702242    77A      1.707653  
      78A      1.718557    79A      1.739454    80A      1.750581  
      81A      1.762829    82A      1.770520    83A      1.888008  
      84A      1.910426    85A      1.934408    86A      1.963218  
      87A      1.990187    88A      2.074373    89A      2.078099  
      90A      2.156495    91A      2.190618    92A      2.215733  
      93A      2.232078    94A      2.287271    95A      2.297281  
      96A      2.313063    97A      2.427006    98A      2.430214  
      99A      2.452912   100A      2.457662   101A      2.508033  
     102A      2.513673   103A      2.595307   104A      2.600732  
     105A      2.689578   106A      2.703563  

    Final Occupation by Irrep:
              A 
    DOCC [    17 ]

  Energy converged.

  @DF-RKS Final Energy:  -158.45653532071461

   => Energetics <=

    Nuclear Repulsion Energy =            130.1531758935312268
    One-Electron Energy =                -468.7956764935219667
    Two-Electron Energy =                 200.7825133538889588
    DFT Exchange-Correlation Energy =     -20.5965480746128264
    Empirical Dispersion Energy =           0.0000000000000000
    PCM Polarization Energy =               0.0000000000000000
    EFP Energy =                            0.0000000000000000
    Total Energy =                       -158.4565353207146075


  Saving occupied orbitals to File 180.

*** tstop() called on lski1497 at Tue Feb 21 18:06:21 2017
Module time:
	user time   =     105.71 seconds =       1.76 minutes
	system time =       1.39 seconds =       0.02 minutes
	total time  =        123 seconds =       2.05 minutes
Total time:
	user time   =     393.86 seconds =       6.56 minutes
	system time =       5.23 seconds =       0.09 minutes
	total time  =        458 seconds =       7.63 minutes


Properties will be evaluated at   0.000000,   0.000000,   0.000000 Bohr

Properties computed using the SCF density matrix

  Nuclear Dipole Moment: (a.u.)
     X:     0.0195      Y:     0.0178      Z:    -0.1960

  Electronic Dipole Moment: (a.u.)
     X:    -0.0206      Y:    -0.0190      Z:     0.2077

  Dipole Moment: (a.u.)
     X:    -0.0011      Y:    -0.0012      Z:     0.0117     Total:     0.0118

  Dipole Moment: (Debye)
     X:    -0.0028      Y:    -0.0030      Z:     0.0296     Total:     0.0299


*** tstart() called on lski1497
*** at Tue Feb 21 18:06:21 2017


         ------------------------------------------------------------
                                   SCF GRAD                          
                          Rob Parrish, Justin Turney,                
                       Andy Simmonett, and Alex Sokolov              
         ------------------------------------------------------------

  ==> Geometry <==

    Molecular point group: c1
    Full point group: C1

    Geometry (in Angstrom), charge = 0, multiplicity = 1:

       Center              X                  Y                   Z               Mass       
    ------------   -----------------  -----------------  -----------------  -----------------
           H         -2.379596929911     0.036555294928     0.451263984010     1.007825032070
           H         -2.234751686485     1.696923900681    -0.171258148719     1.007825032070
           H         -1.936493231598     0.313997898044    -1.250486170440     1.007825032070
           C         -1.811837695981     0.686351049997    -0.226367790969    12.000000000000
           H          0.222805313705     1.356997339894    -0.525831685300     1.007825032070
           H         -0.217236691220     1.081261374480     1.182956230735     1.007825032070
           C         -0.321273356239     0.694703354986     0.160707627216    12.000000000000
           H          0.015302364559    -1.276416149719     0.992797972474     1.007825032070
           H         -0.100455210587    -1.239424064880    -0.788559948654     1.007825032070
           C          0.297935265725    -0.717323714762     0.091376127111    12.000000000000
           H          2.255807043154    -1.676331623445    -0.055943855848     1.007825032070
           H          2.256996883982    -0.154686060457     0.865740109704     1.007825032070
           H          2.138406255241    -0.119851096775    -0.909803725026     1.007825032070
           C          1.833430224231    -0.665328665069    -0.008152492629    12.000000000000

  Nuclear repulsion =  130.153175893531227

  ==> Basis Set <==

  Basis Set: CC-PVDZ
    Number of shells: 54
    Number of basis function: 106
    Number of Cartesian functions: 110
    Spherical Harmonics?: true
    Max angular momentum: 2

  ==> DFJKGrad: Density-Fitted SCF Gradients <==

    Gradient:                    1
    J tasked:                  Yes
    K tasked:                  Yes
    wK tasked:                  No
    OpenMP threads:              1
    Integrals threads:           1
    Memory (MB):               715
    Schwarz Cutoff:          0E+00
    Fitting Condition:       1E-12

   => Auxiliary Basis Set <=

  Basis Set: 
    Number of shells: 186
    Number of basis function: 510
    Number of Cartesian functions: 574
    Spherical Harmonics?: true
    Max angular momentum: 3

  ==> DFT Potential <==

   => B3LYP Composite Functional <= 

    B3LYP Hybrid-GGA Exchange-Correlation Functional (VWN1-RPA)

    P.J. Stephens et. al., J. Phys. Chem., 98, 11623-11627, 1994

    Points   =           5000
    Deriv    =              1
    GGA      =           TRUE
    Meta     =          FALSE

    X_LRC        =          FALSE
    X_Hybrid     =           TRUE
    X_Alpha      =   2.000000E-01
    X_Omega      =   0.000000E+00
    C_LRC        =          FALSE
    C_Hybrid     =          FALSE
    C_Alpha      =   0.000000E+00
    C_Omega      =   0.000000E+00

   => Exchange Functionals <=

    0.8000    B3_X
    0.2000      HF 

   => Correlation Functionals <=

    0.1900 VWN3RPA_C
    0.8100   LYP_C

   => Molecular Quadrature <=

    Radial Scheme    =       TREUTLER
    Pruning Scheme   =           FLAT
    Nuclear Scheme   =       TREUTLER

    BS radius alpha  =              1
    Pruning alpha    =              1
    Radial Points    =             75
    Spherical Points =            302
    Total Points     =         312774
    Total Blocks     =            277
    Max Points       =           4996
[...]
    X_Alpha      =   2.000000E-01
    X_Omega      =   0.000000E+00
    C_LRC        =          FALSE
    C_Hybrid     =          FALSE
    C_Alpha      =   0.000000E+00
    C_Omega      =   0.000000E+00

   => Exchange Functionals <=

    0.8000    B3_X
    0.2000      HF 

   => Correlation Functionals <=

    0.1900 VWN3RPA_C
    0.8100   LYP_C

   => Molecular Quadrature <=

    Radial Scheme    =       TREUTLER
    Pruning Scheme   =           FLAT
    Nuclear Scheme   =       TREUTLER

    BS radius alpha  =              1
    Pruning alpha    =              1
    Radial Points    =             75
    Spherical Points =            302
    Total Points     =         312790
    Total Blocks     =            271
    Max Points       =           4835
    Max Functions    =            106


  -Total Gradient:
     Atom            X                  Y                   Z
    ------   -----------------  -----------------  -----------------
       1       -0.000012424600    -0.000005967881     0.000000490444
       2       -0.000007842953     0.000012944864     0.000001520687
       3       -0.000003723306     0.000002194418    -0.000013805656
       4        0.000643697865     0.000393090582    -0.002375617033
       5        0.000000008124    -0.000016617024     0.000015666993
       6       -0.000014555100    -0.000008019146     0.000013777485
       7       -0.000933625388    -0.000484453598     0.002321299667
       8        0.000011590656     0.000005161077     0.000018056433
       9       -0.000003274220     0.000013232856     0.000017556006
      10        0.000484263575     0.000051220368     0.002500278219
      11        0.000007572337    -0.000013726268     0.000000720282
      12        0.000011574323     0.000005488343     0.000003805463
      13        0.000005266876    -0.000000458311    -0.000012220963
      14       -0.000189100643     0.000045356325    -0.002485391149


*** tstop() called on lski1497 at Tue Feb 21 18:20:22 2017
Module time:
	user time   =      36.24 seconds =       0.60 minutes
	system time =       0.64 seconds =       0.01 minutes
	total time  =         42 seconds =       0.70 minutes
Total time:
	user time   =    1149.11 seconds =      19.15 minutes
	system time =      15.59 seconds =       0.26 minutes
	total time  =       1299 seconds =      21.65 minutes

			-----------------------------------------
			 OPTKING 2.0: for geometry optimizations 
			  - R.A. King,  Bethel University        
			-----------------------------------------

	Previous internal coordinate definitions found.
	---Fragment 1 Geometry and Gradient---
	 H          -4.5434681553        0.0434133338        0.8230133187
	 H          -4.2596233009        3.2067091382       -0.2791649153
	 H          -3.7079534764        0.6344880553       -2.3777256106
	 C          -3.4349102050        1.2992519641       -0.4205274776
	 H           0.3914833024        2.5721830801       -1.0046684915
	 H          -0.3744571297        2.1017672989        2.2040796364
	 C          -0.6324953199        1.2943373110        0.2951295437
	 H          -0.0011463155       -2.4644593003        1.8281294035
	 H          -0.1583220639       -2.3470439882       -1.4983651758
	 C           0.5889547701       -1.3363824566        0.1722765834
	 H           4.2909247324       -3.1764863102       -0.0567951953
	 H           4.3158235022       -0.2631892697        1.6206758181
	 H           4.0907855956       -0.2648367078       -1.7321674865
	 C           3.4747514751       -1.2607800059       -0.0071544954
	            -0.0000124246       -0.0000059679        0.0000004904
	            -0.0000078430        0.0000129449        0.0000015207
	            -0.0000037233        0.0000021944       -0.0000138057
	             0.0006436979        0.0003930906       -0.0023756170
	             0.0000000081       -0.0000166170        0.0000156670
	            -0.0000145551       -0.0000080191        0.0000137775
	            -0.0009336254       -0.0004844536        0.0023212997
	             0.0000115907        0.0000051611        0.0000180564
	            -0.0000032742        0.0000132329        0.0000175560
	             0.0004842636        0.0000512204        0.0025002782
	             0.0000075723       -0.0000137263        0.0000007203
	             0.0000115743        0.0000054883        0.0000038055
	             0.0000052669       -0.0000004583       -0.0000122210
	            -0.0001891006        0.0000453563       -0.0024853911

	---Fragment 1 Intrafragment Coordinates---
	 - Coordinate -           - BOHR/RAD -       - ANG/DEG -
	 R(1,4)           =         2.086247	       1.103994
	 R(2,4)           =         2.082913	       1.102230
	 R(3,4)           =         2.084967	       1.103317
	 R(4,7)           =         2.892355	       1.530568
	 R(5,7)           =         2.090669	       1.106334
	 R(6,7)           =         2.088688	       1.105286
	 R(7,10)          =         2.903054	       1.536230
	 R(8,10)          =         2.088690	       1.105287
	 R(9,10)          =         2.090671	       1.106335
	 R(10,14)         =         2.892358	       1.530570
	 R(11,14)         =         2.082915	       1.102231
	 R(12,14)         =         2.086246	       1.103994
	 R(13,14)         =         2.084963	       1.103315
	 B(1,4,2)         =         1.875920	     107.482273
	 B(1,4,3)         =         1.873419	     107.339008
	 B(1,4,7)         =         1.945862	     111.489685
	 B(2,4,3)         =         1.879513	     107.688150
	 B(2,4,7)         =         1.948077	     111.616572
	 B(3,4,7)         =         1.937577	     111.014965
	 B(4,7,5)         =         1.896194	     108.643892
	 B(4,7,6)         =         1.923228	     110.192830
	 B(4,7,10)        =         1.980930	     113.498939
	 B(5,7,6)         =         1.845671	     105.749168
	 B(5,7,10)        =         1.898100	     108.753101
	 B(6,7,10)        =         1.914532	     109.694578
	 B(7,10,8)        =         1.914529	     109.694431
	 B(7,10,9)        =         1.898103	     108.753265
	 B(7,10,14)       =         1.980929	     113.498863
	 B(8,10,9)        =         1.845673	     105.749294
	 B(8,10,14)       =         1.923226	     110.192723
	 B(9,10,14)       =         1.896195	     108.643953
	 B(10,14,11)      =         1.948074	     111.616428
	 B(10,14,12)      =         1.945859	     111.489484
	 B(10,14,13)      =         1.937572	     111.014682
	 B(11,14,12)      =         1.875922	     107.482422
	 B(11,14,13)      =         1.879516	     107.688348
	 B(12,14,13)      =         1.873425	     107.339333
	 D(1,4,7,5)       =         3.139017	     179.852434
	 D(1,4,7,6)       =        -1.129647	     -64.724032
	 D(1,4,7,10)      =         1.025260	      58.743089
	 D(2,4,7,5)       =        -1.045972	     -59.929787
	 D(2,4,7,6)       =         0.968549	      55.493747
	 D(2,4,7,10)      =         3.123456	     178.960869
	 D(3,4,7,5)       =         1.051125	      60.225010
	 D(3,4,7,6)       =         3.065645	     175.648544
	 D(3,4,7,10)      =        -1.062632	     -60.884334
	 D(4,7,10,8)      =        -1.323875	     -75.852443
	 D(4,7,10,9)      =         0.686970	      39.360490
	 D(4,7,10,14)     =         2.799659	     160.408655
	 D(5,7,10,8)      =         2.846624	     163.099537
	 D(5,7,10,9)      =        -1.425716	     -81.687531
	 D(5,7,10,14)     =         0.686973	      39.360635
	 D(6,7,10,8)      =         0.835782	      47.886765
	 D(6,7,10,9)      =         2.846627	     163.099698
	 D(6,7,10,14)     =        -1.323870	     -75.852137
	 D(7,10,14,11)    =         3.123436	     178.959727
	 D(7,10,14,12)    =         1.025241	      58.741996
	 D(7,10,14,13)    =        -1.062653	     -60.885514
	 D(8,10,14,11)    =         0.968534	      55.492935
	 D(8,10,14,12)    =        -1.129661	     -64.724797
	 D(8,10,14,13)    =         3.065631	     175.647693
	 D(9,10,14,11)    =        -1.045988	     -59.930725
	 D(9,10,14,12)    =         3.139002	     179.851543
	 D(9,10,14,13)    =         1.051108	      60.224033

	Current energy   :      -158.4576502850

	Energy change for the previous step:
		Projected    :         0.0000002009
		Actual       :         0.0000004637

	Performing BFGS update.
	Previous computed or guess Hessian on step 1.
	Steps to be used in Hessian update: 7 6
	Adding user-defined constraint: Fragment 1; Coordinate 49:
		Value =     2.799659; Fixed value    =     2.792530
		Force =    -0.004812; Force constant =     0.675000
	Removing off-diagonal coupling between coordinate 49 and others.
	Taking RFO optimization step.
	Going to follow RFO solution 1.
	Rejecting RFO root 1 because normalization gives large value.
	Using RFO vector 2.

	Determining step-restricting scale parameter for RS-RFO.
	Maximum step size allowed    0.10000

	 Iter      |step|        alpha        rfo_root  
	------------------------------------------------
	    0   206.07317       1.00000           2
	    1   103.06263       1.99954           2
	    2    51.55737       3.99721           2
	    3    25.80475       7.98699           2
	    4    12.92846      15.94432           2
	    5     6.49036      31.77042           2
	    6     3.27140      63.07144           2
	    7     1.66209     124.29281           2
	    8     0.85779     241.40003           2
	    9     0.45635     455.68965           2
	   10     0.25703     814.74130           2
	   11     0.16012    1320.41708           2
	   12     0.11670    1828.70412           2
	   13     0.10215    2099.33911           2
	   14     0.10005    2145.24458           2
	   15     0.10000    2146.26864           2
	------------------------------------------------
	Norm of target step-size    0.10000
	Projected energy change by RFO approximation:        -0.0000145100

	Back-transformation to cartesian coordinates...
	Could not converge backtransformation.
	Using first guess instead.

	--- Internal Coordinate Step in ANG or DEG, aJ/ANG or AJ/DEG ---
	 ---------------------------------------------------------------------------
	   Coordinate                Previous        Force       Change         New 
	   ----------                --------       ------       ------       ------
	    1 R(1,4)          =      1.103994    -0.000089     0.000154     1.104148
	    2 R(2,4)          =      1.102230    -0.000118     0.000088     1.102319
	    3 R(3,4)          =      1.103317    -0.000112     0.000081     1.103398
	    4 R(4,7)          =      1.530568     0.000061     0.000262     1.530830
	    5 R(5,7)          =      1.106334     0.000163     0.000461     1.106796
	    6 R(6,7)          =      1.105286    -0.000059     0.000153     1.105439
	    7 R(7,10)         =      1.536230    -0.000306    -0.000352     1.535878
	    8 R(8,10)         =      1.105287    -0.000064     0.000148     1.105435
	    9 R(9,10)         =      1.106335     0.000158     0.000452     1.106788
	   10 R(10,14)        =      1.530570     0.000058     0.000258     1.530828
	   11 R(11,14)        =      1.102231    -0.000123     0.000085     1.102316
	   12 R(12,14)        =      1.103994    -0.000087     0.000158     1.104152
	   13 R(13,14)        =      1.103315    -0.000101     0.000098     1.103413
	   14 B(1,4,2)        =    107.482273     0.000000     0.018454   107.500727
	   15 B(1,4,3)        =    107.339008     0.000000     0.025131   107.364140
	   16 B(1,4,7)        =    111.489685    -0.000001    -0.050614   111.439071
	   17 B(2,4,3)        =    107.688150     0.000000     0.029292   107.717442
	   18 B(2,4,7)        =    111.616572    -0.000000     0.003749   111.620321
	   19 B(3,4,7)        =    111.014965    -0.000000    -0.021537   110.993428
	   20 B(4,7,5)        =    108.643892    -0.000005    -0.622241   108.021651
	   21 B(4,7,6)        =    110.192830     0.000005     0.774614   110.967443
	   22 B(4,7,10)       =    113.498939    -0.000001    -0.060953   113.437985
	   23 B(5,7,6)        =    105.749168    -0.000000    -0.033208   105.715961
	   24 B(5,7,10)       =    108.753101     0.000001    -0.168844   108.584257
	   25 B(6,7,10)       =    109.694578     0.000000     0.083457   109.778035
	   26 B(7,10,8)       =    109.694431     0.000000     0.085163   109.779593
	   27 B(7,10,9)       =    108.753265     0.000001    -0.170869   108.582396
	   28 B(7,10,14)      =    113.498863    -0.000001    -0.061710   113.437153
	   29 B(8,10,9)       =    105.749294    -0.000000    -0.033707   105.715587
	   30 B(8,10,14)      =    110.192723     0.000005     0.778940   110.971663
	   31 B(9,10,14)      =    108.643953    -0.000005    -0.625222   108.018732
	   32 B(10,14,11)     =    111.616428    -0.000000     0.005044   111.621472
	   33 B(10,14,12)     =    111.489484    -0.000001    -0.049652   111.439832
	   34 B(10,14,13)     =    111.014682     0.000000    -0.019193   110.995490
	   35 B(11,14,12)     =    107.482422     0.000000     0.017626   107.500048
	   36 B(11,14,13)     =    107.688348     0.000000     0.027833   107.716181
	   37 B(12,14,13)     =    107.339333     0.000000     0.022501   107.361834
	   38 D(1,4,7,5)      =    179.852434    -0.000000     0.452921   180.305355
	   39 D(1,4,7,6)      =    -64.724032    -0.000000     0.478868   -64.245164
	   40 D(1,4,7,10)     =     58.743089     0.000001     1.143111    59.886200
	   41 D(2,4,7,5)      =    -59.929787    -0.000000     0.444233   -59.485553
	   42 D(2,4,7,6)      =     55.493747    -0.000000     0.470180    55.963927
	   43 D(2,4,7,10)     =    178.960869     0.000001     1.134422   180.095291
	   44 D(3,4,7,5)      =     60.225010    -0.000000     0.469273    60.694283
	   45 D(3,4,7,6)      =    175.648544    -0.000000     0.495219   176.143763
	   46 D(3,4,7,10)     =    -60.884334     0.000001     1.159462   -59.724873
	   47 D(4,7,10,8)     =    -75.852443    -0.000001     1.056733   -74.795710
	   48 D(4,7,10,9)     =     39.360490    -0.000001     0.967820    40.328310
	   49 D(4,7,10,14)    =    160.408655    -0.000003     0.014310   160.422966
	   50 D(5,7,10,8)     =    163.099537     0.000000     2.004581   165.104117
	   51 D(5,7,10,9)     =    -81.687531     0.000000     1.915668   -79.771863
	   52 D(5,7,10,14)    =     39.360635    -0.000001     0.962158    40.322793
	   53 D(6,7,10,8)     =     47.886765     0.000000     2.092697    49.979462
	   54 D(6,7,10,9)     =    163.099698     0.000000     2.003784   165.103482
	   55 D(6,7,10,14)    =    -75.852137    -0.000001     1.050274   -74.801863
	   56 D(7,10,14,11)   =    178.959727     0.000001     1.140806   180.100533
	   57 D(7,10,14,12)   =     58.741996     0.000001     1.149001    59.890997
	   58 D(7,10,14,13)   =    -60.885514     0.000001     1.166464   -59.719050
	   59 D(8,10,14,11)   =     55.492935    -0.000000     0.471489    55.964424
	   60 D(8,10,14,12)   =    -64.724797    -0.000000     0.479685   -64.245112
	   61 D(8,10,14,13)   =    175.647693    -0.000000     0.497148   176.144841
	   62 D(9,10,14,11)   =    -59.930725    -0.000000     0.445519   -59.485207
	   63 D(9,10,14,12)   =    179.851543    -0.000000     0.453714   180.305257
	   64 D(9,10,14,13)   =     60.224033    -0.000000     0.471177    60.695211
	 ---------------------------------------------------------------------------
	 Forces used to impose fixed constraints are not included.
	  Forces zeroed: 49 

  ==> Convergence Check <==

  Measures of convergence in internal coordinates in au.
  Criteria marked as inactive (o), active & met (*), and active & unmet ( ).
  ---------------------------------------------------------------------------------------------
   Step     Total Energy     Delta E     MAX Force     RMS Force      MAX Disp      RMS Disp   
  ---------------------------------------------------------------------------------------------
    Convergence Criteria    1.00e-06 *    3.00e-04 *             o    1.20e-03 *             o
  ---------------------------------------------------------------------------------------------
      8    -158.45765028    4.64e-07 *    6.96e-05 *    2.76e-05 o    3.65e-02      1.25e-02 o  ~
  ---------------------------------------------------------------------------------------------


  **** Optimization is complete! (in 8 steps) ****

  ==> Optimization Summary <==

  Measures of convergence in internal coordinates in au.
  --------------------------------------------------------------------------------------------------------------- ~
   Step         Total Energy             Delta E       MAX Force       RMS Force        MAX Disp        RMS Disp  ~
  --------------------------------------------------------------------------------------------------------------- ~
      1    -158.447908360192   -158.447908360192      0.02393498      0.00962996      0.02980908      0.01250326  ~
      2    -158.453795124917     -0.005886764725      0.01245962      0.00521450      0.02459365      0.01252230  ~
      3    -158.456535320715     -0.002740195798      0.00404867      0.00195853      0.04069515      0.01250991  ~
      4    -158.457385656087     -0.000850335372      0.00160454      0.00062028      0.04667372      0.01252164  ~
      5    -158.457621920515     -0.000236264428      0.00069366      0.00017860      0.02524643      0.01137078  ~
      6    -158.457652845684     -0.000030925169      0.00015488      0.00004416      0.00345507      0.00156726  ~
      7    -158.457650748685      0.000002096999      0.00008573      0.00002210      0.00168385      0.00082437  ~
      8    -158.457650284952      0.000000463734      0.00015007      0.00003334      0.03652446      0.01249747  ~
  --------------------------------------------------------------------------------------------------------------- ~

	Writing optimization data to binary file.
	Final energy is   -158.4576502849516
	Final (previous) structure:
	Cartesian Geometry (in Angstrom)
	    H    -2.4042997957   0.0229733468   0.4355198906
	    H    -2.2540955680   1.6969173905  -0.1477277106
	    H    -1.9621644702   0.3357566180  -1.2582382014
	    C    -1.8176761941   0.6875345276  -0.2225335567
	    H     0.2071640412   1.3611406623  -0.5316476679
	    H    -0.1981541786   1.1122073523   1.1663487095
	    C    -0.3347021078   0.6849338052   0.1561758281
	    H    -0.0006066041  -1.3041356932   0.9674044147
	    H    -0.0837804278  -1.2420021861  -0.7929007012
	    C     0.3116614412  -0.7071831380   0.0911648415
	    H     2.2706595722  -1.6809241588  -0.0300547229
	    H     2.2838354336  -0.1392737631   0.8576247055
	    H     2.1647505024  -0.1401455498  -0.9166235553
	    C     1.8387592861  -0.6671760441  -0.0037859959
	Saving final (previous) structure.
			--------------------------
			 OPTKING Finished Execution 
			--------------------------

    Final optimized geometry and variables:
    Molecular point group: c1
    Full point group: C1

    Geometry (in Angstrom), charge = 0, multiplicity = 1:

    H           -2.404299795747     0.022973346809     0.435519890610
    H           -2.254095568008     1.696917390497    -0.147727710604
    H           -1.962164470239     0.335756618003    -1.258238201414
    C           -1.817676194053     0.687534527634    -0.222533556709
    H            0.207164041163     1.361140662293    -0.531647667908
    H           -0.198154178613     1.112207352336     1.166348709505
    C           -0.334702107845     0.684933805194     0.156175828118
    H           -0.000606604061    -1.304135693243     0.967404414680
    H           -0.083780427809    -1.242002186132    -0.792900701160
    C            0.311661441207    -0.707183138006     0.091164841497
    H            2.270659572166    -1.680924158762    -0.030054722916
    H            2.283835433650    -0.139273763052     0.857624705464
    H            2.164750502437    -0.140145549754    -0.916623555290
    C            1.838759286129    -0.667176044148    -0.003785995891

	Cleaning optimization helper files.

*** Psi4 exiting successfully. Buy a developer a beer!
