    -----------------------------------------------------------------------
          Psi4: An Open-Source Ab Initio Electronic Structure Package
                              Psi4 1.0.0 Driver

                          Git: Rev {master} 6a9a71b 

    J. M. Turney, A. C. Simmonett, R. M. Parrish, E. G. Hohenstein,
    F. A. Evangelista, J. T. Fermann, B. J. Mintz, L. A. Burns, J. J. Wilke,
    M. L. Abrams, N. J. Russ, M. L. Leininger, C. L. Janssen, E. T. Seidl,
    W. D. Allen, H. F. Schaefer, R. A. King, E. F. Valeev, C. D. Sherrill,
    and T. D. Crawford, WIREs Comput. Mol. Sci. 2, 556-565 (2012)
    (doi: 10.1002/wcms.93)

                         Additional Contributions by
    A. E. DePrince, U. Bozkaya, A. Yu. Sokolov, D. G. A. Smith, R. Di Remigio,
    R. M. Richard, J. F. Gonthier, H. R. McAlexander, M. Saitow, and
    B. P. Pritchard
    -----------------------------------------------------------------------


    Psi4 started on: Thu Feb 16 16:26:35 2017

    Process ID:   1556
    PSI4DATADIR: /Users/sternc1/anaconda/share/psi4
    Memory level set to 256.000 MB

  ==> Input File <==

--------------------------------------------------------------------------

memory 1000 mb

molecule butane {
  symmetry C1
  0 1 
  H      1.604   0.760   -8.260
  H      1.745   2.388   -8.880
  H      2.043   1.024   -9.930
  C      2.142   1.395   -8.932
  H      4.169   2.051   -9.210
  H      3.731   1.788   -7.539
  C      3.631   1.416   -8.537
  H      3.428   -0.718   -8.400
  H      4.589   -0.191   -9.593
  C      4.203   -0.012   -8.612
  H      5.732   -1.159   -7.632
  H      4.949   0.011   -6.598
  H      6.111   0.539   -7.791
  C      5.335   -0.167   -7.580
  units Angstrom
}

dih_string = "4 7 10 14 210"
set optking fixed_dihedral = $dih_string

optimize('MP2/6-31G(d)')
--------------------------------------------------------------------------

  Memory set to 1000.000 MiB by Python script.
gradient() will perform analytic gradient computation.
    SCF Algorithm Type (re)set to DF.

*** tstart() called on lski1497
*** at Thu Feb 16 16:26:36 2017


         ---------------------------------------------------------
                                   SCF
            by Justin Turney, Rob Parrish, and Andy Simmonett
                              RHF Reference
                        1 Threads,   1000 MiB Core
         ---------------------------------------------------------

  ==> Geometry <==

    Molecular point group: c1
    Full point group: C1

    Geometry (in Angstrom), charge = 0, multiplicity = 1:

       Center              X                  Y                   Z               Mass       
    ------------   -----------------  -----------------  -----------------  -----------------
           H         -2.220687216304     0.103509700745     0.149705754160     1.007825032070
           H         -2.079687216304     1.731509700745    -0.470294245840     1.007825032070
           H         -1.781687216304     0.367509700745    -1.520294245840     1.007825032070
           C         -1.682687216304     0.738509700745    -0.522294245840    12.000000000000
           H          0.344312783696     1.394509700745    -0.800294245840     1.007825032070
           H         -0.093687216304     1.131509700745     0.870705754160     1.007825032070
           C         -0.193687216304     0.759509700745    -0.127294245840    12.000000000000
           H         -0.396687216304    -1.374490299255     0.009705754160     1.007825032070
           H          0.764312783696    -0.847490299255    -1.183294245840     1.007825032070
           C          0.378312783696    -0.668490299255    -0.202294245840    12.000000000000
           H          1.907312783696    -1.815490299255     0.777705754160     1.007825032070
           H          1.124312783696    -0.645490299255     1.811705754160     1.007825032070
           H          2.286312783696    -0.117490299255     0.618705754160     1.007825032070
           C          1.510312783696    -0.823490299255     0.829705754160    12.000000000000

  Running in c1 symmetry.

  Rotational constants: A =      0.71027  B =      0.12637  C =      0.11998 [cm^-1]
  Rotational constants: A =  21293.24900  B =   3788.42860  C =   3596.97450 [MHz]
  Nuclear repulsion =  132.015012572198884

  Charge       = 0
  Multiplicity = 1
  Electrons    = 34
  Nalpha       = 17
  Nbeta        = 17

  ==> Algorithm <==

  SCF Algorithm Type is DF.
  DIIS enabled.
  MOM disabled.
  Fractional occupation disabled.
  Guess Type is SAD.
  Energy threshold   = 1.00e-10
  Density threshold  = 1.00e-10
  Integral threshold = 0.00e+00

  ==> Primary Basis <==

  Basis Set: 6-31G(D)
    Number of shells: 44
    Number of basis function: 80
    Number of Cartesian functions: 80
    Spherical Harmonics?: false
    Max angular momentum: 2

  ==> Pre-Iterations <==

   -------------------------------------------------------
    Irrep   Nso     Nmo     Nalpha   Nbeta   Ndocc  Nsocc
   -------------------------------------------------------
     A         80      80       0       0       0       0
   -------------------------------------------------------
    Total      80      80      17      17      17       0
   -------------------------------------------------------

  ==> Integral Setup <==

  ==> DFJK: Density-Fitted J/K Matrices <==

    J tasked:                  Yes
    K tasked:                  Yes
    wK tasked:                  No
    OpenMP threads:              1
    Integrals threads:           1
    Memory (MB):               715
    Algorithm:                Core
    Integral Cache:           NONE
    Schwarz Cutoff:          1E-12
    Fitting Condition:       1E-12

   => Auxiliary Basis Set <=

  Basis Set: 
    Number of shells: 186
    Number of basis function: 574
    Number of Cartesian functions: 574
    Spherical Harmonics?: false
    Max angular momentum: 3

  Minimum eigenvalue in the overlap matrix is 4.5454932187E-03.
  Using Symmetric Orthogonalization.
  SCF Guess: Superposition of Atomic Densities via on-the-fly atomic UHF.

  ==> Iterations <==

                           Total Energy        Delta E     RMS |[F,P]|

   @DF-RHF iter   0:  -158.98578168709105   -1.58986e+02   4.75197e-02 
   @DF-RHF iter   1:  -157.20265221643058    1.78313e+00   3.97182e-03 
   @DF-RHF iter   2:  -157.28292746700993   -8.02753e-02   1.08644e-03 DIIS
   @DF-RHF iter   3:  -157.29058539619774   -7.65793e-03   2.51475e-04 DIIS
   @DF-RHF iter   4:  -157.29094917479199   -3.63779e-04   7.61951e-05 DIIS
   @DF-RHF iter   5:  -157.29098377454989   -3.45998e-05   1.35035e-05 DIIS
   @DF-RHF iter   6:  -157.29098511835730   -1.34381e-06   2.56506e-06 DIIS
   @DF-RHF iter   7:  -157.29098515014022   -3.17829e-08   7.35153e-07 DIIS
   @DF-RHF iter   8:  -157.29098515295402   -2.81381e-09   1.13532e-07 DIIS
   @DF-RHF iter   9:  -157.29098515306163   -1.07605e-10   2.50547e-08 DIIS
   @DF-RHF iter  10:  -157.29098515306731   -5.68434e-12   4.72454e-09 DIIS
   @DF-RHF iter  11:  -157.29098515306737   -5.68434e-14   1.31278e-09 DIIS
   @DF-RHF iter  12:  -157.29098515306737    0.00000e+00   3.11953e-10 DIIS
   @DF-RHF iter  13:  -157.29098515306708    2.84217e-13   6.57336e-11 DIIS

  ==> Post-Iterations <==

    Orbital Energies (a.u.)
    -----------------------

    Doubly Occupied:                                                      

       1A    -11.207150     2A    -11.206543     3A    -11.200394  
       4A    -11.200320     5A     -1.071054     6A     -0.980922  
       7A     -0.862388     8A     -0.794613     9A     -0.645293  
      10A     -0.587697    11A     -0.586570    12A     -0.562551  
      13A     -0.513550    14A     -0.506917    15A     -0.471245  
      16A     -0.469018    17A     -0.441045  

    Virtual:                                                              

      18A      0.234458    19A      0.267228    20A      0.291190  
      21A      0.299789    22A      0.326460    23A      0.336969  
      24A      0.337017    25A      0.348487    26A      0.352120  
      27A      0.357216    28A      0.419067    29A      0.437843  
      30A      0.440568    31A      0.702417    32A      0.718463  
      33A      0.744751    34A      0.758027    35A      0.775284  
      36A      0.844915    37A      0.847477    38A      0.932389  
      39A      0.948240    40A      1.013467    41A      1.076325  
      42A      1.078296    43A      1.163261    44A      1.193512  
      45A      1.198605    46A      1.208323    47A      1.215845  
      48A      1.222285    49A      1.246173    50A      1.256180  
      51A      1.263426    52A      1.288779    53A      1.293452  
      54A      1.542746    55A      1.652400    56A      1.724446  
      57A      1.753925    58A      1.928032    59A      1.950075  
      60A      2.132296    61A      2.195423    62A      2.227718  
      63A      2.292874    64A      2.316099    65A      2.333566  
      66A      2.427572    67A      2.536845    68A      2.635072  
      69A      2.656082    70A      2.677193    71A      2.727997  
      72A      2.752330    73A      2.774506    74A      2.887505  
      75A      3.011607    76A      3.105208    77A      4.578515  
      78A      4.675360    79A      4.800555    80A      4.962633  

    Final Occupation by Irrep:
              A 
    DOCC [    17 ]

  Energy converged.

  @DF-RHF Final Energy:  -157.29098515306708

   => Energetics <=

    Nuclear Repulsion Energy =            132.0150125721988843
    One-Electron Energy =                -471.9974582677054400
    Two-Electron Energy =                 182.6914605424393017
    DFT Exchange-Correlation Energy =       0.0000000000000000
    Empirical Dispersion Energy =           0.0000000000000000
    PCM Polarization Energy =               0.0000000000000000
    EFP Energy =                            0.0000000000000000
    Total Energy =                       -157.2909851530672540


  Saving occupied orbitals to File 180.

*** tstop() called on lski1497 at Thu Feb 16 16:26:43 2017
Module time:
	user time   =       5.69 seconds =       0.09 minutes
	system time =       0.19 seconds =       0.00 minutes
	total time  =          7 seconds =       0.12 minutes
Total time:
	user time   =       5.69 seconds =       0.09 minutes
	system time =       0.19 seconds =       0.00 minutes
	total time  =          7 seconds =       0.12 minutes


Properties will be evaluated at   0.000000,   0.000000,   0.000000 Bohr

Properties computed using the SCF density matrix

  Nuclear Dipole Moment: (a.u.)
     X:    -0.1368      Y:    -0.0674      Z:     0.2475

  Electronic Dipole Moment: (a.u.)
     X:     0.1470      Y:     0.0717      Z:    -0.2662

  Dipole Moment: (a.u.)
     X:     0.0103      Y:     0.0043      Z:    -0.0187     Total:     0.0218

  Dipole Moment: (Debye)
     X:     0.0261      Y:     0.0110      Z:    -0.0475     Total:     0.0553


  //>>>>>>>>>>>>>>>>>>>>>>>>>>>>>>>>>>>//
  //               DFMP2               //
  //<<<<<<<<<<<<<<<<<<<<<<<<<<<<<<<<<<<//


*** tstart() called on lski1497
*** at Thu Feb 16 16:26:43 2017


*** tstop() called on lski1497 at Thu Feb 16 16:26:44 2017
Module time:
	user time   =       0.61 seconds =       0.01 minutes
	system time =       0.00 seconds =       0.00 minutes
	total time  =          1 seconds =       0.02 minutes
Total time:
	user time   =       6.32 seconds =       0.11 minutes
	system time =       0.19 seconds =       0.00 minutes
	total time  =          8 seconds =       0.13 minutes
	 --------------------------------------------------------
	                          DF-MP2                         
	      2nd-Order Density-Fitted Moller-Plesset Theory     
	              RMP2 Wavefunction,   1 Threads             
	                                                         
	        Rob Parrish, Justin Turney, Andy Simmonett,      
	           Ed Hohenstein, and C. David Sherrill          
	 --------------------------------------------------------

   => Auxiliary Basis Set <=

  Basis Set: 
    Number of shells: 132
    Number of basis function: 364
    Number of Cartesian functions: 414
    Spherical Harmonics?: true
    Max angular momentum: 3

	 --------------------------------------------------------
	                 NBF =    80, NAUX =   364
	 --------------------------------------------------------
	   CLASS    FOCC     OCC    AOCC    AVIR     VIR    FVIR
	   PAIRS       0      17      17      63      63       0
	 --------------------------------------------------------

DGAS Warning! /src/lib/libfock/apps.cc:80 is not currently checking restricted

         ------------------------------------------------------------
                                     CPHF                           
                                  Rob Parrish                       
         ------------------------------------------------------------

  ==> Geometry <==

    Molecular point group: c1
    Full point group: C1

    Geometry (in Angstrom), charge = 0, multiplicity = 1:

       Center              X                  Y                   Z               Mass       
    ------------   -----------------  -----------------  -----------------  -----------------
           H         -2.220687216304     0.103509700745     0.149705754160     1.007825032070
           H         -2.079687216304     1.731509700745    -0.470294245840     1.007825032070
           H         -1.781687216304     0.367509700745    -1.520294245840     1.007825032070
           C         -1.682687216304     0.738509700745    -0.522294245840    12.000000000000
           H          0.344312783696     1.394509700745    -0.800294245840     1.007825032070
           H         -0.093687216304     1.131509700745     0.870705754160     1.007825032070
           C         -0.193687216304     0.759509700745    -0.127294245840    12.000000000000
           H         -0.396687216304    -1.374490299255     0.009705754160     1.007825032070
           H          0.764312783696    -0.847490299255    -1.183294245840     1.007825032070
           C          0.378312783696    -0.668490299255    -0.202294245840    12.000000000000
           H          1.907312783696    -1.815490299255     0.777705754160     1.007825032070
           H          1.124312783696    -0.645490299255     1.811705754160     1.007825032070
           H          2.286312783696    -0.117490299255     0.618705754160     1.007825032070
           C          1.510312783696    -0.823490299255     0.829705754160    12.000000000000

  Nuclear repulsion =  132.015012572198884
  Reference energy  = -157.290985153067084

  ==> Basis Set <==

  Basis Set: 6-31G(D)
    Number of shells: 44
    Number of basis function: 80
    Number of Cartesian functions: 80
    Spherical Harmonics?: false
    Max angular momentum: 2

  ==> CGRSolver (by Rob Parrish) <==

   Number of roots    =         1
   Preconditioning    =    JACOBI
   Convergence cutoff =     1E-06
   Maximum iterations =       100

  ==> CPHFRHamiltonian (by Rob Parrish) <== 

  ==> DFJK: Density-Fitted J/K Matrices <==

    J tasked:                  Yes
    K tasked:                  Yes
    wK tasked:                  No
    OpenMP threads:              1
    Integrals threads:           1
    Memory (MB):               715
    Algorithm:                Core
    Integral Cache:           NONE
    Schwarz Cutoff:          1E-12
    Fitting Condition:       1E-12

   => Auxiliary Basis Set <=

  Basis Set: 
    Number of shells: 186
    Number of basis function: 574
    Number of Cartesian functions: 574
    Spherical Harmonics?: false
    Max angular momentum: 3

  ==> CPHF Iterations <==

  => Iterations <=

             Iter  Converged  Remaining    Residual
  CGR           1          0          1   7.279E-02
  CGR           2          0          1   8.776E-03
  CGR           3          0          1   2.763E-03
  CGR           4          0          1   3.773E-04
  CGR           5          0          1   6.641E-05
  CGR           6          0          1   1.588E-05
  CGR           7          0          1   3.040E-06
  CGR           8          1          0   5.909E-07

    CGRSolver converged.

  ==> DFCorrGrad: Density-Fitted Correlated Gradients <==

    OpenMP threads:              1
    Integrals threads:           1
    Memory (MB):               715
    Schwarz Cutoff:          0E+00
    Fitting Condition:       1E-12

   => Auxiliary Basis Set <=

  Basis Set: 
    Number of shells: 186
    Number of basis function: 510
    Number of Cartesian functions: 574
    Spherical Harmonics?: true
    Max angular momentum: 3

	-----------------------------------------------------------
	 ==================> DF-MP2 Energies <==================== 
	-----------------------------------------------------------
	 Reference Energy          =    -157.2909851530670835 [Eh]
	 Singles Energy            =      -0.0000000000000000 [Eh]
	 Same-Spin Energy          =      -0.1243866664766649 [Eh]
	 Opposite-Spin Energy      =      -0.4202717941039690 [Eh]
	 Correlation Energy        =      -0.5446584605806338 [Eh]
	 Total Energy              =    -157.8356436136477043 [Eh]
	-----------------------------------------------------------
	 ================> DF-SCS-MP2 Energies <================== 
	-----------------------------------------------------------
	 SCS Same-Spin Scale       =       0.3333333333333333 [-]
	 SCS Opposite-Spin Scale   =       1.2000000000000000 [-]
	 SCS Same-Spin Energy      =      -0.0414622221588883 [Eh]
	 SCS Opposite-Spin Energy  =      -0.5043261529247628 [Eh]
	 SCS Correlation Energy    =      -0.5457883750836511 [Eh]
	 SCS Total Energy          =    -157.8367735281507294 [Eh]
	-----------------------------------------------------------


  -Total Gradient:
     Atom            X                  Y                   Z
    ------   -----------------  -----------------  -----------------
       1        0.010359452592     0.009117856004    -0.009105347197
       2        0.010513910061    -0.013736353219     0.000857912716
       3        0.004401639873     0.005889302251     0.015593913059
       4       -0.027489319887    -0.008644436265    -0.007259170286
       5       -0.010051994885    -0.012742672272     0.007106227546
       6       -0.002237712250    -0.008318770299    -0.015385185090
       7        0.023124969689     0.029554032605     0.013409656336
       8        0.011927446651     0.013102891808    -0.001687016526
       9       -0.003262384932     0.006299328285     0.017037234333
      10       -0.016411894361    -0.026625149595    -0.024945750099
      11       -0.009843873554     0.014868910039    -0.002530719139
      12        0.003594372787    -0.002166777198    -0.015749485213
      13       -0.013228851538    -0.010057081207     0.000942208983
      14        0.018604239755     0.003458919061     0.021715520577


			-----------------------------------------
			 OPTKING 2.0: for geometry optimizations 
			  - R.A. King,  Bethel University        
			-----------------------------------------

	Previous internal coordinate definitions found.
	---Fragment 1 Geometry and Gradient---
	 H          -4.1964906656        0.1956049865        0.2829028759
	 H          -3.9300392809        3.2720791308       -0.8887273265
	 H          -3.3669008933        0.6944926856       -2.8729397660
	 C          -3.1798180061        1.3955810809       -0.9869930854
	 H           0.6506568652        2.6352414241       -1.5123369504
	 H          -0.1770431810        2.1382434511        1.6453954177
	 C          -0.3660157943        1.4352653297       -0.2405512629
	 H          -0.7496301992       -2.5974102379        0.0183412173
	 H           1.4443418410       -1.6015245659       -2.2361020593
	 C           0.7149075538       -1.2632635881       -0.3822807229
	 H           3.6042988109       -3.4307794625        1.4696508873
	 H           2.1246432489       -1.2197998870        3.4236277087
	 H           4.3205050153       -0.2220244889        1.1691844322
	 C           2.8540775362       -1.5561711387        1.5679166462
	             0.0103594526        0.0091178560       -0.0091053472
	             0.0105139101       -0.0137363532        0.0008579127
	             0.0044016399        0.0058893023        0.0155939131
	            -0.0274893199       -0.0086444363       -0.0072591703
	            -0.0100519949       -0.0127426723        0.0071062275
	            -0.0022377122       -0.0083187703       -0.0153851851
	             0.0231249697        0.0295540326        0.0134096563
	             0.0119274467        0.0131028918       -0.0016870165
	            -0.0032623849        0.0062993283        0.0170372343
	            -0.0164118944       -0.0266251496       -0.0249457501
	            -0.0098438736        0.0148689100       -0.0025307191
	             0.0035943728       -0.0021667772       -0.0157494852
	            -0.0132288515       -0.0100570812        0.0009422090
	             0.0186042398        0.0034589191        0.0217155206

	Previous optimization step data not found.  Starting new optimization.

	---Fragment 1 Intrafragment Coordinates---
	 - Coordinate -           - BOHR/RAD -       - ANG/DEG -
	 R(1,4)           =         2.021436	       1.069698
	 R(2,4)           =         2.023298	       1.070683
	 R(3,4)           =         2.020723	       1.069320
	 R(4,7)           =         2.911397	       1.540645
	 R(5,7)           =         2.022623	       1.070326
	 R(6,7)           =         2.021555	       1.069761
	 R(7,10)          =         2.910419	       1.540128
	 R(8,10)          =         2.021216	       1.069582
	 R(9,10)          =         2.020680	       1.069298
	 R(10,14)         =         2.909487	       1.539634
	 R(11,14)         =         2.021545	       1.069756
	 R(12,14)         =         2.022099	       1.070049
	 R(13,14)         =         2.022213	       1.070109
	 B(1,4,2)         =         1.910870	     109.484805
	 B(1,4,3)         =         1.911121	     109.499161
	 B(1,4,7)         =         1.910399	     109.457783
	 B(2,4,3)         =         1.910042	     109.437340
	 B(2,4,7)         =         1.910564	     109.467262
	 B(3,4,7)         =         1.910803	     109.480971
	 B(4,7,5)         =         1.909937	     109.431343
	 B(4,7,6)         =         1.911630	     109.528316
	 B(4,7,10)        =         1.911154	     109.501062
	 B(5,7,6)         =         1.910605	     109.469614
	 B(5,7,10)        =         1.910047	     109.437654
	 B(6,7,10)        =         1.910425	     109.459295
	 B(7,10,8)        =         1.910550	     109.466446
	 B(7,10,9)        =         1.911295	     109.509133
	 B(7,10,14)       =         1.911095	     109.497698
	 B(8,10,9)        =         1.910183	     109.445408
	 B(8,10,14)       =         1.910739	     109.477293
	 B(9,10,14)       =         1.909937	     109.431329
	 B(10,14,11)      =         1.910948	     109.489275
	 B(10,14,12)      =         1.910454	     109.460926
	 B(10,14,13)      =         1.911958	     109.547148
	 B(11,14,12)      =         1.910002	     109.435045
	 B(11,14,13)      =         1.910377	     109.456517
	 B(12,14,13)      =         1.910059	     109.438346
	 D(1,4,7,5)       =         3.140997	     179.965873
	 D(1,4,7,6)       =        -1.047644	     -60.025575
	 D(1,4,7,10)      =         1.047427	      60.013132
	 D(2,4,7,5)       =        -1.047689	     -60.028143
	 D(2,4,7,6)       =         1.046856	      59.980409
	 D(2,4,7,10)      =        -3.141259	    -179.980883
	 D(3,4,7,5)       =         1.046044	      59.933911
	 D(3,4,7,6)       =         3.140588	     179.942463
	 D(3,4,7,10)      =        -1.047526	     -60.018830
	 D(4,7,10,8)      =        -0.523509	     -29.994864
	 D(4,7,10,9)      =         1.570688	      89.993813
	 D(4,7,10,14)     =        -2.618266	    -150.015596
	 D(5,7,10,8)      =        -2.617012	    -149.943739
	 D(5,7,10,9)      =        -0.522814	     -29.955062
	 D(5,7,10,14)     =         1.571416	      90.035529
	 D(6,7,10,8)      =         1.572298	      90.086062
	 D(6,7,10,9)      =        -2.616689	    -149.925261
	 D(6,7,10,14)     =        -0.522459	     -29.934670
	 D(7,10,14,11)    =         3.141290	     179.982653
	 D(7,10,14,12)    =         1.047585	      60.022208
	 D(7,10,14,13)    =        -1.046809	     -59.977723
	 D(8,10,14,11)    =         1.046649	      59.968559
	 D(8,10,14,12)    =        -1.047056	     -59.991886
	 D(8,10,14,13)    =        -3.141450	    -179.991818
	 D(9,10,14,11)    =        -1.046833	     -59.979141
	 D(9,10,14,12)    =        -3.140538	    -179.939586
	 D(9,10,14,13)    =         1.048253	      60.060482

	Current energy   :      -157.8356436136

	Generating empirical Hessian (Schlegel '84) for each fragment.
	Adding user-defined constraint: Fragment 1; Coordinate 49:
		Value =    -2.618266; Fixed value    =    -2.617990
		Force =     0.000138; Force constant =     0.500000
	Removing off-diagonal coupling between coordinate 49 and others.
	Taking RFO optimization step.
	Going to follow RFO solution 1.
	Using RFO vector 1.

	Determining step-restricting scale parameter for RS-RFO.
	Maximum step size allowed    0.10000

	 Iter      |step|        alpha        rfo_root  
	------------------------------------------------
	    0     0.23986       1.00000           1
	    1     0.18101       4.93525           1
	    2     0.13813      15.49386           1
	    3     0.11263      31.58816           1
	    4     0.10206      43.10417           1
	    5     0.10007      45.77347           1
	    6     0.10000      45.87061           1
	------------------------------------------------
	Norm of target step-size    0.10000
	Projected energy change by RFO approximation:        -0.0061467542

	Back-transformation to cartesian coordinates...
	Successfully converged to displaced geometry.

	--- Internal Coordinate Step in ANG or DEG, aJ/ANG or AJ/DEG ---
	 ---------------------------------------------------------------------------
	   Coordinate                Previous        Force       Change         New 
	   ----------                --------       ------       ------       ------
	    1 R(1,4)          =      1.069698     0.134646     0.013606     1.083304
	    2 R(2,4)          =      1.070683     0.136733     0.013844     1.084527
	    3 R(3,4)          =      1.069320     0.140098     0.014146     1.083467
	    4 R(4,7)          =      1.540645    -0.018273    -0.002143     1.538502
	    5 R(5,7)          =      1.070326     0.140724     0.014238     1.084564
	    6 R(6,7)          =      1.069761     0.143807     0.014534     1.084294
	    7 R(7,10)         =      1.540128     0.015734     0.001844     1.541972
	    8 R(8,10)         =      1.069582     0.145212     0.014670     1.084252
	    9 R(9,10)         =      1.069298     0.147164     0.014859     1.084157
	   10 R(10,14)        =      1.539634    -0.013815    -0.001618     1.538016
	   11 R(11,14)        =      1.069756     0.142680     0.014420     1.084175
	   12 R(12,14)        =      1.070049     0.132731     0.013422     1.083470
	   13 R(13,14)        =      1.070109     0.135231     0.013676     1.083785
	   14 B(1,4,2)        =    109.484805    -0.000285    -0.505927   108.978878
	   15 B(1,4,3)        =    109.499161    -0.000206    -0.389474   109.109687
	   16 B(1,4,7)        =    109.457783     0.000139     0.243351   109.701134
	   17 B(2,4,3)        =    109.437340    -0.000299    -0.525552   108.911788
	   18 B(2,4,7)        =    109.467262     0.000470     0.847869   110.315131
	   19 B(3,4,7)        =    109.480971     0.000182     0.317759   109.798731
	   20 B(4,7,5)        =    109.431343    -0.000203    -0.270974   109.160368
	   21 B(4,7,6)        =    109.528316    -0.000200    -0.316597   109.211719
	   22 B(4,7,10)       =    109.501062     0.000772     1.264655   110.765717
	   23 B(5,7,6)        =    109.469614    -0.000022    -0.217683   109.251931
	   24 B(5,7,10)       =    109.437654    -0.000178    -0.245073   109.192582
	   25 B(6,7,10)       =    109.459295    -0.000169    -0.222222   109.237072
	   26 B(7,10,8)       =    109.466446    -0.000171    -0.226595   109.239851
	   27 B(7,10,9)       =    109.509133    -0.000187    -0.263714   109.245418
	   28 B(7,10,14)      =    109.497698     0.000777     1.271783   110.769481
	   29 B(8,10,9)       =    109.445408    -0.000020    -0.213151   109.232258
	   30 B(8,10,14)      =    109.477293    -0.000198    -0.310175   109.167118
	   31 B(9,10,14)      =    109.431329    -0.000202    -0.266498   109.164831
	   32 B(10,14,11)     =    109.489275     0.000469     0.846338   110.335614
	   33 B(10,14,12)     =    109.460926     0.000139     0.243730   109.704656
	   34 B(10,14,13)     =    109.547148     0.000173     0.301274   109.848422
	   35 B(11,14,12)     =    109.435045    -0.000281    -0.497637   108.937408
	   36 B(11,14,13)     =    109.456517    -0.000299    -0.527270   108.929247
	   37 B(12,14,13)     =    109.438346    -0.000201    -0.379838   109.058508
	   38 D(1,4,7,5)      =    179.965873     0.000027     0.278876   180.244749
	   39 D(1,4,7,6)      =    -60.025575    -0.000036    -0.341530   -60.367105
	   40 D(1,4,7,10)     =     60.013132    -0.000002    -0.030260    59.982873
	   41 D(2,4,7,5)      =    -60.028143     0.000033     0.333514   -59.694629
	   42 D(2,4,7,6)      =     59.980409    -0.000030    -0.286892    59.693518
	   43 D(2,4,7,10)     =   -179.980883     0.000003     0.024378  -179.956505
	   44 D(3,4,7,5)      =     59.933911     0.000040     0.411039    60.344950
	   45 D(3,4,7,6)      =    179.942463    -0.000023    -0.209366   179.733096
	   46 D(3,4,7,10)     =    -60.018830     0.000011     0.101904   -59.916926
	   47 D(4,7,10,8)     =    -29.994864     0.000014     0.139777   -29.855086
	   48 D(4,7,10,9)     =     89.993813    -0.000042    -0.417140    89.576673
	   49 D(4,7,10,14)    =   -150.015596    -0.000016    -0.123238  -150.138834
	   50 D(5,7,10,8)     =   -149.943739    -0.000012    -0.154015  -150.097754
	   51 D(5,7,10,9)     =    -29.955062    -0.000068    -0.710933   -30.665995
	   52 D(5,7,10,14)    =     90.035529    -0.000042    -0.417030    89.618498
	   53 D(6,7,10,8)     =     90.086062     0.000042     0.393725    90.479787
	   54 D(6,7,10,9)     =   -149.925261    -0.000013    -0.163192  -150.088454
	   55 D(6,7,10,14)    =    -29.934670     0.000013     0.130710   -29.803960
	   56 D(7,10,14,11)   =    179.982653     0.000004     0.036564   180.019217
	   57 D(7,10,14,12)   =     60.022208    -0.000002    -0.027390    59.994818
	   58 D(7,10,14,13)   =    -59.977723     0.000011     0.102720   -59.875003
	   59 D(8,10,14,11)   =     59.968559    -0.000029    -0.276433    59.692126
	   60 D(8,10,14,12)   =    -59.991886    -0.000035    -0.340387   -60.332273
	   61 D(8,10,14,13)   =   -179.991818    -0.000023    -0.210276  -180.202094
	   62 D(9,10,14,11)   =    -59.979141     0.000032     0.330874   -59.648267
	   63 D(9,10,14,12)   =   -179.939586     0.000026     0.266920  -179.672666
	   64 D(9,10,14,13)   =     60.060482     0.000039     0.397031    60.457513
	 ---------------------------------------------------------------------------
	 Forces used to impose fixed constraints are not included.
	  Forces zeroed: 49 

  ==> Convergence Check <==

  Measures of convergence in internal coordinates in au.
  Criteria marked as inactive (o), active & met (*), and active & unmet ( ).
  --------------------------------------------------------------------------------------------- ~
   Step     Total Energy     Delta E     MAX Force     RMS Force      MAX Disp      RMS Disp    ~
  --------------------------------------------------------------------------------------------- ~
    Convergence Criteria    1.00e-06 *    3.00e-04 *             o    1.20e-03 *             o  ~
  --------------------------------------------------------------------------------------------- ~
      1    -157.83564361   -1.58e+02      1.79e-02      7.28e-03 o    2.81e-02      1.25e-02 o  ~
  ---------------------------------------------------------------------------------------------

	Writing optimization data to binary file.
	Structure for next step:
	Cartesian Geometry (in Angstrom)
	    H    -2.2466235284   0.1008427030   0.1474740924
	    H    -2.1061487398   1.7407806451  -0.4887636820
	    H    -1.7991550140   0.3582887401  -1.5405547958
	    C    -1.6937251898   0.7386449905  -0.5315386719
	    H     0.3364390122   1.3991395826  -0.8157256823
	    H    -0.1128032334   1.1414923765   0.8752122863
	    C    -0.2077058410   0.7551601243  -0.1334675558
	    H    -0.3882221800  -1.3891184554   0.0234190637
	    H     0.7819135510  -0.8473341497  -1.1859883248
	    C     0.3897173091  -0.6651774125  -0.1918064631
	    H     1.9389034933  -1.8228820932   0.7878012240
	    H     1.1399672009  -0.6477248130   1.8330257527
	    H     2.3099176184  -0.1055845767   0.6277614787
	    C     1.5239045132  -0.8223918512   0.8350318362
			--------------------------
			 OPTKING Finished Execution 
			--------------------------

    Structure for next step:
    Molecular point group: c1
    Full point group: C1

    Geometry (in Angstrom), charge = 0, multiplicity = 1:

    H           -2.246612107513     0.100805408681     0.147399119103
    H           -2.106137318921     1.740743350839    -0.488838655238
    H           -1.799143593090     0.358251445772    -1.540629769032
    C           -1.693713768946     0.738607696178    -0.531613645205
    H            0.336450433066     1.399102288357    -0.815800655560
    H           -0.112791812518     1.141455082213     0.875137313065
    C           -0.207694420108     0.755122830015    -0.133542529068
    H           -0.388210759080    -1.389155749637     0.023344090487
    H            0.781924971825    -0.847371444000    -1.186063298088
    C            0.389728729963    -0.665214706787    -0.191881436353
    H            1.938914914154    -1.822919387478     0.787726250761
    H            1.139978621806    -0.647762107240     1.832950779422
    H            2.309929039271    -0.105621870981     0.627686505457
    C            1.523915934048    -0.822429145499     0.834956862901

gradient() will perform analytic gradient computation.
    SCF Algorithm Type (re)set to DF.

*** tstart() called on lski1497
*** at Thu Feb 16 16:27:07 2017


         ---------------------------------------------------------
                                   SCF
            by Justin Turney, Rob Parrish, and Andy Simmonett
                              RHF Reference
                        1 Threads,   1000 MiB Core
         ---------------------------------------------------------

  ==> Geometry <==

    Molecular point group: c1
    Full point group: C1

    Geometry (in Angstrom), charge = 0, multiplicity = 1:

       Center              X                  Y                   Z               Mass       
    ------------   -----------------  -----------------  -----------------  -----------------
           H         -2.246612107513     0.100805408681     0.147399119103     1.007825032070
           H         -2.106137318921     1.740743350839    -0.488838655238     1.007825032070
           H         -1.799143593090     0.358251445772    -1.540629769032     1.007825032070
           C         -1.693713768946     0.738607696178    -0.531613645205    12.000000000000
           H          0.336450433066     1.399102288357    -0.815800655560     1.007825032070
           H         -0.112791812518     1.141455082213     0.875137313065     1.007825032070
           C         -0.207694420108     0.755122830015    -0.133542529068    12.000000000000
           H         -0.388210759080    -1.389155749637     0.023344090487     1.007825032070
           H          0.781924971825    -0.847371444000    -1.186063298088     1.007825032070
           C          0.389728729963    -0.665214706787    -0.191881436353    12.000000000000
           H          1.938914914154    -1.822919387478     0.787726250761     1.007825032070
           H          1.139978621806    -0.647762107240     1.832950779422     1.007825032070
           H          2.309929039271    -0.105621870981     0.627686505457     1.007825032070
           C          1.523915934048    -0.822429145499     0.834956862901    12.000000000000

  Running in c1 symmetry.

  Rotational constants: A =      0.71153  B =      0.12430  C =      0.11830 [cm^-1]
  Rotational constants: A =  21331.25374  B =   3726.36987  C =   3546.53586 [MHz]
  Nuclear repulsion =  131.153916805970539

  Charge       = 0
  Multiplicity = 1
  Electrons    = 34
  Nalpha       = 17
  Nbeta        = 17

  ==> Algorithm <==

  SCF Algorithm Type is DF.
  DIIS enabled.
  MOM disabled.
  Fractional occupation disabled.
  Guess Type is READ.
  Energy threshold   = 1.00e-10
  Density threshold  = 1.00e-10
  Integral threshold = 0.00e+00

  ==> Primary Basis <==

  Basis Set: 6-31G(D)
    Number of shells: 44
    Number of basis function: 80
    Number of Cartesian functions: 80
    Spherical Harmonics?: false
    Max angular momentum: 2

  ==> Pre-Iterations <==

   -------------------------------------------------------
    Irrep   Nso     Nmo     Nalpha   Nbeta   Ndocc  Nsocc
   -------------------------------------------------------
     A         80      80       0       0       0       0
   -------------------------------------------------------
    Total      80      80      17      17      17       0
   -------------------------------------------------------

  ==> Integral Setup <==

  ==> DFJK: Density-Fitted J/K Matrices <==

    J tasked:                  Yes
    K tasked:                  Yes
    wK tasked:                  No
    OpenMP threads:              1
    Integrals threads:           1
    Memory (MB):               715
    Algorithm:                Core
    Integral Cache:           NONE
    Schwarz Cutoff:          1E-12
    Fitting Condition:       1E-12

   => Auxiliary Basis Set <=

  Basis Set: 
    Number of shells: 186
    Number of basis function: 574
    Number of Cartesian functions: 574
    Spherical Harmonics?: false
    Max angular momentum: 3

  Minimum eigenvalue in the overlap matrix is 4.6332985534E-03.
  Using Symmetric Orthogonalization.
  SCF Guess was Projection but file not found.
  Switching over to SAD guess.

  SCF Guess: Superposition of Atomic Densities via on-the-fly atomic UHF.

  ==> Iterations <==

                           Total Energy        Delta E     RMS |[F,P]|

   @DF-RHF iter   0:  -158.88333422686867   -1.58883e+02   4.65882e-02 
   @DF-RHF iter   1:  -157.20442953247704    1.67890e+00   3.95477e-03 
   @DF-RHF iter   2:  -157.28555817506083   -8.11286e-02   1.10358e-03 DIIS
   @DF-RHF iter   3:  -157.29346511278186   -7.90694e-03   2.71536e-04 DIIS
   @DF-RHF iter   4:  -157.29387910225807   -4.13989e-04   7.77076e-05 DIIS
   @DF-RHF iter   5:  -157.29391764031504   -3.85381e-05   1.31882e-05 DIIS
   @DF-RHF iter   6:  -157.29391898593644   -1.34562e-06   2.17174e-06 DIIS
   @DF-RHF iter   7:  -157.29391901149347   -2.55570e-08   7.29231e-07 DIIS
   @DF-RHF iter   8:  -157.29391901399765   -2.50418e-09   1.19729e-07 DIIS
   @DF-RHF iter   9:  -157.29391901411350   -1.15847e-10   2.61881e-08 DIIS
   @DF-RHF iter  10:  -157.29391901411941   -5.91172e-12   4.62278e-09 DIIS
   @DF-RHF iter  11:  -157.29391901412009   -6.82121e-13   9.86911e-10 DIIS
   @DF-RHF iter  12:  -157.29391901411981    2.84217e-13   2.98534e-10 DIIS
   @DF-RHF iter  13:  -157.29391901411981    0.00000e+00   6.96377e-11 DIIS

  ==> Post-Iterations <==

    Orbital Energies (a.u.)
    -----------------------

    Doubly Occupied:                                                      

       1A    -11.212314     2A    -11.211743     3A    -11.206313  
       4A    -11.206275     5A     -1.068178     6A     -0.978595  
       7A     -0.859256     8A     -0.788827     9A     -0.641093  
      10A     -0.585068    11A     -0.582964    12A     -0.560722  
      13A     -0.511051    14A     -0.503347    15A     -0.466719  
      16A     -0.465409    17A     -0.446469  

    Virtual:                                                              

      18A      0.232685    19A      0.264591    20A      0.287240  
      21A      0.296555    22A      0.323828    23A      0.332464  
      24A      0.332686    25A      0.343983    26A      0.348869  
      27A      0.353258    28A      0.417800    29A      0.438657  
      30A      0.439979    31A      0.704146    32A      0.714548  
      33A      0.746241    34A      0.761422    35A      0.779389  
      36A      0.847530    37A      0.850401    38A      0.931053  
      39A      0.946494    40A      1.009993    41A      1.076107  
      42A      1.083023    43A      1.151397    44A      1.177237  
      45A      1.185445    46A      1.194336    47A      1.202046  
      48A      1.209726    49A      1.238712    50A      1.240364  
      51A      1.247661    52A      1.276924    53A      1.280631  
      54A      1.538927    55A      1.652286    56A      1.727587  
      57A      1.745352    58A      1.925489    59A      1.940650  
      60A      2.128409    61A      2.199544    62A      2.215508  
      63A      2.288314    64A      2.313587    65A      2.321764  
      66A      2.421029    67A      2.511593    68A      2.615004  
      69A      2.637752    70A      2.662105    71A      2.710214  
      72A      2.734198    73A      2.765122    74A      2.883801  
      75A      3.013648    76A      3.097168    77A      4.566044  
      78A      4.666669    79A      4.794681    80A      4.955857  

    Final Occupation by Irrep:
              A 
    DOCC [    17 ]

  Energy converged.

  @DF-RHF Final Energy:  -157.29391901411981

   => Energetics <=

    Nuclear Repulsion Energy =            131.1539168059705389
    One-Electron Energy =                -470.3069886271548512
    Two-Electron Energy =                 181.8591528070643903
    DFT Exchange-Correlation Energy =       0.0000000000000000
    Empirical Dispersion Energy =           0.0000000000000000
    PCM Polarization Energy =               0.0000000000000000
    EFP Energy =                            0.0000000000000000
    Total Energy =                       -157.2939190141199219


  Saving occupied orbitals to File 180.

*** tstop() called on lski1497 at Thu Feb 16 16:27:13 2017
Module time:
	user time   =       5.58 seconds =       0.09 minutes
	system time =       0.15 seconds =       0.00 minutes
	total time  =          6 seconds =       0.10 minutes
Total time:
	user time   =      31.34 seconds =       0.52 minutes
	system time =       0.92 seconds =       0.02 minutes
	total time  =         37 seconds =       0.62 minutes


Properties will be evaluated at   0.000000,   0.000000,   0.000000 Bohr

Properties computed using the SCF density matrix

  Nuclear Dipole Moment: (a.u.)
     X:    -0.1366      Y:    -0.0679      Z:     0.2465

  Electronic Dipole Moment: (a.u.)
     X:     0.1457      Y:     0.0722      Z:    -0.2629

  Dipole Moment: (a.u.)
     X:     0.0091      Y:     0.0042      Z:    -0.0164     Total:     0.0192

  Dipole Moment: (Debye)
     X:     0.0231      Y:     0.0107      Z:    -0.0418     Total:     0.0489


  //>>>>>>>>>>>>>>>>>>>>>>>>>>>>>>>>>>>//
  //               DFMP2               //
  //<<<<<<<<<<<<<<<<<<<<<<<<<<<<<<<<<<<//


*** tstart() called on lski1497
*** at Thu Feb 16 16:27:13 2017


*** tstop() called on lski1497 at Thu Feb 16 16:27:14 2017
Module time:
	user time   =       0.60 seconds =       0.01 minutes
	system time =       0.01 seconds =       0.00 minutes
	total time  =          1 seconds =       0.02 minutes
Total time:
	user time   =      31.96 seconds =       0.53 minutes
	system time =       0.93 seconds =       0.02 minutes
	total time  =         38 seconds =       0.63 minutes
	 --------------------------------------------------------
	                          DF-MP2                         
	      2nd-Order Density-Fitted Moller-Plesset Theory     
	              RMP2 Wavefunction,   1 Threads             
	                                                         
	        Rob Parrish, Justin Turney, Andy Simmonett,      
	           Ed Hohenstein, and C. David Sherrill          
	 --------------------------------------------------------

   => Auxiliary Basis Set <=

  Basis Set: 
    Number of shells: 132
    Number of basis function: 364
    Number of Cartesian functions: 414
    Spherical Harmonics?: true
    Max angular momentum: 3

	 --------------------------------------------------------
	                 NBF =    80, NAUX =   364
	 --------------------------------------------------------
	   CLASS    FOCC     OCC    AOCC    AVIR     VIR    FVIR
	   PAIRS       0      17      17      63      63       0
	 --------------------------------------------------------

DGAS Warning! /src/lib/libfock/apps.cc:80 is not currently checking restricted

         ------------------------------------------------------------
                                     CPHF                           
                                  Rob Parrish                       
         ------------------------------------------------------------

  ==> Geometry <==

    Molecular point group: c1
    Full point group: C1

    Geometry (in Angstrom), charge = 0, multiplicity = 1:

       Center              X                  Y                   Z               Mass       
    ------------   -----------------  -----------------  -----------------  -----------------
           H         -2.246612107513     0.100805408681     0.147399119103     1.007825032070
           H         -2.106137318921     1.740743350839    -0.488838655238     1.007825032070
           H         -1.799143593090     0.358251445772    -1.540629769032     1.007825032070
           C         -1.693713768946     0.738607696178    -0.531613645205    12.000000000000
           H          0.336450433066     1.399102288357    -0.815800655560     1.007825032070
           H         -0.112791812518     1.141455082213     0.875137313065     1.007825032070
           C         -0.207694420108     0.755122830015    -0.133542529068    12.000000000000
           H         -0.388210759080    -1.389155749637     0.023344090487     1.007825032070
           H          0.781924971825    -0.847371444000    -1.186063298088     1.007825032070
           C          0.389728729963    -0.665214706787    -0.191881436353    12.000000000000
           H          1.938914914154    -1.822919387478     0.787726250761     1.007825032070
           H          1.139978621806    -0.647762107240     1.832950779422     1.007825032070
           H          2.309929039271    -0.105621870981     0.627686505457     1.007825032070
           C          1.523915934048    -0.822429145499     0.834956862901    12.000000000000

  Nuclear repulsion =  131.153916805970539
  Reference energy  = -157.293919014119808

  ==> Basis Set <==

  Basis Set: 6-31G(D)
    Number of shells: 44
    Number of basis function: 80
    Number of Cartesian functions: 80
    Spherical Harmonics?: false
    Max angular momentum: 2

  ==> CGRSolver (by Rob Parrish) <==

   Number of roots    =         1
   Preconditioning    =    JACOBI
   Convergence cutoff =     1E-06
   Maximum iterations =       100

  ==> CPHFRHamiltonian (by Rob Parrish) <== 

  ==> DFJK: Density-Fitted J/K Matrices <==

    J tasked:                  Yes
    K tasked:                  Yes
    wK tasked:                  No
    OpenMP threads:              1
    Integrals threads:           1
    Memory (MB):               715
    Algorithm:                Core
    Integral Cache:           NONE
    Schwarz Cutoff:          1E-12
    Fitting Condition:       1E-12

   => Auxiliary Basis Set <=

  Basis Set: 
    Number of shells: 186
    Number of basis function: 574
    Number of Cartesian functions: 574
    Spherical Harmonics?: false
    Max angular momentum: 3

  ==> CPHF Iterations <==

  => Iterations <=

             Iter  Converged  Remaining    Residual
  CGR           1          0          1   7.335E-02
  CGR           2          0          1   8.933E-03
  CGR           3          0          1   2.807E-03
  CGR           4          0          1   3.785E-04
  CGR           5          0          1   6.768E-05
  CGR           6          0          1   1.604E-05
  CGR           7          0          1   2.940E-06
  CGR           8          1          0   5.816E-07

    CGRSolver converged.

  ==> DFCorrGrad: Density-Fitted Correlated Gradients <==

    OpenMP threads:              1
    Integrals threads:           1
    Memory (MB):               715
    Schwarz Cutoff:          0E+00
    Fitting Condition:       1E-12

   => Auxiliary Basis Set <=

  Basis Set: 
    Number of shells: 186
    Number of basis function: 510
    Number of Cartesian functions: 574
    Spherical Harmonics?: true
    Max angular momentum: 3

	-----------------------------------------------------------
	 ==================> DF-MP2 Energies <==================== 
	-----------------------------------------------------------
	 Reference Energy          =    -157.2939190141198083 [Eh]
	 Singles Energy            =      -0.0000000000000000 [Eh]
	 Same-Spin Energy          =      -0.1242956507075772 [Eh]
	 Opposite-Spin Energy      =      -0.4215550843192873 [Eh]
	 Correlation Energy        =      -0.5458507350268645 [Eh]
	 Total Energy              =    -157.8397697491466829 [Eh]
	-----------------------------------------------------------
	 ================> DF-SCS-MP2 Energies <================== 
	-----------------------------------------------------------
	 SCS Same-Spin Scale       =       0.3333333333333333 [-]
	 SCS Opposite-Spin Scale   =       1.2000000000000000 [-]
	 SCS Same-Spin Energy      =      -0.0414318835691924 [Eh]
	 SCS Opposite-Spin Energy  =      -0.5058661011831447 [Eh]
	 SCS Correlation Energy    =      -0.5472979847523370 [Eh]
	 SCS Total Energy          =    -157.8412169988721416 [Eh]
	-----------------------------------------------------------


  -Total Gradient:
     Atom            X                  Y                   Z
    ------   -----------------  -----------------  -----------------
       1        0.005078767846     0.003544925072    -0.003040185457
       2        0.004958484690    -0.004788055337     0.000819967147
       3        0.002979750927     0.002559860589     0.006017081053
       4       -0.016455346220    -0.005210792426    -0.003573360111
       5       -0.005060625008    -0.006806806732     0.000369604689
       6       -0.001580819586    -0.004915692688    -0.005687216479
       7        0.013854642803     0.018234408894     0.007993540880
       8        0.004423834418     0.006297992323     0.000732463581
       9        0.000888634503     0.004746288502     0.007218319125
      10       -0.009753518019    -0.016285179200    -0.015093625425
      11       -0.004574655370     0.005257827829    -0.001655192215
      12        0.000446184439    -0.000811688041    -0.006738040734
      13       -0.005755841903    -0.003841639127    -0.000725749995
      14        0.010550506478     0.002018550343     0.013362393939


			-----------------------------------------
			 OPTKING 2.0: for geometry optimizations 
			  - R.A. King,  Bethel University        
			-----------------------------------------

	Previous internal coordinate definitions found.
	---Fragment 1 Geometry and Gradient---
	 H          -4.2454816100        0.1904946151        0.2785439673
	 H          -3.9800227310        3.2895282007       -0.9237711816
	 H          -3.3998886647        0.6769971192       -2.9113683356
	 C          -3.2006551708        1.3957662654       -1.0046041979
	 H           0.6357991758        2.6439201569       -1.5416398180
	 H          -0.2131456357        2.1570374984        1.6537698504
	 C          -0.3924855733        1.4269753454       -0.2523588070
	 H          -0.7336120165       -2.6251239227        0.0441139378
	 H           1.4776240532       -1.6012999620       -2.2413348097
	 C           0.7364805657       -1.2570736154       -0.3626033647
	 H           3.6640181827       -3.4448184047        1.4885868816
	 H           2.1542473926       -1.2240929819        3.4637749882
	 H           4.3651332706       -0.1995964098        1.1861555926
	 C           2.8797837649       -1.5541658487        1.5778398037
	             0.0050787678        0.0035449251       -0.0030401855
	             0.0049584847       -0.0047880553        0.0008199671
	             0.0029797509        0.0025598606        0.0060170811
	            -0.0164553462       -0.0052107924       -0.0035733601
	            -0.0050606250       -0.0068068067        0.0003696047
	            -0.0015808196       -0.0049156927       -0.0056872165
	             0.0138546428        0.0182344089        0.0079935409
	             0.0044238344        0.0062979923        0.0007324636
	             0.0008886345        0.0047462885        0.0072183191
	            -0.0097535180       -0.0162851792       -0.0150936254
	            -0.0045746554        0.0052578278       -0.0016551922
	             0.0004461844       -0.0008116880       -0.0067380407
	            -0.0057558419       -0.0038416391       -0.0007257500
	             0.0105505065        0.0020185503        0.0133623939

	---Fragment 1 Intrafragment Coordinates---
	 - Coordinate -           - BOHR/RAD -       - ANG/DEG -
	 R(1,4)           =         2.047147	       1.083304
	 R(2,4)           =         2.049459	       1.084527
	 R(3,4)           =         2.047455	       1.083467
	 R(4,7)           =         2.907346	       1.538502
	 R(5,7)           =         2.049529	       1.084564
	 R(6,7)           =         2.049019	       1.084294
	 R(7,10)          =         2.913904	       1.541972
	 R(8,10)          =         2.048939	       1.084252
	 R(9,10)          =         2.048760	       1.084157
	 R(10,14)         =         2.906429	       1.538016
	 R(11,14)         =         2.048794	       1.084175
	 R(12,14)         =         2.047462	       1.083470
	 R(13,14)         =         2.048057	       1.083785
	 B(1,4,2)         =         1.902040	     108.978878
	 B(1,4,3)         =         1.904323	     109.109687
	 B(1,4,7)         =         1.914646	     109.701134
	 B(2,4,3)         =         1.900869	     108.911788
	 B(2,4,7)         =         1.925362	     110.315131
	 B(3,4,7)         =         1.916349	     109.798731
	 B(4,7,5)         =         1.905208	     109.160368
	 B(4,7,6)         =         1.906104	     109.211719
	 B(4,7,10)        =         1.933226	     110.765717
	 B(5,7,6)         =         1.906806	     109.251931
	 B(5,7,10)        =         1.905770	     109.192582
	 B(6,7,10)        =         1.906547	     109.237072
	 B(7,10,8)        =         1.906595	     109.239851
	 B(7,10,9)        =         1.906692	     109.245418
	 B(7,10,14)       =         1.933292	     110.769481
	 B(8,10,9)        =         1.906463	     109.232258
	 B(8,10,14)       =         1.905326	     109.167118
	 B(9,10,14)       =         1.905286	     109.164831
	 B(10,14,11)      =         1.925720	     110.335614
	 B(10,14,12)      =         1.914707	     109.704656
	 B(10,14,13)      =         1.917217	     109.848422
	 B(11,14,12)      =         1.901316	     108.937408
	 B(11,14,13)      =         1.901174	     108.929247
	 B(12,14,13)      =         1.903430	     109.058508
	 D(1,4,7,5)       =        -3.137321	    -179.755251
	 D(1,4,7,6)       =        -1.053605	     -60.367105
	 D(1,4,7,10)      =         1.046899	      59.982873
	 D(2,4,7,5)       =        -1.041868	     -59.694629
	 D(2,4,7,6)       =         1.041848	      59.693518
	 D(2,4,7,10)      =        -3.140834	    -179.956505
	 D(3,4,7,5)       =         1.053218	      60.344950
	 D(3,4,7,6)       =         3.136934	     179.733096
	 D(3,4,7,10)      =        -1.045748	     -59.916926
	 D(4,7,10,8)      =        -0.521070	     -29.855086
	 D(4,7,10,9)      =         1.563408	      89.576673
	 D(4,7,10,14)     =        -2.620417	    -150.138834
	 D(5,7,10,8)      =        -2.619700	    -150.097754
	 D(5,7,10,9)      =        -0.535223	     -30.665995
	 D(5,7,10,14)     =         1.564138	      89.618498
	 D(6,7,10,8)      =         1.579170	      90.479787
	 D(6,7,10,9)      =        -2.619538	    -150.088454
	 D(6,7,10,14)     =        -0.520177	     -29.803960
	 D(7,10,14,11)    =        -3.141257	    -179.980783
	 D(7,10,14,12)    =         1.047107	      59.994818
	 D(7,10,14,13)    =        -1.045016	     -59.875003
	 D(8,10,14,11)    =         1.041824	      59.692126
	 D(8,10,14,12)    =        -1.052997	     -60.332273
	 D(8,10,14,13)    =         3.138065	     179.797906
	 D(9,10,14,11)    =        -1.041059	     -59.648267
	 D(9,10,14,12)    =        -3.135880	    -179.672666
	 D(9,10,14,13)    =         1.055183	      60.457513

	Current energy   :      -157.8397697491

	Energy change for the previous step:
		Projected    :        -0.0061467542
		Actual       :        -0.0041261355

	Performing BFGS update.
	Previous computed or guess Hessian on step 1.
	Steps to be used in Hessian update: 1
	Adding user-defined constraint: Fragment 1; Coordinate 49:
		Value =    -2.620417; Fixed value    =    -2.617990
		Force =     0.001274; Force constant =     0.525000
	Removing off-diagonal coupling between coordinate 49 and others.
	Taking RFO optimization step.
	Going to follow RFO solution 1.
	Using RFO vector 1.

	Determining step-restricting scale parameter for RS-RFO.
	Maximum step size allowed    0.10000

	 Iter      |step|        alpha        rfo_root  
	------------------------------------------------
	    0     0.21753       1.00000           1
	    1     0.16629       4.47098           1
	    2     0.12848      12.83769           1
	    3     0.10819      23.15278           1
	    4     0.10101      28.88581           1
	    5     0.10002      29.79986           1
	    6     0.10000      29.81728           1
	------------------------------------------------
	Norm of target step-size    0.10000
	Projected energy change by RFO approximation:        -0.0008043491

	Back-transformation to cartesian coordinates...
	Could not converge backtransformation.
	Using first guess instead.

	--- Internal Coordinate Step in ANG or DEG, aJ/ANG or AJ/DEG ---
	 ---------------------------------------------------------------------------
	   Coordinate                Previous        Force       Change         New 
	   ----------                --------       ------       ------       ------
	    1 R(1,4)          =      1.083304     0.054251     0.008354     1.091658
	    2 R(2,4)          =      1.084527     0.051718     0.007588     1.092115
	    3 R(3,4)          =      1.083467     0.055960     0.008522     1.091989
	    4 R(4,7)          =      1.538502    -0.027227    -0.007115     1.531387
	    5 R(5,7)          =      1.084564     0.056132     0.008535     1.093099
	    6 R(6,7)          =      1.084294     0.059157     0.009111     1.093405
	    7 R(7,10)         =      1.541972    -0.008724    -0.003265     1.538706
	    8 R(8,10)         =      1.084252     0.059596     0.009163     1.093415
	    9 R(9,10)         =      1.084157     0.058456     0.008848     1.093005
	   10 R(10,14)        =      1.538016    -0.025177    -0.006720     1.531297
	   11 R(11,14)        =      1.084175     0.053806     0.007867     1.092042
	   12 R(12,14)        =      1.083470     0.053515     0.008248     1.091718
	   13 R(13,14)        =      1.083785     0.054182     0.008272     1.092057
	   14 B(1,4,2)        =    108.978878    -0.000189    -0.655127   108.323751
	   15 B(1,4,3)        =    109.109687    -0.000179    -0.754746   108.354941
	   16 B(1,4,7)        =    109.701134     0.000133     0.531059   110.232193
	   17 B(2,4,3)        =    108.911788    -0.000201    -0.689655   108.222133
	   18 B(2,4,7)        =    110.315131     0.000262     0.856519   111.171650
	   19 B(3,4,7)        =    109.798731     0.000164     0.651163   110.449894
	   20 B(4,7,5)        =    109.160368    -0.000070     0.063718   109.224086
	   21 B(4,7,6)        =    109.211719    -0.000090    -0.211919   108.999801
	   22 B(4,7,10)       =    110.765717     0.000387     1.196343   111.962061
	   23 B(5,7,6)        =    109.251931    -0.000099    -1.028928   108.223003
	   24 B(5,7,10)       =    109.192582    -0.000068     0.002434   109.195015
	   25 B(6,7,10)       =    109.237072    -0.000065    -0.074877   109.162195
	   26 B(7,10,8)       =    109.239851    -0.000066    -0.077158   109.162693
	   27 B(7,10,9)       =    109.245418    -0.000073    -0.024877   109.220541
	   28 B(7,10,14)      =    110.769481     0.000388     1.195979   111.965460
	   29 B(8,10,9)       =    109.232258    -0.000097    -1.021434   108.210824
	   30 B(8,10,14)      =    109.167118    -0.000088    -0.193771   108.973347
	   31 B(9,10,14)      =    109.164831    -0.000069     0.067762   109.232593
	   32 B(10,14,11)     =    110.335614     0.000260     0.844766   111.180379
	   33 B(10,14,12)     =    109.704656     0.000131     0.524641   110.229298
	   34 B(10,14,13)     =    109.848422     0.000158     0.625426   110.473848
	   35 B(11,14,12)     =    108.937408    -0.000185    -0.634773   108.302634
	   36 B(11,14,13)     =    108.929247    -0.000200    -0.692673   108.236574
	   37 B(12,14,13)     =    109.058508    -0.000174    -0.728111   108.330397
	   38 D(1,4,7,5)      =   -179.755251     0.000023     0.722768  -179.032483
	   39 D(1,4,7,6)      =    -60.367105    -0.000026    -0.609342   -60.976446
	   40 D(1,4,7,10)     =     59.982873    -0.000002    -0.084031    59.898842
	   41 D(2,4,7,5)      =    -59.694629     0.000027     0.798522   -58.896106
	   42 D(2,4,7,6)      =     59.693518    -0.000023    -0.533587    59.159930
	   43 D(2,4,7,10)     =   -179.956505     0.000001    -0.008276  -179.964781
	   44 D(3,4,7,5)      =     60.344950     0.000032     0.912072    61.257022
	   45 D(3,4,7,6)      =    179.733096    -0.000018    -0.420037   179.313059
	   46 D(3,4,7,10)     =    -59.916926     0.000006     0.105274   -59.811653
	   47 D(4,7,10,8)     =    -29.855086     0.000012     0.290444   -29.564643
	   48 D(4,7,10,9)     =     89.576673    -0.000034    -1.007562    88.569111
	   49 D(4,7,10,14)    =   -150.138834    -0.000009    -0.176266  -150.315100
	   50 D(5,7,10,8)     =   -150.097754    -0.000013    -0.552370  -150.650124
	   51 D(5,7,10,9)     =    -30.665995    -0.000059    -1.850375   -32.516371
	   52 D(5,7,10,14)    =     89.618498    -0.000034    -1.019079    88.599419
	   53 D(6,7,10,8)     =     90.479787     0.000033     0.736731    91.216519
	   54 D(6,7,10,9)     =   -150.088454    -0.000014    -0.561275  -150.649728
	   55 D(6,7,10,14)    =    -29.803960     0.000012     0.270021   -29.533939
	   56 D(7,10,14,11)   =   -179.980783     0.000002     0.016011  -179.964772
	   57 D(7,10,14,12)   =     59.994818    -0.000002    -0.073242    59.921575
	   58 D(7,10,14,13)   =    -59.875003     0.000006     0.103185   -59.771818
	   59 D(8,10,14,11)   =     59.692126    -0.000022    -0.517124    59.175003
	   60 D(8,10,14,12)   =    -60.332273    -0.000026    -0.606377   -60.938650
	   61 D(8,10,14,13)   =    179.797906    -0.000018    -0.429950   179.367957
	   62 D(9,10,14,11)   =    -59.648267     0.000027     0.792320   -58.855947
	   63 D(9,10,14,12)   =   -179.672666     0.000023     0.703067  -178.969599
	   64 D(9,10,14,13)   =     60.457513     0.000030     0.879494    61.337007
	 ---------------------------------------------------------------------------
	 Forces used to impose fixed constraints are not included.
	  Forces zeroed: 49 

  ==> Convergence Check <==

  Measures of convergence in internal coordinates in au.
  Criteria marked as inactive (o), active & met (*), and active & unmet ( ).
  ---------------------------------------------------------------------------------------------
   Step     Total Energy     Delta E     MAX Force     RMS Force      MAX Disp      RMS Disp   
  ---------------------------------------------------------------------------------------------
    Convergence Criteria    1.00e-06 *    3.00e-04 *             o    1.20e-03 *             o
  ---------------------------------------------------------------------------------------------
      2    -157.83976975   -4.13e-03      7.23e-03      3.23e-03 o    3.23e-02      1.25e-02 o  ~
  ---------------------------------------------------------------------------------------------

	Writing optimization data to binary file.
	Structure for next step:
	Cartesian Geometry (in Angstrom)
	    H    -2.2672484116   0.1088674608   0.1425238893
	    H    -2.1166908497   1.7523539823  -0.4980591073
	    H    -1.8157256936   0.3622283036  -1.5506590507
	    C    -1.6953447479   0.7454780632  -0.5352440341
	    H     0.3368801981   1.4046164755  -0.8144501343
	    H    -0.1224177914   1.1482448311   0.8770693446
	    C    -0.2167335081   0.7496096336  -0.1367008945
	    H    -0.3833085802  -1.3980519587   0.0291496257
	    H     0.7818023587  -0.8524992636  -1.1882583533
	    C     0.3958865400  -0.6611002913  -0.1837210588
	    H     1.9550457822  -1.8321489667   0.7876031861
	    H     1.1571435097  -0.6575368884   1.8444057994
	    H     2.3278210351  -0.1089922248   0.6348825098
	    C     1.5294290227  -0.8274554661   0.8322892108
			--------------------------
			 OPTKING Finished Execution 
			--------------------------

    Structure for next step:
    Molecular point group: c1
    Full point group: C1

    Geometry (in Angstrom), charge = 0, multiplicity = 1:

    H           -2.267437833931     0.108783187631     0.142769182068
    H           -2.116880272060     1.752269709130    -0.497813814499
    H           -1.815915115944     0.362144030485    -1.550413757889
    C           -1.695534170261     0.745393790071    -0.534998741273
    H            0.336690775733     1.404532202402    -0.814204841523
    H           -0.122607213739     1.148160557985     0.877314637389
    C           -0.216922930423     0.749525360494    -0.136455601733
    H           -0.383498002537    -1.398136231853     0.029394918502
    H            0.781612936348    -0.852583536743    -1.188013060459
    C            0.395697117688    -0.661184564435    -0.183475766046
    H            1.954856359896    -1.832233239856     0.787848478935
    H            1.156954087383    -0.657621161532     1.844651092238
    H            2.327631612724    -0.109076497932     0.635127802576
    C            1.529239600372    -0.827539739270     0.832534503604

gradient() will perform analytic gradient computation.
    SCF Algorithm Type (re)set to DF.

*** tstart() called on lski1497
*** at Thu Feb 16 16:27:37 2017


         ---------------------------------------------------------
                                   SCF
            by Justin Turney, Rob Parrish, and Andy Simmonett
                              RHF Reference
                        1 Threads,   1000 MiB Core
         ---------------------------------------------------------

  ==> Geometry <==

    Molecular point group: c1
    Full point group: C1

    Geometry (in Angstrom), charge = 0, multiplicity = 1:

       Center              X                  Y                   Z               Mass       
    ------------   -----------------  -----------------  -----------------  -----------------
           H         -2.267437833931     0.108783187631     0.142769182068     1.007825032070
           H         -2.116880272060     1.752269709130    -0.497813814499     1.007825032070
           H         -1.815915115944     0.362144030485    -1.550413757889     1.007825032070
           C         -1.695534170261     0.745393790071    -0.534998741273    12.000000000000
           H          0.336690775733     1.404532202402    -0.814204841523     1.007825032070
           H         -0.122607213739     1.148160557985     0.877314637389     1.007825032070
           C         -0.216922930423     0.749525360494    -0.136455601733    12.000000000000
           H         -0.383498002537    -1.398136231853     0.029394918502     1.007825032070
           H          0.781612936348    -0.852583536743    -1.188013060459     1.007825032070
           C          0.395697117688    -0.661184564435    -0.183475766046    12.000000000000
           H          1.954856359896    -1.832233239856     0.787848478935     1.007825032070
           H          1.156954087383    -0.657621161532     1.844651092238     1.007825032070
           H          2.327631612724    -0.109076497932     0.635127802576     1.007825032070
           C          1.529239600372    -0.827539739270     0.832534503604    12.000000000000

  Running in c1 symmetry.

  Rotational constants: A =      0.71765  B =      0.12320  C =      0.11742 [cm^-1]
  Rotational constants: A =  21514.59706  B =   3693.48053  C =   3520.22153 [MHz]
  Nuclear repulsion =  130.801548713837150

  Charge       = 0
  Multiplicity = 1
  Electrons    = 34
  Nalpha       = 17
  Nbeta        = 17

  ==> Algorithm <==

  SCF Algorithm Type is DF.
  DIIS enabled.
  MOM disabled.
  Fractional occupation disabled.
  Guess Type is READ.
  Energy threshold   = 1.00e-10
  Density threshold  = 1.00e-10
  Integral threshold = 0.00e+00

  ==> Primary Basis <==

  Basis Set: 6-31G(D)
    Number of shells: 44
    Number of basis function: 80
    Number of Cartesian functions: 80
    Spherical Harmonics?: false
    Max angular momentum: 2

  ==> Pre-Iterations <==

   -------------------------------------------------------
    Irrep   Nso     Nmo     Nalpha   Nbeta   Ndocc  Nsocc
   -------------------------------------------------------
     A         80      80       0       0       0       0
   -------------------------------------------------------
    Total      80      80      17      17      17       0
   -------------------------------------------------------

  ==> Integral Setup <==

  ==> DFJK: Density-Fitted J/K Matrices <==

    J tasked:                  Yes
    K tasked:                  Yes
    wK tasked:                  No
    OpenMP threads:              1
    Integrals threads:           1
    Memory (MB):               715
    Algorithm:                Core
    Integral Cache:           NONE
    Schwarz Cutoff:          1E-12
    Fitting Condition:       1E-12

   => Auxiliary Basis Set <=

  Basis Set: 
    Number of shells: 186
    Number of basis function: 574
    Number of Cartesian functions: 574
    Spherical Harmonics?: false
    Max angular momentum: 3

  Minimum eigenvalue in the overlap matrix is 4.6532517434E-03.
  Using Symmetric Orthogonalization.
  SCF Guess was Projection but file not found.
  Switching over to SAD guess.

  SCF Guess: Superposition of Atomic Densities via on-the-fly atomic UHF.

  ==> Iterations <==

                           Total Energy        Delta E     RMS |[F,P]|

   @DF-RHF iter   0:  -158.85090256540107   -1.58851e+02   4.62856e-02 
   @DF-RHF iter   1:  -157.20474919401968    1.64615e+00   3.94634e-03 
   @DF-RHF iter   2:  -157.28623409724966   -8.14849e-02   1.11467e-03 DIIS
   @DF-RHF iter   3:  -157.29426238688885   -8.02829e-03   2.88255e-04 DIIS
   @DF-RHF iter   4:  -157.29471923264001   -4.56846e-04   7.90161e-05 DIIS
   @DF-RHF iter   5:  -157.29476067537021   -4.14427e-05   1.31158e-05 DIIS
   @DF-RHF iter   6:  -157.29476203858874   -1.36322e-06   1.95903e-06 DIIS
   @DF-RHF iter   7:  -157.29476206189921   -2.33105e-08   6.81170e-07 DIIS
   @DF-RHF iter   8:  -157.29476206399605   -2.09684e-09   1.24088e-07 DIIS
   @DF-RHF iter   9:  -157.29476206411388   -1.17836e-10   2.66822e-08 DIIS
   @DF-RHF iter  10:  -157.29476206412031   -6.42331e-12   4.68778e-09 DIIS
   @DF-RHF iter  11:  -157.29476206412025    5.68434e-14   8.21238e-10 DIIS
   @DF-RHF iter  12:  -157.29476206412048   -2.27374e-13   2.21820e-10 DIIS
   @DF-RHF iter  13:  -157.29476206412031    1.70530e-13   6.64742e-11 DIIS

  ==> Post-Iterations <==

    Orbital Energies (a.u.)
    -----------------------

    Doubly Occupied:                                                      

       1A    -11.215040     2A    -11.214470     3A    -11.209521  
       4A    -11.209512     5A     -1.068028     6A     -0.978568  
       7A     -0.858337     8A     -0.786093     9A     -0.637973  
      10A     -0.583778    11A     -0.581655    12A     -0.560121  
      13A     -0.510575    14A     -0.500417    15A     -0.464760  
      16A     -0.462217    17A     -0.451471  

    Virtual:                                                              

      18A      0.232107    19A      0.263168    20A      0.284671  
      21A      0.294148    22A      0.322230    23A      0.329805  
      24A      0.330015    25A      0.340401    26A      0.346861  
      27A      0.351386    28A      0.418977    29A      0.441688  
      30A      0.442080    31A      0.704640    32A      0.710673  
      33A      0.746611    34A      0.763552    35A      0.781828  
      36A      0.850225    37A      0.853082    38A      0.933434  
      39A      0.949757    40A      1.009376    41A      1.074751  
      42A      1.088882    43A      1.142814    44A      1.168377  
      45A      1.176277    46A      1.185789    47A      1.194493  
      48A      1.202207    49A      1.231544    50A      1.233402  
      51A      1.239636    52A      1.268038    53A      1.275111  
      54A      1.538834    55A      1.653213    56A      1.733073  
      57A      1.741508    58A      1.923418    59A      1.933684  
      60A      2.122513    61A      2.206656    62A      2.209732  
      63A      2.283173    64A      2.313280    65A      2.313803  
      66A      2.415210    67A      2.494742    68A      2.604125  
      69A      2.630196    70A      2.655919    71A      2.705520  
      72A      2.729640    73A      2.765292    74A      2.887109  
      75A      3.022990    76A      3.093842    77A      4.561313  
      78A      4.662544    79A      4.791716    80A      4.952893  

    Final Occupation by Irrep:
              A 
    DOCC [    17 ]

  Energy converged.

  @DF-RHF Final Energy:  -157.29476206412031

   => Energetics <=

    Nuclear Repulsion Energy =            130.8015487138371498
    One-Electron Energy =                -469.6075493081539207
    Two-Electron Energy =                 181.5112385301964935
    DFT Exchange-Correlation Energy =       0.0000000000000000
    Empirical Dispersion Energy =           0.0000000000000000
    PCM Polarization Energy =               0.0000000000000000
    EFP Energy =                            0.0000000000000000
    Total Energy =                       -157.2947620641202491


  Saving occupied orbitals to File 180.

*** tstop() called on lski1497 at Thu Feb 16 16:27:43 2017
Module time:
	user time   =       5.66 seconds =       0.09 minutes
	system time =       0.17 seconds =       0.00 minutes
	total time  =          6 seconds =       0.10 minutes
Total time:
	user time   =      57.15 seconds =       0.95 minutes
	system time =       1.60 seconds =       0.03 minutes
	total time  =         67 seconds =       1.12 minutes


Properties will be evaluated at   0.000000,   0.000000,   0.000000 Bohr

Properties computed using the SCF density matrix

  Nuclear Dipole Moment: (a.u.)
     X:    -0.1393      Y:    -0.0691      Z:     0.2500

  Electronic Dipole Moment: (a.u.)
     X:     0.1471      Y:     0.0730      Z:    -0.2641

  Dipole Moment: (a.u.)
     X:     0.0078      Y:     0.0038      Z:    -0.0141     Total:     0.0165

  Dipole Moment: (Debye)
     X:     0.0198      Y:     0.0097      Z:    -0.0358     Total:     0.0420


  //>>>>>>>>>>>>>>>>>>>>>>>>>>>>>>>>>>>//
  //               DFMP2               //
  //<<<<<<<<<<<<<<<<<<<<<<<<<<<<<<<<<<<//


*** tstart() called on lski1497
*** at Thu Feb 16 16:27:43 2017


*** tstop() called on lski1497 at Thu Feb 16 16:27:44 2017
Module time:
	user time   =       0.59 seconds =       0.01 minutes
	system time =       0.00 seconds =       0.00 minutes
	total time  =          1 seconds =       0.02 minutes
Total time:
	user time   =      57.76 seconds =       0.96 minutes
	system time =       1.60 seconds =       0.03 minutes
	total time  =         68 seconds =       1.13 minutes
	 --------------------------------------------------------
	                          DF-MP2                         
	      2nd-Order Density-Fitted Moller-Plesset Theory     
	              RMP2 Wavefunction,   1 Threads             
	                                                         
	        Rob Parrish, Justin Turney, Andy Simmonett,      
	           Ed Hohenstein, and C. David Sherrill          
	 --------------------------------------------------------

   => Auxiliary Basis Set <=

  Basis Set: 
    Number of shells: 132
    Number of basis function: 364
    Number of Cartesian functions: 414
    Spherical Harmonics?: true
    Max angular momentum: 3

	 --------------------------------------------------------
	                 NBF =    80, NAUX =   364
	 --------------------------------------------------------
	   CLASS    FOCC     OCC    AOCC    AVIR     VIR    FVIR
	   PAIRS       0      17      17      63      63       0
	 --------------------------------------------------------

DGAS Warning! /src/lib/libfock/apps.cc:80 is not currently checking restricted

         ------------------------------------------------------------
                                     CPHF                           
                                  Rob Parrish                       
         ------------------------------------------------------------

  ==> Geometry <==

    Molecular point group: c1
    Full point group: C1

    Geometry (in Angstrom), charge = 0, multiplicity = 1:

       Center              X                  Y                   Z               Mass       
    ------------   -----------------  -----------------  -----------------  -----------------
           H         -2.267437833931     0.108783187631     0.142769182068     1.007825032070
           H         -2.116880272060     1.752269709130    -0.497813814499     1.007825032070
           H         -1.815915115944     0.362144030485    -1.550413757889     1.007825032070
           C         -1.695534170261     0.745393790071    -0.534998741273    12.000000000000
           H          0.336690775733     1.404532202402    -0.814204841523     1.007825032070
           H         -0.122607213739     1.148160557985     0.877314637389     1.007825032070
           C         -0.216922930423     0.749525360494    -0.136455601733    12.000000000000
           H         -0.383498002537    -1.398136231853     0.029394918502     1.007825032070
           H          0.781612936348    -0.852583536743    -1.188013060459     1.007825032070
           C          0.395697117688    -0.661184564435    -0.183475766046    12.000000000000
           H          1.954856359896    -1.832233239856     0.787848478935     1.007825032070
           H          1.156954087383    -0.657621161532     1.844651092238     1.007825032070
           H          2.327631612724    -0.109076497932     0.635127802576     1.007825032070
           C          1.529239600372    -0.827539739270     0.832534503604    12.000000000000

  Nuclear repulsion =  130.801548713837150
  Reference energy  = -157.294762064120306

  ==> Basis Set <==

  Basis Set: 6-31G(D)
    Number of shells: 44
    Number of basis function: 80
    Number of Cartesian functions: 80
    Spherical Harmonics?: false
    Max angular momentum: 2

  ==> CGRSolver (by Rob Parrish) <==

   Number of roots    =         1
   Preconditioning    =    JACOBI
   Convergence cutoff =     1E-06
   Maximum iterations =       100

  ==> CPHFRHamiltonian (by Rob Parrish) <== 

  ==> DFJK: Density-Fitted J/K Matrices <==

[...]
    Max angular momentum: 3

  ==> CPHF Iterations <==

  => Iterations <=

             Iter  Converged  Remaining    Residual
  CGR           1          0          1   7.496E-02
  CGR           2          0          1   9.324E-03
  CGR           3          0          1   2.909E-03
  CGR           4          0          1   3.792E-04
  CGR           5          0          1   7.045E-05
  CGR           6          0          1   1.647E-05
  CGR           7          0          1   2.703E-06
  CGR           8          1          0   5.082E-07

    CGRSolver converged.

  ==> DFCorrGrad: Density-Fitted Correlated Gradients <==

    OpenMP threads:              1
    Integrals threads:           1
    Memory (MB):               715
    Schwarz Cutoff:          0E+00
    Fitting Condition:       1E-12

   => Auxiliary Basis Set <=

  Basis Set: 
    Number of shells: 186
    Number of basis function: 510
    Number of Cartesian functions: 574
    Spherical Harmonics?: true
    Max angular momentum: 3

	-----------------------------------------------------------
	 ==================> DF-MP2 Energies <==================== 
	-----------------------------------------------------------
	 Reference Energy          =    -157.2951735577278498 [Eh]
	 Singles Energy            =      -0.0000000000000000 [Eh]
	 Same-Spin Energy          =      -0.1243733955196361 [Eh]
	 Opposite-Spin Energy      =      -0.4222990012919294 [Eh]
	 Correlation Energy        =      -0.5466723968115654 [Eh]
	 Total Energy              =    -157.8418459545394228 [Eh]
	-----------------------------------------------------------
	 ================> DF-SCS-MP2 Energies <================== 
	-----------------------------------------------------------
	 SCS Same-Spin Scale       =       0.3333333333333333 [-]
	 SCS Opposite-Spin Scale   =       1.2000000000000000 [-]
	 SCS Same-Spin Energy      =      -0.0414577985065454 [Eh]
	 SCS Opposite-Spin Energy  =      -0.5067588015503153 [Eh]
	 SCS Correlation Energy    =      -0.5482166000568607 [Eh]
	 SCS Total Energy          =    -157.8433901577847109 [Eh]
	-----------------------------------------------------------


  -Total Gradient:
     Atom            X                  Y                   Z
    ------   -----------------  -----------------  -----------------
       1       -0.000003780069    -0.000001666917     0.000010314702
       2       -0.000006152285     0.000012011621    -0.000004166359
       3       -0.000009941932    -0.000008810020    -0.000012525572
       4       -0.000797121420    -0.000446981587     0.003079581893
       5       -0.000013118861     0.000002778992    -0.000000744859
       6        0.000008273618     0.000002470095    -0.000014333276
       7        0.000297417315     0.000253933549    -0.003400672223
       8        0.000007874266     0.000005398821    -0.000013889055
       9        0.000008577735    -0.000005161632     0.000009357500
      10        0.002619196148     0.001198711591    -0.001850410730
      11        0.000009360042    -0.000009909013    -0.000001517154
      12       -0.000006659587    -0.000003524106     0.000007676681
      13        0.000013233154     0.000010406784     0.000005536685
      14       -0.002127158122    -0.001009658178     0.002185791767


			-----------------------------------------
			 OPTKING 2.0: for geometry optimizations 
			  - R.A. King,  Bethel University        
			-----------------------------------------

	Previous internal coordinate definitions found.
	---Fragment 1 Geometry and Gradient---
	 H          -4.3089135503        0.2567283511        0.2971398234
	 H          -3.9902851980        3.3314804943       -0.9775411910
	 H          -3.4706897313        0.6561990536       -2.9102044918
	 C          -3.2049809002        1.4199273471       -1.0065956184
	 H           0.6575431310        2.6923050438       -1.4710351998
	 H          -0.2553514932        2.1563789350        1.6654518153
	 C          -0.4216047491        1.4051443127       -0.2598675787
	 H          -0.7157960712       -2.6400008076        0.0833176225
	 H           1.4122175179       -1.6615992519       -2.2560042876
	 C           0.7538961948       -1.2396696699       -0.3384913870
	 H           3.7359681189       -3.4581247084        1.4354923488
	 H           2.2084487644       -1.3027011029        3.4851896938
	 H           4.4044467704       -0.1912175638        1.2287639108
	 C           2.8997673398       -1.5719180001        1.5561951655
	            -0.0000037801       -0.0000016669        0.0000103147
	            -0.0000061523        0.0000120116       -0.0000041664
	            -0.0000099419       -0.0000088100       -0.0000125256
	            -0.0007971214       -0.0004469816        0.0030795819
	            -0.0000131189        0.0000027790       -0.0000007449
	             0.0000082736        0.0000024701       -0.0000143333
	             0.0002974173        0.0002539335       -0.0034006722
	             0.0000078743        0.0000053988       -0.0000138891
	             0.0000085777       -0.0000051616        0.0000093575
	             0.0026191961        0.0011987116       -0.0018504107
	             0.0000093600       -0.0000099090       -0.0000015172
	            -0.0000066596       -0.0000035241        0.0000076767
	             0.0000132332        0.0000104068        0.0000055367
	            -0.0021271581       -0.0010096582        0.0021857918

	---Fragment 1 Intrafragment Coordinates---
	 - Coordinate -           - BOHR/RAD -       - ANG/DEG -
	 R(1,4)           =         2.066743	       1.093673
	 R(2,4)           =         2.066781	       1.093693
	 R(3,4)           =         2.068238	       1.094464
	 R(4,7)           =         2.881840	       1.525004
	 R(5,7)           =         2.070814	       1.095827
	 R(6,7)           =         2.073366	       1.097178
	 R(7,10)          =         2.895345	       1.532151
	 R(8,10)          =         2.073366	       1.097178
	 R(9,10)          =         2.070813	       1.095827
	 R(10,14)         =         2.881838	       1.525003
	 R(11,14)         =         2.066779	       1.093692
	 R(12,14)         =         2.066741	       1.093672
	 R(13,14)         =         2.068237	       1.094464
	 B(1,4,2)         =         1.884647	     107.982330
	 B(1,4,3)         =         1.879846	     107.707254
	 B(1,4,7)         =         1.927887	     110.459801
	 B(2,4,3)         =         1.881423	     107.797603
	 B(2,4,7)         =         1.947744	     111.597533
	 B(3,4,7)         =         1.939790	     111.141787
	 B(4,7,5)         =         1.926851	     110.400419
	 B(4,7,6)         =         1.892518	     108.433268
	 B(4,7,10)        =         1.971183	     112.940472
	 B(5,7,6)         =         1.850545	     106.028441
	 B(5,7,10)        =         1.918066	     109.897091
	 B(6,7,10)        =         1.900366	     108.882935
	 B(7,10,8)        =         1.900367	     108.882998
	 B(7,10,9)        =         1.918068	     109.897200
	 B(7,10,14)       =         1.971182	     112.940435
	 B(8,10,9)        =         1.850546	     106.028450
	 B(8,10,14)       =         1.892516	     108.433160
	 B(9,10,14)       =         1.926850	     110.400387
	 B(10,14,11)      =         1.947748	     111.597715
	 B(10,14,12)      =         1.927885	     110.459673
	 B(10,14,13)      =         1.939787	     111.141586
	 B(11,14,12)      =         1.884648	     107.982364
	 B(11,14,13)      =         1.881423	     107.797584
	 B(12,14,13)      =         1.879849	     107.707393
	 D(1,4,7,5)       =        -3.060785	    -175.370046
	 D(1,4,7,6)       =        -1.040528	     -59.617849
	 D(1,4,7,10)      =         1.067205	      61.146316
	 D(2,4,7,5)       =        -0.963978	     -55.231863
	 D(2,4,7,6)       =         1.056279	      60.520335
	 D(2,4,7,10)      =        -3.119174	    -178.715501
	 D(3,4,7,5)       =         1.136835	      65.135837
	 D(3,4,7,6)       =        -3.126094	    -179.111965
	 D(3,4,7,10)      =        -1.018361	     -58.347801
	 D(4,7,10,8)      =        -0.523643	     -30.002522
	 D(4,7,10,9)      =         1.496243	      85.728432
	 D(4,7,10,14)     =        -2.626898	    -150.510192
	 D(5,7,10,8)      =        -2.683686	    -153.763887
	 D(5,7,10,9)      =        -0.663800	     -38.032933
	 D(5,7,10,14)     =         1.496244	      85.728443
	 D(6,7,10,8)      =         1.579615	      90.505266
	 D(6,7,10,9)      =        -2.683684	    -153.763780
	 D(6,7,10,14)     =        -0.523641	     -30.002404
	 D(7,10,14,11)    =        -3.119187	    -178.716248
	 D(7,10,14,12)    =         1.067190	      61.145492
	 D(7,10,14,13)    =        -1.018375	     -58.348585
	 D(8,10,14,11)    =         1.056266	      60.519608
	 D(8,10,14,12)    =        -1.040542	     -59.618653
	 D(8,10,14,13)    =        -3.126107	    -179.112730
	 D(9,10,14,11)    =        -0.963989	     -55.232520
	 D(9,10,14,12)    =        -3.060798	    -175.370781
	 D(9,10,14,13)    =         1.136823	      65.135142

	Current energy   :      -157.8418459545

	Energy change for the previous step:
		Projected    :        -0.0000001475
		Actual       :        -0.0000005691

	Performing BFGS update.
	Previous computed or guess Hessian on step 1.
	Steps to be used in Hessian update: 7 6
	Adding user-defined constraint: Fragment 1; Coordinate 49:
		Value =    -2.626898; Fixed value    =    -2.617990
		Force =     0.006013; Force constant =     0.675000
	Removing off-diagonal coupling between coordinate 49 and others.
	Taking RFO optimization step.
	Going to follow RFO solution 1.
	Rejecting RFO root 1 because normalization gives large value.
	Rejecting RFO root 2 because normalization gives large value.
	Using RFO vector 3.
	Norm of target step-size    0.00061
	Projected energy change by RFO approximation:        -0.0000000524

	Back-transformation to cartesian coordinates...
	Successfully converged to displaced geometry.

	--- Internal Coordinate Step in ANG or DEG, aJ/ANG or AJ/DEG ---
	 ---------------------------------------------------------------------------
	   Coordinate                Previous        Force       Change         New 
	   ----------                --------       ------       ------       ------
	    1 R(1,4)          =      1.093673    -0.000077    -0.000012     1.093661
	    2 R(2,4)          =      1.093693    -0.000111    -0.000018     1.093676
	    3 R(3,4)          =      1.094464    -0.000131    -0.000023     1.094442
	    4 R(4,7)          =      1.525004     0.000080     0.000027     1.525031
	    5 R(5,7)          =      1.095827     0.000038     0.000007     1.095835
	    6 R(6,7)          =      1.097178     0.000096     0.000015     1.097193
	    7 R(7,10)         =      1.532151    -0.000279    -0.000052     1.532098
	    8 R(8,10)         =      1.097178     0.000099     0.000015     1.097193
	    9 R(9,10)         =      1.095827     0.000040     0.000008     1.095835
	   10 R(10,14)        =      1.525003     0.000089     0.000029     1.525032
	   11 R(11,14)        =      1.093692    -0.000107    -0.000017     1.093676
	   12 R(12,14)        =      1.093672    -0.000073    -0.000011     1.093661
	   13 R(13,14)        =      1.094464    -0.000128    -0.000022     1.094442
	   14 B(1,4,2)        =    107.982330    -0.000000     0.001372   107.983702
	   15 B(1,4,3)        =    107.707254     0.000000     0.000795   107.708049
	   16 B(1,4,7)        =    110.459801     0.000000     0.003271   110.463071
	   17 B(2,4,3)        =    107.797603     0.000000     0.001036   107.798639
	   18 B(2,4,7)        =    111.597533    -0.000000    -0.000226   111.597308
	   19 B(3,4,7)        =    111.141787    -0.000001    -0.006072   111.135716
	   20 B(4,7,5)        =    110.400419     0.000005     0.003061   110.403481
	   21 B(4,7,6)        =    108.433268    -0.000004     0.000919   108.434188
	   22 B(4,7,10)       =    112.940472    -0.000002    -0.007627   112.932846
	   23 B(5,7,6)        =    106.028441    -0.000000     0.005586   106.034027
	   24 B(5,7,10)       =    109.897091     0.000000    -0.001287   109.895805
	   25 B(6,7,10)       =    108.882935     0.000000     0.000191   108.883126
	   26 B(7,10,8)       =    108.882998     0.000000     0.000120   108.883118
	   27 B(7,10,9)       =    109.897200     0.000000    -0.001464   109.895736
	   28 B(7,10,14)      =    112.940435    -0.000002    -0.007582   112.932853
	   29 B(8,10,9)       =    106.028450    -0.000000     0.005561   106.034011
	   30 B(8,10,14)      =    108.433160    -0.000004     0.001065   108.434225
	   31 B(9,10,14)      =    110.400387     0.000005     0.003142   110.403529
	   32 B(10,14,11)     =    111.597715    -0.000000    -0.000446   111.597269
	   33 B(10,14,12)     =    110.459673     0.000001     0.003432   110.463105
	   34 B(10,14,13)     =    111.141586    -0.000001    -0.005798   111.135788
	   35 B(11,14,12)     =    107.982364    -0.000000     0.001328   107.983692
	   36 B(11,14,13)     =    107.797584     0.000000     0.001024   107.798608
	   37 B(12,14,13)     =    107.707393     0.000000     0.000625   107.708018
	   38 D(1,4,7,5)      =   -175.370046     0.000000    -0.011213  -175.381259
	   39 D(1,4,7,6)      =    -59.617849     0.000000    -0.002299   -59.620148
	   40 D(1,4,7,10)     =     61.146316    -0.000001    -0.006303    61.140013
	   41 D(2,4,7,5)      =    -55.231863     0.000000    -0.007424   -55.239287
	   42 D(2,4,7,6)      =     60.520335     0.000000     0.001490    60.521825
	   43 D(2,4,7,10)     =   -178.715501    -0.000000    -0.002514  -178.718015
	   44 D(3,4,7,5)      =     65.135837     0.000000    -0.010421    65.125416
	   45 D(3,4,7,6)      =   -179.111965     0.000000    -0.001507  -179.113472
	   46 D(3,4,7,10)     =    -58.347801    -0.000001    -0.005511   -58.353311
	   47 D(4,7,10,8)     =    -30.002522     0.000001     0.000057   -30.002465
	   48 D(4,7,10,9)     =     85.728432     0.000001     0.005983    85.734414
	   49 D(4,7,10,14)    =   -150.510192     0.000002     0.003528  -150.506664
	   50 D(5,7,10,8)     =   -153.763887    -0.000000     0.002515  -153.761372
	   51 D(5,7,10,9)     =    -38.032933    -0.000000     0.008441   -38.024492
	   52 D(5,7,10,14)    =     85.728443     0.000001     0.005987    85.734430
	   53 D(6,7,10,8)     =     90.505266    -0.000000    -0.003579    90.501687
	   54 D(6,7,10,9)     =   -153.763780    -0.000000     0.002347  -153.761433
	   55 D(6,7,10,14)    =    -30.002404     0.000001    -0.000108   -30.002511
	   56 D(7,10,14,11)   =   -178.716248    -0.000000    -0.001123  -178.717370
	   57 D(7,10,14,12)   =     61.145492    -0.000001    -0.004819    61.140673
	   58 D(7,10,14,13)   =    -58.348585    -0.000001    -0.004097   -58.352683
	   59 D(8,10,14,11)   =     60.519608     0.000000     0.002841    60.522449
	   60 D(8,10,14,12)   =    -59.618653     0.000000    -0.000855   -59.619508
	   61 D(8,10,14,13)   =   -179.112730     0.000000    -0.000133  -179.112863
	   62 D(9,10,14,11)   =    -55.232520     0.000000    -0.006171   -55.238691
	   63 D(9,10,14,12)   =   -175.370781     0.000000    -0.009867  -175.380648
	   64 D(9,10,14,13)   =     65.135142     0.000000    -0.009146    65.125996
	 ---------------------------------------------------------------------------
	 Forces used to impose fixed constraints are not included.
	  Forces zeroed: 49 

  ==> Convergence Check <==

  Measures of convergence in internal coordinates in au.
  Criteria marked as inactive (o), active & met (*), and active & unmet ( ).
  ---------------------------------------------------------------------------------------------
   Step     Total Energy     Delta E     MAX Force     RMS Force      MAX Disp      RMS Disp   
  ---------------------------------------------------------------------------------------------
    Convergence Criteria    1.00e-06 *    3.00e-04 *             o    1.20e-03 *             o
  ---------------------------------------------------------------------------------------------
      8    -157.84184595   -5.69e-07 *    6.69e-05 *    2.52e-05 o    1.96e-04 *    7.58e-05 o  ~
  ---------------------------------------------------------------------------------------------


  **** Optimization is complete! (in 8 steps) ****

  ==> Optimization Summary <==

  Measures of convergence in internal coordinates in au.
  --------------------------------------------------------------------------------------------------------------- ~
   Step         Total Energy             Delta E       MAX Force       RMS Force        MAX Disp        RMS Disp  ~
  --------------------------------------------------------------------------------------------------------------- ~
      1    -157.835643613648   -157.835643613648      0.01786253      0.00728589      0.02807975      0.01251074  ~
      2    -157.839769749147     -0.004126135499      0.00723371      0.00322744      0.03229514      0.01249920  ~
      3    -157.841284811826     -0.001515062679      0.00238919      0.00100218      0.04818683      0.01249445  ~
      4    -157.841722872324     -0.000438060498      0.00107298      0.00032523      0.03665954      0.01249448  ~
      5    -157.841836433550     -0.000113561226      0.00019896      0.00007693      0.01945745      0.00946219  ~
      6    -157.841854830481     -0.000018396930      0.00024721      0.00005824      0.00687586      0.00336058  ~
      7    -157.841845385449      0.000009445032      0.00007379      0.00002732      0.00453269      0.00231661  ~
      8    -157.841845954539     -0.000000569090      0.00013547      0.00003038      0.00019570      0.00007579  ~
  --------------------------------------------------------------------------------------------------------------- ~

	Writing optimization data to binary file.
	Final energy is   -157.8418459545394
	Final (previous) structure:
	Cartesian Geometry (in Angstrom)
	    H    -2.2801788446   0.1358547922   0.1572396223
	    H    -2.1115679826   1.7629435484  -0.5172925187
	    H    -1.8366099039   0.3472455834  -1.5400138894
	    C    -1.6960028463   0.7513931899  -0.5326674595
	    H     0.3479568386   1.4247064677  -0.7784383007
	    H    -0.1351261904   1.1411065855   0.8813191426
	    C    -0.2231036243   0.7435703451  -0.1375159999
	    H    -0.3787829669  -1.3970282580   0.0440897869
	    H     0.7473133240  -0.8792804539  -1.1938260515
	    C     0.3989446839  -0.6560049355  -0.1791219273
	    H     1.9769891806  -1.8299607801   0.7596298341
	    H     1.1686607524  -0.6893597333   1.8442829536
	    H     2.3307328474  -0.1011879767   0.6502338563
	    C     1.5344907864  -0.8318231794   0.8235030137
	Saving final (previous) structure.
			--------------------------
			 OPTKING Finished Execution 
			--------------------------

    Final optimized geometry and variables:
    Molecular point group: c1
    Full point group: C1

    Geometry (in Angstrom), charge = 0, multiplicity = 1:

    H           -2.280178844624     0.135854792204     0.157239622316
    H           -2.111567982579     1.762943548427    -0.517292518728
    H           -1.836609903905     0.347245583441    -1.540013889374
    C           -1.696002846327     0.751393189925    -0.532667459524
    H            0.347956838602     1.424706467726    -0.778438300746
    H           -0.135126190371     1.141106585470     0.881319142640
    C           -0.223103624266     0.743570345081    -0.137515999911
    H           -0.378782966878    -1.397028258049     0.044089786876
    H            0.747313324033    -0.879280453926    -1.193826051477
    C            0.398944683931    -0.656004935502    -0.179121927288
    H            1.976989180566    -1.829960780138     0.759629834095
    H            1.168660752440    -0.689359733273     1.844282953559
    H            2.330732847364    -0.101187976664     0.650233856329
    C            1.534490786423    -0.831823179399     0.823503013677

	Cleaning optimization helper files.

*** Psi4 exiting successfully. Buy a developer a beer!
