    -----------------------------------------------------------------------
          Psi4: An Open-Source Ab Initio Electronic Structure Package
                              Psi4 1.0.0 Driver

                          Git: Rev {master} 6a9a71b 

    J. M. Turney, A. C. Simmonett, R. M. Parrish, E. G. Hohenstein,
    F. A. Evangelista, J. T. Fermann, B. J. Mintz, L. A. Burns, J. J. Wilke,
    M. L. Abrams, N. J. Russ, M. L. Leininger, C. L. Janssen, E. T. Seidl,
    W. D. Allen, H. F. Schaefer, R. A. King, E. F. Valeev, C. D. Sherrill,
    and T. D. Crawford, WIREs Comput. Mol. Sci. 2, 556-565 (2012)
    (doi: 10.1002/wcms.93)

                         Additional Contributions by
    A. E. DePrince, U. Bozkaya, A. Yu. Sokolov, D. G. A. Smith, R. Di Remigio,
    R. M. Richard, J. F. Gonthier, H. R. McAlexander, M. Saitow, and
    B. P. Pritchard
    -----------------------------------------------------------------------


    Psi4 started on: Thu Feb 16 16:34:52 2017

    Process ID:   2052
    PSI4DATADIR: /Users/sternc1/anaconda/share/psi4
    Memory level set to 256.000 MB

  ==> Input File <==

--------------------------------------------------------------------------

memory 1000 mb

molecule butane {
  symmetry C1
  0 1 
  H      1.604   0.760   -8.260
  H      1.745   2.388   -8.880
  H      2.043   1.024   -9.930
  C      2.142   1.395   -8.932
  H      4.169   2.051   -9.210
  H      3.731   1.788   -7.539
  C      3.631   1.416   -8.537
  H      4.589   -0.190   -9.594
  H      4.989   -0.119   -7.895
  C      4.203   -0.012   -8.612
  H      3.486   -2.021   -8.359
  H      2.301   -0.922   -9.024
  H      2.701   -0.852   -7.325
  C      3.088   -1.029   -8.307
  units Angstrom
}

dih_string = "4 7 10 14 330"
set optking fixed_dihedral = $dih_string

optimize('MP2/6-31G(d)')
--------------------------------------------------------------------------

  Memory set to 1000.000 MiB by Python script.
gradient() will perform analytic gradient computation.
    SCF Algorithm Type (re)set to DF.

*** tstart() called on lski1497
*** at Thu Feb 16 16:34:54 2017


         ---------------------------------------------------------
                                   SCF
            by Justin Turney, Rob Parrish, and Andy Simmonett
                              RHF Reference
                        1 Threads,   1000 MiB Core
         ---------------------------------------------------------

  ==> Geometry <==

    Molecular point group: c1
    Full point group: C1

    Geometry (in Angstrom), charge = 0, multiplicity = 1:

       Center              X                  Y                   Z               Mass       
    ------------   -----------------  -----------------  -----------------  -----------------
           H         -1.639406547468     0.326488792943     0.337798232578     1.007825032070
           H         -1.498406547468     1.954488792943    -0.282201767422     1.007825032070
           H         -1.200406547468     0.590488792943    -1.332201767422     1.007825032070
           C         -1.101406547468     0.961488792943    -0.334201767422    12.000000000000
           H          0.925593452532     1.617488792943    -0.612201767422     1.007825032070
           H          0.487593452532     1.354488792943     1.058798232578     1.007825032070
           C          0.387593452532     0.982488792943     0.060798232578    12.000000000000
           H          1.345593452532    -0.623511207057    -0.996201767422     1.007825032070
           H          1.745593452532    -0.552511207057     0.702798232578     1.007825032070
           C          0.959593452532    -0.445511207057    -0.014201767422    12.000000000000
           H          0.242593452532    -2.454511207057     0.238798232578     1.007825032070
           H         -0.942406547468    -1.355511207057    -0.426201767422     1.007825032070
           H         -0.542406547468    -1.285511207057     1.272798232578     1.007825032070
           C         -0.155406547468    -1.462511207057     0.290798232578    12.000000000000

  Running in c1 symmetry.

  Rotational constants: A =      0.38640  B =      0.20047  C =      0.14895 [cm^-1]
  Rotational constants: A =  11583.88646  B =   6010.03908  C =   4465.42997 [MHz]
  Nuclear repulsion =  136.008553233335533

  Charge       = 0
  Multiplicity = 1
  Electrons    = 34
  Nalpha       = 17
  Nbeta        = 17

  ==> Algorithm <==

  SCF Algorithm Type is DF.
  DIIS enabled.
  MOM disabled.
  Fractional occupation disabled.
  Guess Type is SAD.
  Energy threshold   = 1.00e-10
  Density threshold  = 1.00e-10
  Integral threshold = 0.00e+00

  ==> Primary Basis <==

  Basis Set: 6-31G(D)
    Number of shells: 44
    Number of basis function: 80
    Number of Cartesian functions: 80
    Spherical Harmonics?: false
    Max angular momentum: 2

  ==> Pre-Iterations <==

   -------------------------------------------------------
    Irrep   Nso     Nmo     Nalpha   Nbeta   Ndocc  Nsocc
   -------------------------------------------------------
     A         80      80       0       0       0       0
   -------------------------------------------------------
    Total      80      80      17      17      17       0
   -------------------------------------------------------

  ==> Integral Setup <==

  ==> DFJK: Density-Fitted J/K Matrices <==

    J tasked:                  Yes
    K tasked:                  Yes
    wK tasked:                  No
    OpenMP threads:              1
    Integrals threads:           1
    Memory (MB):               715
    Algorithm:                Core
    Integral Cache:           NONE
    Schwarz Cutoff:          1E-12
    Fitting Condition:       1E-12

   => Auxiliary Basis Set <=

  Basis Set: 
    Number of shells: 186
    Number of basis function: 574
    Number of Cartesian functions: 574
    Spherical Harmonics?: false
    Max angular momentum: 3

  Minimum eigenvalue in the overlap matrix is 4.3036746089E-03.
  Using Symmetric Orthogonalization.
  SCF Guess: Superposition of Atomic Densities via on-the-fly atomic UHF.

  ==> Iterations <==

                           Total Energy        Delta E     RMS |[F,P]|

   @DF-RHF iter   0:  -158.86192350830629   -1.58862e+02   4.63438e-02 
   @DF-RHF iter   1:  -157.16639927014552    1.69552e+00   4.78249e-03 
   @DF-RHF iter   2:  -157.26762166645801   -1.01222e-01   1.61485e-03 DIIS
   @DF-RHF iter   3:  -157.27893252093662   -1.13109e-02   6.16476e-04 DIIS
   @DF-RHF iter   4:  -157.28087161412589   -1.93909e-03   8.71855e-05 DIIS
   @DF-RHF iter   5:  -157.28092900988190   -5.73958e-05   1.97317e-05 DIIS
   @DF-RHF iter   6:  -157.28093168685052   -2.67697e-06   5.40638e-06 DIIS
   @DF-RHF iter   7:  -157.28093184577381   -1.58923e-07   1.29295e-06 DIIS
   @DF-RHF iter   8:  -157.28093185787446   -1.21007e-08   3.13514e-07 DIIS
   @DF-RHF iter   9:  -157.28093185866965   -7.95183e-10   8.14111e-08 DIIS
   @DF-RHF iter  10:  -157.28093185871768   -4.80327e-11   2.39338e-08 DIIS
   @DF-RHF iter  11:  -157.28093185872098   -3.29692e-12   5.23472e-09 DIIS
   @DF-RHF iter  12:  -157.28093185872098    0.00000e+00   1.11831e-09 DIIS
   @DF-RHF iter  13:  -157.28093185872115   -1.70530e-13   2.18438e-10 DIIS
   @DF-RHF iter  14:  -157.28093185872115    0.00000e+00   7.08622e-11 DIIS

  ==> Post-Iterations <==

    Orbital Energies (a.u.)
    -----------------------

    Doubly Occupied:                                                      

       1A    -11.207391     2A    -11.206808     3A    -11.198659  
       4A    -11.198643     5A     -1.076727     6A     -0.968430  
       7A     -0.886498     8A     -0.773609     9A     -0.643884  
      10A     -0.628354    11A     -0.570557    12A     -0.539573  
      13A     -0.527965    14A     -0.509751    15A     -0.462900  
      16A     -0.454428    17A     -0.452486  

    Virtual:                                                              

      18A      0.232477    19A      0.280035    20A      0.288793  
      21A      0.305842    22A      0.312263    23A      0.318076  
      24A      0.357727    25A      0.360232    26A      0.362142  
      27A      0.377471    28A      0.402295    29A      0.425151  
      30A      0.460589    31A      0.714023    32A      0.733980  
      33A      0.758223    34A      0.771587    35A      0.781822  
      36A      0.827558    37A      0.847238    38A      0.930448  
      39A      0.946681    40A      0.999345    41A      1.123127  
      42A      1.148011    43A      1.171288    44A      1.184720  
      45A      1.190441    46A      1.210110    47A      1.213217  
      48A      1.213402    49A      1.232417    50A      1.270390  
      51A      1.272550    52A      1.303886    53A      1.330183  
      54A      1.606008    55A      1.682921    56A      1.723318  
      57A      1.750821    58A      1.946985    59A      1.980400  
      60A      2.083600    61A      2.165260    62A      2.295792  
      63A      2.308088    64A      2.321375    65A      2.360695  
      66A      2.445660    67A      2.514796    68A      2.611975  
      69A      2.661989    70A      2.690981    71A      2.732763  
      72A      2.750944    73A      2.810007    74A      2.929248  
      75A      2.957895    76A      3.097853    77A      4.591855  
      78A      4.694058    79A      4.790895    80A      4.976244  

    Final Occupation by Irrep:
              A 
    DOCC [    17 ]

  Energy converged.

  @DF-RHF Final Energy:  -157.28093185872115

   => Energetics <=

    Nuclear Repulsion Energy =            136.0085532333355332
    One-Electron Energy =                -479.9656462516441593
    Two-Electron Energy =                 186.6761611595875934
    DFT Exchange-Correlation Energy =       0.0000000000000000
    Empirical Dispersion Energy =           0.0000000000000000
    PCM Polarization Energy =               0.0000000000000000
    EFP Energy =                            0.0000000000000000
    Total Energy =                       -157.2809318587210328


  Saving occupied orbitals to File 180.

*** tstop() called on lski1497 at Thu Feb 16 16:35:00 2017
Module time:
	user time   =       5.07 seconds =       0.08 minutes
	system time =       0.16 seconds =       0.00 minutes
	total time  =          6 seconds =       0.10 minutes
Total time:
	user time   =       5.07 seconds =       0.08 minutes
	system time =       0.16 seconds =       0.00 minutes
	total time  =          6 seconds =       0.10 minutes


Properties will be evaluated at   0.000000,   0.000000,   0.000000 Bohr

Properties computed using the SCF density matrix

  Nuclear Dipole Moment: (a.u.)
     X:    -1.0088      Y:    -0.4013      Z:    -0.0356

  Electronic Dipole Moment: (a.u.)
     X:     1.0385      Y:     0.4127      Z:     0.0367

  Dipole Moment: (a.u.)
     X:     0.0297      Y:     0.0113      Z:     0.0010     Total:     0.0318

  Dipole Moment: (Debye)
     X:     0.0755      Y:     0.0288      Z:     0.0027     Total:     0.0808


  //>>>>>>>>>>>>>>>>>>>>>>>>>>>>>>>>>>>//
  //               DFMP2               //
  //<<<<<<<<<<<<<<<<<<<<<<<<<<<<<<<<<<<//


*** tstart() called on lski1497
*** at Thu Feb 16 16:35:00 2017


*** tstop() called on lski1497 at Thu Feb 16 16:35:00 2017
Module time:
	user time   =       0.56 seconds =       0.01 minutes
	system time =       0.00 seconds =       0.00 minutes
	total time  =          0 seconds =       0.00 minutes
Total time:
	user time   =       5.65 seconds =       0.09 minutes
	system time =       0.17 seconds =       0.00 minutes
	total time  =          6 seconds =       0.10 minutes
	 --------------------------------------------------------
	                          DF-MP2                         
	      2nd-Order Density-Fitted Moller-Plesset Theory     
	              RMP2 Wavefunction,   1 Threads             
	                                                         
	        Rob Parrish, Justin Turney, Andy Simmonett,      
	           Ed Hohenstein, and C. David Sherrill          
	 --------------------------------------------------------

   => Auxiliary Basis Set <=

  Basis Set: 
    Number of shells: 132
    Number of basis function: 364
    Number of Cartesian functions: 414
    Spherical Harmonics?: true
    Max angular momentum: 3

	 --------------------------------------------------------
	                 NBF =    80, NAUX =   364
	 --------------------------------------------------------
	   CLASS    FOCC     OCC    AOCC    AVIR     VIR    FVIR
	   PAIRS       0      17      17      63      63       0
	 --------------------------------------------------------

DGAS Warning! /src/lib/libfock/apps.cc:80 is not currently checking restricted

         ------------------------------------------------------------
                                     CPHF                           
                                  Rob Parrish                       
         ------------------------------------------------------------

  ==> Geometry <==

    Molecular point group: c1
    Full point group: C1

    Geometry (in Angstrom), charge = 0, multiplicity = 1:

       Center              X                  Y                   Z               Mass       
    ------------   -----------------  -----------------  -----------------  -----------------
           H         -1.639406547468     0.326488792943     0.337798232578     1.007825032070
           H         -1.498406547468     1.954488792943    -0.282201767422     1.007825032070
           H         -1.200406547468     0.590488792943    -1.332201767422     1.007825032070
           C         -1.101406547468     0.961488792943    -0.334201767422    12.000000000000
           H          0.925593452532     1.617488792943    -0.612201767422     1.007825032070
           H          0.487593452532     1.354488792943     1.058798232578     1.007825032070
           C          0.387593452532     0.982488792943     0.060798232578    12.000000000000
           H          1.345593452532    -0.623511207057    -0.996201767422     1.007825032070
           H          1.745593452532    -0.552511207057     0.702798232578     1.007825032070
           C          0.959593452532    -0.445511207057    -0.014201767422    12.000000000000
           H          0.242593452532    -2.454511207057     0.238798232578     1.007825032070
           H         -0.942406547468    -1.355511207057    -0.426201767422     1.007825032070
           H         -0.542406547468    -1.285511207057     1.272798232578     1.007825032070
           C         -0.155406547468    -1.462511207057     0.290798232578    12.000000000000

  Nuclear repulsion =  136.008553233335533
  Reference energy  = -157.280931858721146

  ==> Basis Set <==

  Basis Set: 6-31G(D)
    Number of shells: 44
    Number of basis function: 80
    Number of Cartesian functions: 80
    Spherical Harmonics?: false
    Max angular momentum: 2

  ==> CGRSolver (by Rob Parrish) <==

   Number of roots    =         1
   Preconditioning    =    JACOBI
   Convergence cutoff =     1E-06
   Maximum iterations =       100

  ==> CPHFRHamiltonian (by Rob Parrish) <== 

  ==> DFJK: Density-Fitted J/K Matrices <==

    J tasked:                  Yes
    K tasked:                  Yes
    wK tasked:                  No
    OpenMP threads:              1
    Integrals threads:           1
    Memory (MB):               715
    Algorithm:                Core
    Integral Cache:           NONE
    Schwarz Cutoff:          1E-12
    Fitting Condition:       1E-12

   => Auxiliary Basis Set <=

  Basis Set: 
    Number of shells: 186
    Number of basis function: 574
    Number of Cartesian functions: 574
    Spherical Harmonics?: false
    Max angular momentum: 3

  ==> CPHF Iterations <==

  => Iterations <=

             Iter  Converged  Remaining    Residual
  CGR           1          0          1   7.598E-02
  CGR           2          0          1   8.720E-03
  CGR           3          0          1   2.224E-03
  CGR           4          0          1   4.321E-04
  CGR           5          0          1   7.795E-05
  CGR           6          0          1   1.420E-05
  CGR           7          0          1   1.937E-06
  CGR           8          1          0   4.941E-07

    CGRSolver converged.

  ==> DFCorrGrad: Density-Fitted Correlated Gradients <==

    OpenMP threads:              1
    Integrals threads:           1
    Memory (MB):               715
    Schwarz Cutoff:          0E+00
    Fitting Condition:       1E-12

   => Auxiliary Basis Set <=

  Basis Set: 
    Number of shells: 186
    Number of basis function: 510
    Number of Cartesian functions: 574
    Spherical Harmonics?: true
    Max angular momentum: 3

	-----------------------------------------------------------
	 ==================> DF-MP2 Energies <==================== 
	-----------------------------------------------------------
	 Reference Energy          =    -157.2809318587211465 [Eh]
	 Singles Energy            =      -0.0000000000000000 [Eh]
	 Same-Spin Energy          =      -0.1254413306003166 [Eh]
	 Opposite-Spin Energy      =      -0.4215326808968617 [Eh]
	 Correlation Energy        =      -0.5469740114971784 [Eh]
	 Total Energy              =    -157.8279058702183306 [Eh]
	-----------------------------------------------------------
	 ================> DF-SCS-MP2 Energies <================== 
	-----------------------------------------------------------
	 SCS Same-Spin Scale       =       0.3333333333333333 [-]
	 SCS Opposite-Spin Scale   =       1.2000000000000000 [-]
	 SCS Same-Spin Energy      =      -0.0418137768667722 [Eh]
	 SCS Opposite-Spin Energy  =      -0.5058392170762340 [Eh]
	 SCS Correlation Energy    =      -0.5476529939430063 [Eh]
	 SCS Total Energy          =    -157.8285848526641644 [Eh]
	-----------------------------------------------------------


  -Total Gradient:
     Atom            X                  Y                   Z
    ------   -----------------  -----------------  -----------------
       1        0.011701037053     0.001584139742    -0.006509125669
       2        0.008809898990    -0.014473653875     0.000956212742
       3        0.005212073509     0.004434538413     0.016014771838
       4       -0.024770670291    -0.014250041034    -0.008515774431
       5       -0.009415560607    -0.013516571978     0.006622132250
       6       -0.001693933932    -0.008594369946    -0.015498563239
       7        0.018106922093     0.024444065777     0.010488247786
       8       -0.008045888790     0.004614650574     0.014966178383
       9       -0.016288313205     0.003571091949    -0.008018738431
      10        0.030888098924    -0.005367668505    -0.007895716548
      11       -0.003645635252     0.016999998789    -0.000734319702
      12        0.008935275225     0.006761400360     0.007149728189
      13        0.007446233503     0.000829303157    -0.014983193331
      14       -0.027239537220    -0.007036883425     0.005958160165


			-----------------------------------------
			 OPTKING 2.0: for geometry optimizations 
			  - R.A. King,  Bethel University        
			-----------------------------------------

	Previous internal coordinate definitions found.
	---Fragment 1 Geometry and Gradient---
	 H          -3.0980293952        0.6169744041        0.6383461477
	 H          -2.8315780104        3.6934485485       -0.5332840546
	 H          -2.2684396228        1.1158621032       -2.5174964942
	 C          -2.0813567357        1.8169504985       -0.6315498136
	 H           1.7491181357        3.0566108417       -1.1568936785
	 H           0.9214180895        2.5596128687        2.0008386896
	 C           0.7324454762        1.8566347473        0.1148920089
	 H           2.5428031115       -1.1782654221       -1.8825485135
	 H           3.2986935646       -1.0440948667        1.3280961862
	 C           1.8133688242       -0.8418941705       -0.0268374510
	 H           0.4584351869       -4.6383539714        0.4512632606
	 H          -1.7808902806       -2.5615449514       -0.8054046178
	 H          -1.0249998274       -2.4292641221        2.4052400820
	 C          -0.2936758140       -2.7637456476        0.5495290195
	             0.0117010371        0.0015841397       -0.0065091257
	             0.0088098990       -0.0144736539        0.0009562127
	             0.0052120735        0.0044345384        0.0160147718
	            -0.0247706703       -0.0142500410       -0.0085157744
	            -0.0094155606       -0.0135165720        0.0066221322
	            -0.0016939339       -0.0085943699       -0.0154985632
	             0.0181069221        0.0244440658        0.0104882478
	            -0.0080458888        0.0046146506        0.0149661784
	            -0.0162883132        0.0035710919       -0.0080187384
	             0.0308880989       -0.0053676685       -0.0078957165
	            -0.0036456353        0.0169999988       -0.0007343197
	             0.0089352752        0.0067614004        0.0071497282
	             0.0074462335        0.0008293032       -0.0149831933
	            -0.0272395372       -0.0070368834        0.0059581602

	Previous optimization step data not found.  Starting new optimization.

	---Fragment 1 Intrafragment Coordinates---
	 - Coordinate -           - BOHR/RAD -       - ANG/DEG -
	 R(1,4)           =         2.021436	       1.069698
	 R(2,4)           =         2.023298	       1.070683
	 R(3,4)           =         2.020723	       1.069320
	 R(4,7)           =         2.911397	       1.540645
	 R(5,7)           =         2.022623	       1.070326
	 R(6,7)           =         2.021555	       1.069761
	 R(7,10)          =         2.910419	       1.540128
	 R(8,10)          =         2.022099	       1.070049
	 R(9,10)          =         2.020624	       1.069268
	 R(10,14)         =         2.909527	       1.539655
	 R(11,14)         =         2.022247	       1.070127
	 R(12,14)         =         2.022013	       1.070003
	 R(13,14)         =         2.022468	       1.070244
	 B(1,4,2)         =         1.910870	     109.484805
	 B(1,4,3)         =         1.911121	     109.499161
	 B(1,4,7)         =         1.910399	     109.457783
	 B(2,4,3)         =         1.910042	     109.437340
	 B(2,4,7)         =         1.910564	     109.467262
	 B(3,4,7)         =         1.910803	     109.480971
	 B(4,7,5)         =         1.909937	     109.431343
	 B(4,7,6)         =         1.911630	     109.528316
	 B(4,7,10)        =         1.911154	     109.501062
	 B(5,7,6)         =         1.910605	     109.469614
	 B(5,7,10)        =         1.910047	     109.437654
	 B(6,7,10)        =         1.910425	     109.459295
	 B(7,10,8)        =         1.910176	     109.445000
	 B(7,10,9)        =         1.910425	     109.459288
	 B(7,10,14)       =         1.911170	     109.501953
	 B(8,10,9)        =         1.910877	     109.485160
	 B(8,10,14)       =         1.910443	     109.460349
	 B(9,10,14)       =         1.910709	     109.475573
	 B(10,14,11)      =         1.910649	     109.472142
	 B(10,14,12)      =         1.911184	     109.502783
	 B(10,14,13)      =         1.911752	     109.535296
	 B(11,14,12)      =         1.911009	     109.492779
	 B(11,14,13)      =         1.909622	     109.413305
	 B(12,14,13)      =         1.909582	     109.410974
	 D(1,4,7,5)       =         3.140997	     179.965873
	 D(1,4,7,6)       =        -1.047644	     -60.025575
	 D(1,4,7,10)      =         1.047427	      60.013132
	 D(2,4,7,5)       =        -1.047689	     -60.028143
	 D(2,4,7,6)       =         1.046856	      59.980409
	 D(2,4,7,10)      =        -3.141259	    -179.980883
	 D(3,4,7,5)       =         1.046044	      59.933911
	 D(3,4,7,6)       =         3.140588	     179.942463
	 D(3,4,7,10)      =        -1.047526	     -60.018830
	 D(4,7,10,8)      =         1.570742	      89.996863
	 D(4,7,10,9)      =        -2.618158	    -150.009419
	 D(4,7,10,14)     =        -0.523469	     -29.992576
	 D(5,7,10,8)      =        -0.522761	     -29.952013
	 D(5,7,10,9)      =         1.571524	      90.041705
	 D(5,7,10,14)     =        -2.616972	    -149.941452
	 D(6,7,10,8)      =        -2.616636	    -149.922212
	 D(6,7,10,9)      =        -0.522351	     -29.928493
	 D(6,7,10,14)     =         1.572338	      90.088350
	 D(7,10,14,11)    =        -3.141349	    -179.986053
	 D(7,10,14,12)    =         1.046633	      59.967629
	 D(7,10,14,13)    =        -1.047497	     -60.017186
	 D(8,10,14,11)    =         1.047789	      60.033904
	 D(8,10,14,12)    =        -1.047414	     -60.012414
	 D(8,10,14,13)    =        -3.141544	    -179.997229
	 D(9,10,14,11)    =        -1.046834	     -59.979175
	 D(9,10,14,12)    =         3.141148	     179.974506
	 D(9,10,14,13)    =         1.047018	      59.989692

	Current energy   :      -157.8279058702

	Generating empirical Hessian (Schlegel '84) for each fragment.
	Adding user-defined constraint: Fragment 1; Coordinate 49:
		Value =    -0.523469; Fixed value    =    -0.523600
		Force =    -0.000065; Force constant =     0.500000
	Removing off-diagonal coupling between coordinate 49 and others.
	Taking RFO optimization step.
	Going to follow RFO solution 1.
	Using RFO vector 1.

	Determining step-restricting scale parameter for RS-RFO.
	Maximum step size allowed    0.10000

	 Iter      |step|        alpha        rfo_root  
	------------------------------------------------
	    0     0.43553       1.00000           1
	    1     0.29553       4.30669           1
	    2     0.20039      13.69452           1
	    3     0.14356      32.38158           1
	    4     0.11378      56.56058           1
	    5     0.10217      72.62254           1
	    6     0.10007      76.18098           1
	    7     0.10000      76.30350           1
	------------------------------------------------
	Norm of target step-size    0.10000
	Projected energy change by RFO approximation:        -0.0097464877

	Back-transformation to cartesian coordinates...
	Could not converge backtransformation.
	Using first guess instead.

	--- Internal Coordinate Step in ANG or DEG, aJ/ANG or AJ/DEG ---
	 ---------------------------------------------------------------------------
	   Coordinate                Previous        Force       Change         New 
	   ----------                --------       ------       ------       ------
	    1 R(1,4)          =      1.069698     0.089921     0.006168     1.075865
	    2 R(2,4)          =      1.070683     0.137123     0.008907     1.079589
	    3 R(3,4)          =      1.069320     0.139793     0.008142     1.077462
	    4 R(4,7)          =      1.540645     0.009144     0.002225     1.542870
	    5 R(5,7)          =      1.070326     0.139364     0.008131     1.078457
	    6 R(6,7)          =      1.069761     0.145050     0.008194     1.077954
	    7 R(7,10)         =      1.540128     0.178516     0.011019     1.551147
	    8 R(8,10)         =      1.070049     0.143392     0.008103     1.078152
	    9 R(9,10)         =      1.069268     0.145888     0.008490     1.077758
	   10 R(10,14)        =      1.539655     0.013253     0.002478     1.542133
	   11 R(11,14)        =      1.070127     0.140710     0.009103     1.079230
	   12 R(12,14)        =      1.070003     0.088046     0.006065     1.076068
	   13 R(13,14)        =      1.070244     0.134318     0.007839     1.078083
	   14 B(1,4,2)        =    109.484805    -0.000448    -0.350511   109.134294
	   15 B(1,4,3)        =    109.499161    -0.000273    -0.286590   109.212571
	   16 B(1,4,7)        =    109.457783     0.000622     0.537242   109.995025
	   17 B(2,4,3)        =    109.437340    -0.000306    -0.231069   109.206271
	   18 B(2,4,7)        =    109.467262     0.000116     0.106488   109.573750
	   19 B(3,4,7)        =    109.480971     0.000289     0.219670   109.700642
	   20 B(4,7,5)        =    109.431343    -0.001146    -0.838820   108.592523
	   21 B(4,7,6)        =    109.528316    -0.000990    -0.782602   108.745715
	   22 B(4,7,10)       =    109.501062     0.003672     2.827186   112.328248
	   23 B(5,7,6)        =    109.469614     0.000423     0.229974   109.699587
	   24 B(5,7,10)       =    109.437654    -0.001035    -0.776212   108.661443
	   25 B(6,7,10)       =    109.459295    -0.000924    -0.669334   108.789960
	   26 B(7,10,8)       =    109.445000    -0.000924    -0.669386   108.775614
	   27 B(7,10,9)       =    109.459288    -0.001038    -0.778783   108.680505
	   28 B(7,10,14)      =    109.501953     0.003675     2.829365   112.331318
	   29 B(8,10,9)       =    109.485160     0.000422     0.229066   109.714226
	   30 B(8,10,14)      =    109.460349    -0.000983    -0.776305   108.684044
	   31 B(9,10,14)      =    109.475573    -0.001151    -0.843138   108.632435
	   32 B(10,14,11)     =    109.472142     0.000120     0.109798   109.581940
	   33 B(10,14,12)     =    109.502783     0.000615     0.531709   110.034492
	   34 B(10,14,13)     =    109.535296     0.000280     0.213554   109.748850
	   35 B(11,14,12)     =    109.492779    -0.000448    -0.351611   109.141168
	   36 B(11,14,13)     =    109.413305    -0.000304    -0.230206   109.183099
	   37 B(12,14,13)     =    109.410974    -0.000264    -0.278946   109.132028
	   38 D(1,4,7,5)      =    179.965873     0.000122     0.435643   180.401516
	   39 D(1,4,7,6)      =    -60.025575    -0.000059    -0.249810   -60.275385
	   40 D(1,4,7,10)     =     60.013132     0.000059     0.181993    60.195125
	   41 D(2,4,7,5)      =    -60.028143     0.000100     0.402112   -59.626031
	   42 D(2,4,7,6)      =     59.980409    -0.000081    -0.283341    59.697068
	   43 D(2,4,7,10)     =   -179.980883     0.000037     0.148461  -179.832422
	   44 D(3,4,7,5)      =     59.933911     0.000071     0.319082    60.252993
	   45 D(3,4,7,6)      =    179.942463    -0.000110    -0.366371   179.576092
	   46 D(3,4,7,10)     =    -60.018830     0.000008     0.065432   -59.953398
	   47 D(4,7,10,8)     =     89.996863     0.000040     0.191262    90.188125
	   48 D(4,7,10,9)     =   -150.009419    -0.000117    -0.393462  -150.402881
	   49 D(4,7,10,14)    =    -29.992576    -0.000070    -0.179167   -30.171743
	   50 D(5,7,10,8)     =    -29.952013    -0.000008    -0.026318   -29.978331
	   51 D(5,7,10,9)     =     90.041705    -0.000164    -0.611041    89.430664
	   52 D(5,7,10,14)    =   -149.941452    -0.000117    -0.396747  -150.338199
	   53 D(6,7,10,8)     =   -149.922212     0.000148     0.555279  -149.366932
	   54 D(6,7,10,9)     =    -29.928493    -0.000009    -0.029444   -29.957938
	   55 D(6,7,10,14)    =     90.088350     0.000038     0.184850    90.273200
	   56 D(7,10,14,11)   =   -179.986053     0.000037     0.148791  -179.837262
	   57 D(7,10,14,12)   =     59.967629     0.000060     0.184556    60.152185
	   58 D(7,10,14,13)   =    -60.017186     0.000008     0.065257   -59.951929
	   59 D(8,10,14,11)   =     60.033904    -0.000081    -0.283983    59.749921
	   60 D(8,10,14,12)   =    -60.012414    -0.000059    -0.248217   -60.260631
	   61 D(8,10,14,13)   =   -179.997229    -0.000110    -0.367517  -180.364746
	   62 D(9,10,14,11)   =    -59.979175     0.000100     0.400886   -59.578289
	   63 D(9,10,14,12)   =    179.974506     0.000123     0.436652   180.411158
	   64 D(9,10,14,13)   =     59.989692     0.000071     0.317352    60.307044
	 ---------------------------------------------------------------------------
	 Forces used to impose fixed constraints are not included.
	  Forces zeroed: 49 

  ==> Convergence Check <==

  Measures of convergence in internal coordinates in au.
  Criteria marked as inactive (o), active & met (*), and active & unmet ( ).
  --------------------------------------------------------------------------------------------- ~
   Step     Total Energy     Delta E     MAX Force     RMS Force      MAX Disp      RMS Disp    ~
  --------------------------------------------------------------------------------------------- ~
    Convergence Criteria    1.00e-06 *    3.00e-04 *             o    1.20e-03 *             o  ~
  --------------------------------------------------------------------------------------------- ~
      1    -157.82790587   -1.58e+02      4.83e-02      1.26e-02 o    4.94e-02      1.27e-02 o  ~
  ---------------------------------------------------------------------------------------------

	Writing optimization data to binary file.
	Structure for next step:
	Cartesian Geometry (in Angstrom)
	    H    -1.7002120286   0.4240806653   0.3295478443
	    H    -1.4744971862   2.0512922635  -0.2914759996
	    H    -1.2440494361   0.6650155997  -1.3483093636
	    C    -1.1212390333   1.0324312554  -0.3428996525
	    H     0.9269437710   1.6034049782  -0.6318404452
	    H     0.4757668399   1.3591244082   1.0550417523
	    C     0.3696734373   0.9817826999   0.0508789733
	    H     1.3399499101  -0.6349347534  -0.9930576839
	    H     1.7359572424  -0.5417002454   0.7222857756
	    C     0.9455033228  -0.4574185343  -0.0054794738
	    H     0.3257577453  -2.5088183081   0.2518037042
	    H    -0.9199068553  -1.4684565343  -0.4191790434
	    H    -0.5236441839  -1.3700594382   1.2878385833
	    C    -0.1216952099  -1.5279009552   0.3000202851
			--------------------------
			 OPTKING Finished Execution 
			--------------------------

    Structure for next step:
    Molecular point group: c1
    Full point group: C1

    Geometry (in Angstrom), charge = 0, multiplicity = 1:

    H           -1.696780410952     0.425417009191     0.329675181382
    H           -1.471065568541     2.052628607379    -0.291348662558
    H           -1.240617818464     0.666351943544    -1.348182026533
    C           -1.117807415656     1.033767599274    -0.342772315372
    H            0.930375388613     1.604741322046    -0.631713108115
    H            0.479198457505     1.360460752053     1.055169089403
    C            0.373105054935     0.983119043780     0.051006310421
    H            1.343381527745    -0.633598409487    -0.992930346811
    H            1.739388860064    -0.540363901553     0.722413112703
    C            0.948934940394    -0.456082190382    -0.005352136730
    H            0.329189362892    -2.507481964161     0.251931041289
    H           -0.916475237612    -1.467120190403    -0.419051706289
    H           -0.520212566260    -1.368723094345     1.287965920423
    C           -0.118263592279    -1.526564611270     0.300147622164

gradient() will perform analytic gradient computation.
    SCF Algorithm Type (re)set to DF.

*** tstart() called on lski1497
*** at Thu Feb 16 16:35:21 2017


         ---------------------------------------------------------
                                   SCF
            by Justin Turney, Rob Parrish, and Andy Simmonett
                              RHF Reference
                        1 Threads,   1000 MiB Core
         ---------------------------------------------------------

  ==> Geometry <==

    Molecular point group: c1
    Full point group: C1

    Geometry (in Angstrom), charge = 0, multiplicity = 1:

       Center              X                  Y                   Z               Mass       
    ------------   -----------------  -----------------  -----------------  -----------------
           H         -1.696780410952     0.425417009191     0.329675181382     1.007825032070
           H         -1.471065568541     2.052628607379    -0.291348662558     1.007825032070
           H         -1.240617818464     0.666351943544    -1.348182026533     1.007825032070
           C         -1.117807415656     1.033767599274    -0.342772315372    12.000000000000
           H          0.930375388613     1.604741322046    -0.631713108115     1.007825032070
           H          0.479198457505     1.360460752053     1.055169089403     1.007825032070
           C          0.373105054935     0.983119043780     0.051006310421    12.000000000000
           H          1.343381527745    -0.633598409487    -0.992930346811     1.007825032070
           H          1.739388860064    -0.540363901553     0.722413112703     1.007825032070
           C          0.948934940394    -0.456082190382    -0.005352136730    12.000000000000
           H          0.329189362892    -2.507481964161     0.251931041289     1.007825032070
           H         -0.916475237612    -1.467120190403    -0.419051706289     1.007825032070
           H         -0.520212566260    -1.368723094345     1.287965920423     1.007825032070
           C         -0.118263592279    -1.526564611270     0.300147622164    12.000000000000

  Running in c1 symmetry.

  Rotational constants: A =      0.39451  B =      0.18563  C =      0.14162 [cm^-1]
  Rotational constants: A =  11827.21009  B =   5564.98270  C =   4245.53682 [MHz]
  Nuclear repulsion =  134.172381038469723

  Charge       = 0
  Multiplicity = 1
  Electrons    = 34
  Nalpha       = 17
  Nbeta        = 17

  ==> Algorithm <==

  SCF Algorithm Type is DF.
  DIIS enabled.
  MOM disabled.
  Fractional occupation disabled.
  Guess Type is READ.
  Energy threshold   = 1.00e-10
  Density threshold  = 1.00e-10
  Integral threshold = 0.00e+00

  ==> Primary Basis <==

  Basis Set: 6-31G(D)
    Number of shells: 44
    Number of basis function: 80
    Number of Cartesian functions: 80
    Spherical Harmonics?: false
    Max angular momentum: 2

  ==> Pre-Iterations <==

   -------------------------------------------------------
    Irrep   Nso     Nmo     Nalpha   Nbeta   Ndocc  Nsocc
   -------------------------------------------------------
     A         80      80       0       0       0       0
   -------------------------------------------------------
    Total      80      80      17      17      17       0
   -------------------------------------------------------

  ==> Integral Setup <==

  ==> DFJK: Density-Fitted J/K Matrices <==

    J tasked:                  Yes
    K tasked:                  Yes
    wK tasked:                  No
    OpenMP threads:              1
    Integrals threads:           1
    Memory (MB):               715
    Algorithm:                Core
    Integral Cache:           NONE
    Schwarz Cutoff:          1E-12
    Fitting Condition:       1E-12

   => Auxiliary Basis Set <=

  Basis Set: 
    Number of shells: 186
    Number of basis function: 574
    Number of Cartesian functions: 574
    Spherical Harmonics?: false
    Max angular momentum: 3

  Minimum eigenvalue in the overlap matrix is 4.5043195890E-03.
  Using Symmetric Orthogonalization.
  SCF Guess was Projection but file not found.
  Switching over to SAD guess.

  SCF Guess: Superposition of Atomic Densities via on-the-fly atomic UHF.

  ==> Iterations <==

                           Total Energy        Delta E     RMS |[F,P]|

   @DF-RHF iter   0:  -158.73449880097502   -1.58734e+02   4.53842e-02 
   @DF-RHF iter   1:  -157.17322900684297    1.56127e+00   4.79122e-03 
   @DF-RHF iter   2:  -157.27478368106250   -1.01555e-01   1.65409e-03 DIIS
   @DF-RHF iter   3:  -157.28641197527844   -1.16283e-02   6.18017e-04 DIIS
   @DF-RHF iter   4:  -157.28840713076505   -1.99516e-03   8.53449e-05 DIIS
   @DF-RHF iter   5:  -157.28846234784146   -5.52171e-05   1.87623e-05 DIIS
   @DF-RHF iter   6:  -157.28846479437215   -2.44653e-06   5.09317e-06 DIIS
   @DF-RHF iter   7:  -157.28846493019449   -1.35822e-07   1.20106e-06 DIIS
   @DF-RHF iter   8:  -157.28846494049600   -1.03015e-08   2.84447e-07 DIIS
   @DF-RHF iter   9:  -157.28846494114651   -6.50516e-10   7.55979e-08 DIIS
   @DF-RHF iter  10:  -157.28846494118847   -4.19504e-11   2.21605e-08 DIIS
   @DF-RHF iter  11:  -157.28846494119131   -2.84217e-12   4.78845e-09 DIIS
   @DF-RHF iter  12:  -157.28846494119119    1.13687e-13   1.05269e-09 DIIS
   @DF-RHF iter  13:  -157.28846494119136   -1.70530e-13   2.45223e-10 DIIS
   @DF-RHF iter  14:  -157.28846494119131    5.68434e-14   7.68253e-11 DIIS

  ==> Post-Iterations <==

    Orbital Energies (a.u.)
    -----------------------

    Doubly Occupied:                                                      

       1A    -11.211308     2A    -11.210759     3A    -11.203283  
       4A    -11.203266     5A     -1.069004     6A     -0.970940  
       7A     -0.880683     8A     -0.771518     9A     -0.639924  
      10A     -0.619622    11A     -0.571604    12A     -0.533466  
      13A     -0.527419    14A     -0.513355    15A     -0.461241  
      16A     -0.453811    17A     -0.453007  

    Virtual:                                                              

      18A      0.228193    19A      0.280392    20A      0.288346  
      21A      0.302161    22A      0.310278    23A      0.316228  
      24A      0.352741    25A      0.354719    26A      0.358053  
      27A      0.375405    28A      0.395744    29A      0.420389  
      30A      0.465273    31A      0.713213    32A      0.731956  
      33A      0.741821    34A      0.774861    35A      0.779073  
      36A      0.829044    37A      0.854219    38A      0.920470  
      39A      0.946123    40A      1.000158    41A      1.114725  
      42A      1.128694    43A      1.166084    44A      1.171791  
      45A      1.179080    46A      1.193443    47A      1.201560  
      48A      1.205193    49A      1.230857    50A      1.259395  
      51A      1.261669    52A      1.292203    53A      1.317177  
      54A      1.607449    55A      1.672183    56A      1.718995  
      57A      1.721708    58A      1.935282    59A      1.985700  
      60A      2.065635    61A      2.164063    62A      2.287553  
      63A      2.292409    64A      2.318931    65A      2.355731  
      66A      2.433129    67A      2.501937    68A      2.602071  
      69A      2.657680    70A      2.675365    71A      2.710076  
      72A      2.738339    73A      2.788021    74A      2.919262  
      75A      2.967472    76A      3.084446    77A      4.564776  
      78A      4.696402    79A      4.783091    80A      4.967557  

    Final Occupation by Irrep:
              A 
    DOCC [    17 ]

  Energy converged.

  @DF-RHF Final Energy:  -157.28846494119131

   => Energetics <=

    Nuclear Repulsion Energy =            134.1723810384697231
    One-Electron Energy =                -476.3332692258503585
    Two-Electron Energy =                 184.8724232461893848
    DFT Exchange-Correlation Energy =       0.0000000000000000
    Empirical Dispersion Energy =           0.0000000000000000
    PCM Polarization Energy =               0.0000000000000000
    EFP Energy =                            0.0000000000000000
    Total Energy =                       -157.2884649411912505


  Saving occupied orbitals to File 180.

*** tstop() called on lski1497 at Thu Feb 16 16:35:27 2017
Module time:
	user time   =       5.07 seconds =       0.08 minutes
	system time =       0.13 seconds =       0.00 minutes
	total time  =          6 seconds =       0.10 minutes
Total time:
	user time   =      28.56 seconds =       0.48 minutes
	system time =       0.80 seconds =       0.01 minutes
	total time  =         33 seconds =       0.55 minutes


Properties will be evaluated at   0.000000,   0.000000,   0.000000 Bohr

Properties computed using the SCF density matrix

  Nuclear Dipole Moment: (a.u.)
     X:    -0.9596      Y:    -0.3822      Z:    -0.0338

  Electronic Dipole Moment: (a.u.)
     X:     0.9881      Y:     0.3933      Z:     0.0348

  Dipole Moment: (a.u.)
     X:     0.0285      Y:     0.0111      Z:     0.0010     Total:     0.0306

  Dipole Moment: (Debye)
     X:     0.0724      Y:     0.0281      Z:     0.0025     Total:     0.0778


  //>>>>>>>>>>>>>>>>>>>>>>>>>>>>>>>>>>>//
  //               DFMP2               //
  //<<<<<<<<<<<<<<<<<<<<<<<<<<<<<<<<<<<//


*** tstart() called on lski1497
*** at Thu Feb 16 16:35:27 2017


*** tstop() called on lski1497 at Thu Feb 16 16:35:27 2017
Module time:
	user time   =       0.54 seconds =       0.01 minutes
	system time =       0.00 seconds =       0.00 minutes
	total time  =          0 seconds =       0.00 minutes
Total time:
	user time   =      29.12 seconds =       0.49 minutes
	system time =       0.80 seconds =       0.01 minutes
	total time  =         33 seconds =       0.55 minutes
	 --------------------------------------------------------
	                          DF-MP2                         
	      2nd-Order Density-Fitted Moller-Plesset Theory     
	              RMP2 Wavefunction,   1 Threads             
	                                                         
	        Rob Parrish, Justin Turney, Andy Simmonett,      
	           Ed Hohenstein, and C. David Sherrill          
	 --------------------------------------------------------

   => Auxiliary Basis Set <=

  Basis Set: 
    Number of shells: 132
    Number of basis function: 364
    Number of Cartesian functions: 414
    Spherical Harmonics?: true
    Max angular momentum: 3

	 --------------------------------------------------------
	                 NBF =    80, NAUX =   364
	 --------------------------------------------------------
	   CLASS    FOCC     OCC    AOCC    AVIR     VIR    FVIR
	   PAIRS       0      17      17      63      63       0
	 --------------------------------------------------------

DGAS Warning! /src/lib/libfock/apps.cc:80 is not currently checking restricted

         ------------------------------------------------------------
                                     CPHF                           
                                  Rob Parrish                       
         ------------------------------------------------------------

  ==> Geometry <==

    Molecular point group: c1
    Full point group: C1

    Geometry (in Angstrom), charge = 0, multiplicity = 1:

       Center              X                  Y                   Z               Mass       
    ------------   -----------------  -----------------  -----------------  -----------------
           H         -1.696780410952     0.425417009191     0.329675181382     1.007825032070
           H         -1.471065568541     2.052628607379    -0.291348662558     1.007825032070
           H         -1.240617818464     0.666351943544    -1.348182026533     1.007825032070
           C         -1.117807415656     1.033767599274    -0.342772315372    12.000000000000
           H          0.930375388613     1.604741322046    -0.631713108115     1.007825032070
           H          0.479198457505     1.360460752053     1.055169089403     1.007825032070
           C          0.373105054935     0.983119043780     0.051006310421    12.000000000000
           H          1.343381527745    -0.633598409487    -0.992930346811     1.007825032070
           H          1.739388860064    -0.540363901553     0.722413112703     1.007825032070
           C          0.948934940394    -0.456082190382    -0.005352136730    12.000000000000
           H          0.329189362892    -2.507481964161     0.251931041289     1.007825032070
           H         -0.916475237612    -1.467120190403    -0.419051706289     1.007825032070
           H         -0.520212566260    -1.368723094345     1.287965920423     1.007825032070
           C         -0.118263592279    -1.526564611270     0.300147622164    12.000000000000

  Nuclear repulsion =  134.172381038469723
  Reference energy  = -157.288464941191307

  ==> Basis Set <==

  Basis Set: 6-31G(D)
    Number of shells: 44
    Number of basis function: 80
    Number of Cartesian functions: 80
    Spherical Harmonics?: false
    Max angular momentum: 2

  ==> CGRSolver (by Rob Parrish) <==

   Number of roots    =         1
   Preconditioning    =    JACOBI
   Convergence cutoff =     1E-06
   Maximum iterations =       100

  ==> CPHFRHamiltonian (by Rob Parrish) <== 

  ==> DFJK: Density-Fitted J/K Matrices <==

    J tasked:                  Yes
    K tasked:                  Yes
    wK tasked:                  No
    OpenMP threads:              1
    Integrals threads:           1
    Memory (MB):               715
    Algorithm:                Core
    Integral Cache:           NONE
    Schwarz Cutoff:          1E-12
    Fitting Condition:       1E-12

   => Auxiliary Basis Set <=

  Basis Set: 
    Number of shells: 186
    Number of basis function: 574
    Number of Cartesian functions: 574
    Spherical Harmonics?: false
    Max angular momentum: 3

  ==> CPHF Iterations <==

  => Iterations <=

             Iter  Converged  Remaining    Residual
  CGR           1          0          1   7.488E-02
  CGR           2          0          1   8.615E-03
  CGR           3          0          1   2.228E-03
  CGR           4          0          1   4.315E-04
  CGR           5          0          1   7.539E-05
  CGR           6          0          1   1.374E-05
  CGR           7          0          1   1.759E-06
  CGR           8          1          0   4.388E-07

    CGRSolver converged.

  ==> DFCorrGrad: Density-Fitted Correlated Gradients <==

    OpenMP threads:              1
    Integrals threads:           1
    Memory (MB):               715
    Schwarz Cutoff:          0E+00
    Fitting Condition:       1E-12

   => Auxiliary Basis Set <=

  Basis Set: 
    Number of shells: 186
    Number of basis function: 510
    Number of Cartesian functions: 574
    Spherical Harmonics?: true
    Max angular momentum: 3

	-----------------------------------------------------------
	 ==================> DF-MP2 Energies <==================== 
	-----------------------------------------------------------
	 Reference Energy          =    -157.2884649411913074 [Eh]
	 Singles Energy            =      -0.0000000000000000 [Eh]
	 Same-Spin Energy          =      -0.1247542562379970 [Eh]
	 Opposite-Spin Energy      =      -0.4217081490425272 [Eh]
	 Correlation Energy        =      -0.5464624052805243 [Eh]
	 Total Energy              =    -157.8349273464718294 [Eh]
	-----------------------------------------------------------
	 ================> DF-SCS-MP2 Energies <================== 
	-----------------------------------------------------------
	 SCS Same-Spin Scale       =       0.3333333333333333 [-]
	 SCS Opposite-Spin Scale   =       1.2000000000000000 [-]
	 SCS Same-Spin Energy      =      -0.0415847520793323 [Eh]
	 SCS Opposite-Spin Energy  =      -0.5060497788510326 [Eh]
	 SCS Correlation Energy    =      -0.5476345309303650 [Eh]
	 SCS Total Energy          =    -157.8360994721216741 [Eh]
	-----------------------------------------------------------


  -Total Gradient:
     Atom            X                  Y                   Z
    ------   -----------------  -----------------  -----------------
       1        0.008480512150     0.002884118112    -0.004948471844
       2        0.005169448445    -0.008326094131     0.000826965224
       3        0.004448136606     0.002825664178     0.010440165210
       4       -0.022487540012    -0.005095321502    -0.005118458492
       5       -0.007478172212    -0.009684451922     0.002131658520
       6       -0.002177547946    -0.007170315763    -0.009476224937
       7        0.015236188837     0.021477391540     0.006293137572
       8       -0.007087444498     0.003409769968     0.009028266628
       9       -0.012293798547     0.001979905228    -0.003138113987
      10        0.026395757604    -0.005178508272    -0.004239264499
      11       -0.002027674609     0.009866744599    -0.000680760825
      12        0.007653273102     0.003618387333     0.005489612136
      13        0.005542242480     0.001284959421    -0.009732748822
      14       -0.019373381401    -0.011892248790     0.003124238116


			-----------------------------------------
			 OPTKING 2.0: for geometry optimizations 
			  - R.A. King,  Bethel University        
			-----------------------------------------

	Previous internal coordinate definitions found.
	---Fragment 1 Geometry and Gradient---
	 H          -3.2064502843        0.8039216396        0.6229958056
	 H          -2.7799110481        3.8789059205       -0.5505691814
	 H          -2.3444279125        1.2592226814       -2.5476948074
	 C          -2.1123498849        1.9535376477       -0.6477458020
	 H           1.7581546853        3.0325216128       -1.1937647689
	 H           0.9055538480        2.5708982359        1.9939806029
	 C           0.7050663726        1.8578257488        0.0963879577
	 H           2.5386231794       -1.1973274722       -1.8763664245
	 H           3.2869685841       -1.0211397860        1.3651629378
	 C           1.7932271553       -0.8618704339       -0.0101140726
	 H           0.6220777417       -4.7384541954        0.4760806724
	 H          -1.7318872067       -2.7724553639       -0.7918929604
	 H          -0.9830592811       -2.5865118001        2.4339028581
	 C          -0.2234858009       -2.8847890395        0.5671968053
	             0.0084805121        0.0028841181       -0.0049484718
	             0.0051694484       -0.0083260941        0.0008269652
	             0.0044481366        0.0028256642        0.0104401652
	            -0.0224875400       -0.0050953215       -0.0051184585
	            -0.0074781722       -0.0096844519        0.0021316585
	            -0.0021775479       -0.0071703158       -0.0094762249
	             0.0152361888        0.0214773915        0.0062931376
	            -0.0070874445        0.0034097700        0.0090282666
	            -0.0122937985        0.0019799052       -0.0031381140
	             0.0263957576       -0.0051785083       -0.0042392645
	            -0.0020276746        0.0098667446       -0.0006807608
	             0.0076532731        0.0036183873        0.0054896121
	             0.0055422425        0.0012849594       -0.0097327488
	            -0.0193733814       -0.0118922488        0.0031242381

	---Fragment 1 Intrafragment Coordinates---
	 - Coordinate -           - BOHR/RAD -       - ANG/DEG -
	 R(1,4)           =         2.033090	       1.075865
	 R(2,4)           =         2.040128	       1.079589
	 R(3,4)           =         2.036109	       1.077462
	 R(4,7)           =         2.915601	       1.542870
	 R(5,7)           =         2.037989	       1.078457
	 R(6,7)           =         2.037038	       1.077954
	 R(7,10)          =         2.931243	       1.551147
	 R(8,10)          =         2.037411	       1.078152
	 R(9,10)          =         2.036668	       1.077758
	 R(10,14)         =         2.914210	       1.542133
	 R(11,14)         =         2.039450	       1.079230
	 R(12,14)         =         2.033475	       1.076068
	 R(13,14)         =         2.037281	       1.078083
	 B(1,4,2)         =         1.904753	     109.134294
	 B(1,4,3)         =         1.906119	     109.212571
	 B(1,4,7)         =         1.919775	     109.995025
	 B(2,4,3)         =         1.906009	     109.206271
	 B(2,4,7)         =         1.912423	     109.573750
	 B(3,4,7)         =         1.914637	     109.700642
	 B(4,7,5)         =         1.895297	     108.592523
	 B(4,7,6)         =         1.897971	     108.745715
	 B(4,7,10)        =         1.960498	     112.328248
	 B(5,7,6)         =         1.914619	     109.699587
	 B(5,7,10)        =         1.896500	     108.661443
	 B(6,7,10)        =         1.898743	     108.789960
	 B(7,10,8)        =         1.898493	     108.775614
	 B(7,10,9)        =         1.896833	     108.680505
	 B(7,10,14)       =         1.960551	     112.331318
	 B(8,10,9)        =         1.914874	     109.714226
	 B(8,10,14)       =         1.896894	     108.684044
	 B(9,10,14)       =         1.895994	     108.632435
	 B(10,14,11)      =         1.912566	     109.581940
	 B(10,14,12)      =         1.920464	     110.034492
	 B(10,14,13)      =         1.915479	     109.748850
	 B(11,14,12)      =         1.904873	     109.141168
	 B(11,14,13)      =         1.905605	     109.183099
	 B(12,14,13)      =         1.904713	     109.132028
	 D(1,4,7,5)       =        -3.134585	    -179.598484
	 D(1,4,7,6)       =        -1.052004	     -60.275385
	 D(1,4,7,10)      =         1.050603	      60.195125
	 D(2,4,7,5)       =        -1.040671	     -59.626031
	 D(2,4,7,6)       =         1.041910	      59.697068
	 D(2,4,7,10)      =        -3.138668	    -179.832422
	 D(3,4,7,5)       =         1.051613	      60.252993
	 D(3,4,7,6)       =         3.134194	     179.576092
	 D(3,4,7,10)      =        -1.046384	     -59.953398
	 D(4,7,10,8)      =         1.574080	      90.188125
	 D(4,7,10,9)      =        -2.625025	    -150.402881
	 D(4,7,10,14)     =        -0.526596	     -30.171743
	 D(5,7,10,8)      =        -0.523221	     -29.978331
	 D(5,7,10,9)      =         1.560860	      89.430664
	 D(5,7,10,14)     =        -2.623897	    -150.338199
	 D(6,7,10,8)      =        -2.606945	    -149.366932
	 D(6,7,10,9)      =        -0.522865	     -29.957938
	 D(6,7,10,14)     =         1.575565	      90.273200
	 D(7,10,14,11)    =        -3.138752	    -179.837262
	 D(7,10,14,12)    =         1.049854	      60.152185
	 D(7,10,14,13)    =        -1.046359	     -59.951929
	 D(8,10,14,11)    =         1.042833	      59.749921
	 D(8,10,14,12)    =        -1.051746	     -60.260631
	 D(8,10,14,13)    =         3.135227	     179.635254
	 D(9,10,14,11)    =        -1.039837	     -59.578289
	 D(9,10,14,12)    =        -3.134417	    -179.588842
	 D(9,10,14,13)    =         1.052556	      60.307044

	Current energy   :      -157.8349273465

	Energy change for the previous step:
		Projected    :        -0.0097464877
		Actual       :        -0.0070214763

	Performing BFGS update.
	Previous computed or guess Hessian on step 1.
	Steps to be used in Hessian update: 1
	Adding user-defined constraint: Fragment 1; Coordinate 49:
		Value =    -0.526596; Fixed value    =    -0.523600
		Force =     0.001573; Force constant =     0.525000
	Removing off-diagonal coupling between coordinate 49 and others.
	Taking RFO optimization step.
	Going to follow RFO solution 1.
	Using RFO vector 1.

	Determining step-restricting scale parameter for RS-RFO.
	Maximum step size allowed    0.10000

	 Iter      |step|        alpha        rfo_root  
	------------------------------------------------
	    0     0.20860       1.00000           1
	    1     0.15791       5.33638           1
	    2     0.12499      14.78324           1
	    3     0.10697      26.49380           1
	    4     0.10076      32.61256           1
	    5     0.10001      33.45291           1
	    6     0.10000      33.46502           1
	------------------------------------------------
	Norm of target step-size    0.10000
	Projected energy change by RFO approximation:        -0.0040621188

	Back-transformation to cartesian coordinates...
	Successfully converged to displaced geometry.

	--- Internal Coordinate Step in ANG or DEG, aJ/ANG or AJ/DEG ---
	 ---------------------------------------------------------------------------
	   Coordinate                Previous        Force       Change         New 
	   ----------                --------       ------       ------       ------
	    1 R(1,4)          =      1.075865     0.076517     0.012058     1.087923
	    2 R(2,4)          =      1.079589     0.078349     0.010773     1.090363
	    3 R(3,4)          =      1.077462     0.092377     0.012843     1.090305
	    4 R(4,7)          =      1.542870    -0.030336    -0.006614     1.536256
	    5 R(5,7)          =      1.078457     0.088943     0.012223     1.090680
	    6 R(6,7)          =      1.077954     0.095172     0.013062     1.091016
	    7 R(7,10)         =      1.551147     0.027211    -0.002503     1.548644
	    8 R(8,10)         =      1.078152     0.094121     0.012926     1.091077
	    9 R(9,10)         =      1.077758     0.093019     0.012750     1.090508
	   10 R(10,14)        =      1.542133    -0.027388    -0.006119     1.536015
	   11 R(11,14)        =      1.079230     0.080560     0.011060     1.090291
	   12 R(12,14)        =      1.076068     0.075353     0.011909     1.087977
	   13 R(13,14)        =      1.078083     0.088946     0.012399     1.090481
	   14 B(1,4,2)        =    109.134294    -0.000270    -0.578274   108.556020
	   15 B(1,4,3)        =    109.212571    -0.000233    -0.658718   108.553853
	   16 B(1,4,7)        =    109.995025     0.000349     0.744811   110.739835
	   17 B(2,4,3)        =    109.206271    -0.000243    -0.625279   108.580992
	   18 B(2,4,7)        =    109.573750     0.000119     0.327829   109.901579
	   19 B(3,4,7)        =    109.700642     0.000268     0.749631   110.450272
	   20 B(4,7,5)        =    108.592523    -0.000345    -0.165432   108.427091
	   21 B(4,7,6)        =    108.745715    -0.000326    -0.281582   108.464133
	   22 B(4,7,10)       =    112.328248     0.001248     1.244731   113.572980
	   23 B(5,7,6)        =    109.699587    -0.000007    -0.566995   109.132593
	   24 B(5,7,10)       =    108.661443    -0.000320    -0.186339   108.475104
	   25 B(6,7,10)       =    108.789960    -0.000262    -0.092483   108.697477
	   26 B(7,10,8)       =    108.775614    -0.000263    -0.089741   108.685873
	   27 B(7,10,9)       =    108.680505    -0.000322    -0.205263   108.475242
	   28 B(7,10,14)      =    112.331318     0.001249     1.251986   113.583304
	   29 B(8,10,9)       =    109.714226    -0.000008    -0.568980   109.145247
	   30 B(8,10,14)      =    108.684044    -0.000320    -0.266289   108.417755
	   31 B(9,10,14)      =    108.632435    -0.000349    -0.169848   108.462587
	   32 B(10,14,11)     =    109.581940     0.000122     0.341104   109.923043
	   33 B(10,14,12)     =    110.034492     0.000342     0.730904   110.765396
	   34 B(10,14,13)     =    109.748850     0.000261     0.732945   110.481795
	   35 B(11,14,12)     =    109.141168    -0.000269    -0.589234   108.551934
	   36 B(11,14,13)     =    109.183099    -0.000240    -0.619940   108.563159
	   37 B(12,14,13)     =    109.132028    -0.000224    -0.637147   108.494881
	   38 D(1,4,7,5)      =   -179.598484     0.000060     0.565157  -179.033327
	   39 D(1,4,7,6)      =    -60.275385    -0.000031    -0.368194   -60.643579
	   40 D(1,4,7,10)     =     60.195125     0.000025     0.120634    60.315759
	   41 D(2,4,7,5)      =    -59.626031     0.000050     0.525346   -59.100685
	   42 D(2,4,7,6)      =     59.697068    -0.000040    -0.408005    59.289063
	   43 D(2,4,7,10)     =   -179.832422     0.000015     0.080822  -179.751599
	   44 D(3,4,7,5)      =     60.252993     0.000037     0.426642    60.679635
	   45 D(3,4,7,6)      =    179.576092    -0.000054    -0.506709   179.069383
	   46 D(3,4,7,10)     =    -59.953398     0.000002    -0.017881   -59.971279
	   47 D(4,7,10,8)     =     90.188125     0.000019     0.139918    90.328043
	   48 D(4,7,10,9)     =   -150.402881    -0.000061    -0.712506  -151.115386
	   49 D(4,7,10,14)    =    -30.171743    -0.000030    -0.267973   -30.439716
	   50 D(5,7,10,8)     =    -29.978331    -0.000013    -0.317494   -30.295824
	   51 D(5,7,10,9)     =     89.430664    -0.000093    -1.169918    88.260746
	   52 D(5,7,10,14)    =   -150.338199    -0.000062    -0.725384  -151.063583
	   53 D(6,7,10,8)     =   -149.366932     0.000067     0.523214  -148.843718
	   54 D(6,7,10,9)     =    -29.957938    -0.000013    -0.329210   -30.287148
	   55 D(6,7,10,14)    =     90.273200     0.000018     0.115323    90.388523
	   56 D(7,10,14,11)   =   -179.837262     0.000015     0.086990  -179.750272
	   57 D(7,10,14,12)   =     60.152185     0.000025     0.139855    60.292041
	   58 D(7,10,14,13)   =    -59.951929     0.000002    -0.006562   -59.958492
	   59 D(8,10,14,11)   =     59.749921    -0.000041    -0.418639    59.331283
	   60 D(8,10,14,12)   =    -60.260631    -0.000031    -0.365773   -60.626405
	   61 D(8,10,14,13)   =    179.635254    -0.000054    -0.512191   179.123063
	   62 D(9,10,14,11)   =    -59.578289     0.000050     0.510812   -59.067477
	   63 D(9,10,14,12)   =   -179.588842     0.000060     0.563677  -179.025164
	   64 D(9,10,14,13)   =     60.307044     0.000036     0.417260    60.724304
	 ---------------------------------------------------------------------------
	 Forces used to impose fixed constraints are not included.
	  Forces zeroed: 49 

  ==> Convergence Check <==

  Measures of convergence in internal coordinates in au.
  Criteria marked as inactive (o), active & met (*), and active & unmet ( ).
  ---------------------------------------------------------------------------------------------
   Step     Total Energy     Delta E     MAX Force     RMS Force      MAX Disp      RMS Disp   
  ---------------------------------------------------------------------------------------------
    Convergence Criteria    1.00e-06 *    3.00e-04 *             o    1.20e-03 *             o
  ---------------------------------------------------------------------------------------------
      2    -157.83492735   -7.02e-03      1.64e-02      5.75e-03 o    2.47e-02      1.25e-02 o  ~
  ---------------------------------------------------------------------------------------------

	Writing optimization data to binary file.
	Structure for next step:
	Cartesian Geometry (in Angstrom)
	    H    -1.7220764945   0.4605395872   0.3642994636
	    H    -1.4725623509   2.0889670060  -0.2786828318
	    H    -1.3006652862   0.6812513089  -1.3389058641
	    C    -1.1305289747   1.0548544519  -0.3288364758
	    H     0.9161856094   1.6004483930  -0.6784578221
	    H     0.4974950589   1.3757633805   1.0344750732
	    C     0.3620985756   0.9798950344   0.0268679406
	    H     1.3191283658  -0.6448253647  -1.0294512173
	    H     1.7631784575  -0.5228848787   0.6875375858
	    C     0.9395521680  -0.4561587075  -0.0240772941
	    H     0.3802599833  -2.5275365131   0.2691728898
	    H    -0.9213531999  -1.5226389985  -0.3813899182
	    H    -0.4796172065  -1.3966053757   1.3258124935
	    C    -0.0887437234  -1.5445174080   0.3185939523
			--------------------------
			 OPTKING Finished Execution 
			--------------------------

    Structure for next step:
    Molecular point group: c1
    Full point group: C1

    Geometry (in Angstrom), charge = 0, multiplicity = 1:

    H           -1.721396855225     0.460571094257     0.366283216842
    H           -1.471882711647     2.088998513015    -0.276699078603
    H           -1.299985646854     0.681282815896    -1.336922110847
    C           -1.129849335386     1.054885958925    -0.326852722641
    H            0.916865248683     1.600479900088    -0.676474068927
    H            0.498174698250     1.375794887574     1.036458826413
    C            0.362778214944     0.979926541411     0.028851693792
    H            1.319808005098    -0.644793857701    -1.027467464075
    H            1.763858096823    -0.522853371668     0.689521338966
    C            0.940231807285    -0.456127200407    -0.022093540868
    H            0.380939622574    -2.527505006103     0.271156642966
    H           -0.920673560569    -1.522607491420    -0.379406165012
    H           -0.478937567234    -1.396573868627     1.327796246694
    C           -0.088064084127    -1.544485900954     0.320577705548

gradient() will perform analytic gradient computation.
    SCF Algorithm Type (re)set to DF.

*** tstart() called on lski1497
*** at Thu Feb 16 16:35:48 2017


         ---------------------------------------------------------
                                   SCF
            by Justin Turney, Rob Parrish, and Andy Simmonett
                              RHF Reference
                        1 Threads,   1000 MiB Core
         ---------------------------------------------------------

  ==> Geometry <==

    Molecular point group: c1
    Full point group: C1

    Geometry (in Angstrom), charge = 0, multiplicity = 1:

       Center              X                  Y                   Z               Mass       
    ------------   -----------------  -----------------  -----------------  -----------------
           H         -1.721396855225     0.460571094257     0.366283216842     1.007825032070
           H         -1.471882711647     2.088998513015    -0.276699078603     1.007825032070
           H         -1.299985646854     0.681282815896    -1.336922110847     1.007825032070
           C         -1.129849335386     1.054885958925    -0.326852722641    12.000000000000
           H          0.916865248683     1.600479900088    -0.676474068927     1.007825032070
           H          0.498174698250     1.375794887574     1.036458826413     1.007825032070
           C          0.362778214944     0.979926541411     0.028851693792    12.000000000000
           H          1.319808005098    -0.644793857701    -1.027467464075     1.007825032070
           H          1.763858096823    -0.522853371668     0.689521338966     1.007825032070
           C          0.940231807285    -0.456127200407    -0.022093540868    12.000000000000
           H          0.380939622574    -2.527505006103     0.271156642966     1.007825032070
           H         -0.920673560569    -1.522607491420    -0.379406165012     1.007825032070
           H         -0.478937567234    -1.396573868627     1.327796246694     1.007825032070
           C         -0.088064084127    -1.544485900954     0.320577705548    12.000000000000

  Running in c1 symmetry.

  Rotational constants: A =      0.39883  B =      0.18054  C =      0.13932 [cm^-1]
  Rotational constants: A =  11956.52327  B =   5412.40919  C =   4176.58967 [MHz]
  Nuclear repulsion =  133.396626058599423

  Charge       = 0
  Multiplicity = 1
  Electrons    = 34
  Nalpha       = 17
  Nbeta        = 17

  ==> Algorithm <==

  SCF Algorithm Type is DF.
  DIIS enabled.
  MOM disabled.
  Fractional occupation disabled.
  Guess Type is READ.
  Energy threshold   = 1.00e-10
  Density threshold  = 1.00e-10
  Integral threshold = 0.00e+00

  ==> Primary Basis <==

  Basis Set: 6-31G(D)
    Number of shells: 44
    Number of basis function: 80
    Number of Cartesian functions: 80
    Spherical Harmonics?: false
    Max angular momentum: 2

  ==> Pre-Iterations <==

   -------------------------------------------------------
    Irrep   Nso     Nmo     Nalpha   Nbeta   Ndocc  Nsocc
   -------------------------------------------------------
     A         80      80       0       0       0       0
   -------------------------------------------------------
    Total      80      80      17      17      17       0
   -------------------------------------------------------

  ==> Integral Setup <==

  ==> DFJK: Density-Fitted J/K Matrices <==

    J tasked:                  Yes
    K tasked:                  Yes
    wK tasked:                  No
    OpenMP threads:              1
    Integrals threads:           1
    Memory (MB):               715
    Algorithm:                Core
    Integral Cache:           NONE
    Schwarz Cutoff:          1E-12
    Fitting Condition:       1E-12

   => Auxiliary Basis Set <=

  Basis Set: 
    Number of shells: 186
    Number of basis function: 574
    Number of Cartesian functions: 574
    Spherical Harmonics?: false
    Max angular momentum: 3

  Minimum eigenvalue in the overlap matrix is 4.5666577085E-03.
  Using Symmetric Orthogonalization.
  SCF Guess was Projection but file not found.
  Switching over to SAD guess.

  SCF Guess: Superposition of Atomic Densities via on-the-fly atomic UHF.

  ==> Iterations <==

                           Total Energy        Delta E     RMS |[F,P]|

   @DF-RHF iter   0:  -158.64627580590749   -1.58646e+02   4.47171e-02 
   @DF-RHF iter   1:  -157.17446021463715    1.47182e+00   4.79091e-03 
   @DF-RHF iter   2:  -157.27652739238798   -1.02067e-01   1.68454e-03 DIIS
   @DF-RHF iter   3:  -157.28845408572303   -1.19267e-02   6.25622e-04 DIIS
   @DF-RHF iter   4:  -157.29052031485716   -2.06623e-03   8.50626e-05 DIIS
   @DF-RHF iter   5:  -157.29057509315768   -5.47783e-05   1.84531e-05 DIIS
   @DF-RHF iter   6:  -157.29057749540490   -2.40225e-06   4.99501e-06 DIIS
   @DF-RHF iter   7:  -157.29057762427541   -1.28871e-07   1.18050e-06 DIIS
   @DF-RHF iter   8:  -157.29057763400286   -9.72744e-09   2.77076e-07 DIIS
   @DF-RHF iter   9:  -157.29057763460762   -6.04757e-10   7.49200e-08 DIIS
   @DF-RHF iter  10:  -157.29057763464854   -4.09273e-11   2.20461e-08 DIIS
   @DF-RHF iter  11:  -157.29057763465110   -2.55795e-12   4.54456e-09 DIIS
   @DF-RHF iter  12:  -157.29057763465116   -5.68434e-14   1.00674e-09 DIIS
   @DF-RHF iter  13:  -157.29057763465138   -2.27374e-13   2.46297e-10 DIIS
   @DF-RHF iter  14:  -157.29057763465150   -1.13687e-13   7.41523e-11 DIIS

  ==> Post-Iterations <==

    Orbital Energies (a.u.)
    -----------------------

    Doubly Occupied:                                                      

       1A    -11.215159     2A    -11.214613     3A    -11.207989  
       4A    -11.207978     5A     -1.067421     6A     -0.970848  
       7A     -0.876762     8A     -0.767650     9A     -0.636029  
      10A     -0.616074    11A     -0.568974    12A     -0.534172  
      13A     -0.525093    14A     -0.509945    15A     -0.457732  
      16A     -0.456362    17A     -0.452299  

    Virtual:                                                              

      18A      0.225306    19A      0.277621    20A      0.284201  
      21A      0.299161    22A      0.309070    23A      0.314488  
      24A      0.347045    25A      0.348692    26A      0.353941  
      27A      0.376877    28A      0.392626    29A      0.420222  
      30A      0.470409    31A      0.710563    32A      0.732865  
      33A      0.735384    34A      0.776157    35A      0.782506  
      36A      0.835171    37A      0.861204    38A      0.920383  
      39A      0.948086    40A      1.002007    41A      1.112130  
      42A      1.118862    43A      1.154429    44A      1.162845  
      45A      1.165785    46A      1.178860    47A      1.187200  
      48A      1.193069    49A      1.227653    50A      1.247217  
      51A      1.248622    52A      1.284172    53A      1.303306  
      54A      1.597603    55A      1.665618    56A      1.711689  
      57A      1.725999    58A      1.934009    59A      1.984077  
      60A      2.059094    61A      2.162904    62A      2.282806  
      63A      2.283186    64A      2.315767    65A      2.353421  
      66A      2.424403    67A      2.487956    68A      2.586313  
      69A      2.650253    70A      2.658511    71A      2.702735  
      72A      2.729469    73A      2.770705    74A      2.916148  
      75A      2.976653    76A      3.082993    77A      4.554239  
      78A      4.690813    79A      4.777329    80A      4.963606  

    Final Occupation by Irrep:
              A 
    DOCC [    17 ]

  Energy converged.

  @DF-RHF Final Energy:  -157.29057763465150

   => Energetics <=

    Nuclear Repulsion Energy =            133.3966260585994235
    One-Electron Energy =                -474.8042074487021864
    Two-Electron Energy =                 184.1170037554513215
    DFT Exchange-Correlation Energy =       0.0000000000000000
    Empirical Dispersion Energy =           0.0000000000000000
    PCM Polarization Energy =               0.0000000000000000
    EFP Energy =                            0.0000000000000000
    Total Energy =                       -157.2905776346514699


  Saving occupied orbitals to File 180.

*** tstop() called on lski1497 at Thu Feb 16 16:35:54 2017
Module time:
	user time   =       5.11 seconds =       0.09 minutes
	system time =       0.16 seconds =       0.00 minutes
	total time  =          6 seconds =       0.10 minutes
Total time:
	user time   =      52.11 seconds =       0.87 minutes
	system time =       1.46 seconds =       0.02 minutes
	total time  =         60 seconds =       1.00 minutes


Properties will be evaluated at   0.000000,   0.000000,   0.000000 Bohr

Properties computed using the SCF density matrix

  Nuclear Dipole Moment: (a.u.)
     X:    -0.9499      Y:    -0.3817      Z:    -0.0054

  Electronic Dipole Moment: (a.u.)
     X:     0.9762      Y:     0.3923      Z:     0.0055

  Dipole Moment: (a.u.)
     X:     0.0263      Y:     0.0105      Z:     0.0001     Total:     0.0283

  Dipole Moment: (Debye)
     X:     0.0668      Y:     0.0268      Z:     0.0003     Total:     0.0720


  //>>>>>>>>>>>>>>>>>>>>>>>>>>>>>>>>>>>//
  //               DFMP2               //
  //<<<<<<<<<<<<<<<<<<<<<<<<<<<<<<<<<<<//


*** tstart() called on lski1497
*** at Thu Feb 16 16:35:54 2017


*** tstop() called on lski1497 at Thu Feb 16 16:35:54 2017
Module time:
	user time   =       0.56 seconds =       0.01 minutes
	system time =       0.00 seconds =       0.00 minutes
	total time  =          0 seconds =       0.00 minutes
Total time:
	user time   =      52.68 seconds =       0.88 minutes
	system time =       1.46 seconds =       0.02 minutes
	total time  =         60 seconds =       1.00 minutes
	 --------------------------------------------------------
	                          DF-MP2                         
	      2nd-Order Density-Fitted Moller-Plesset Theory     
	              RMP2 Wavefunction,   1 Threads             
	                                                         
	        Rob Parrish, Justin Turney, Andy Simmonett,      
	           Ed Hohenstein, and C. David Sherrill          
	 --------------------------------------------------------

   => Auxiliary Basis Set <=

  Basis Set: 
    Number of shells: 132
    Number of basis function: 364
    Number of Cartesian functions: 414
    Spherical Harmonics?: true
    Max angular momentum: 3

	 --------------------------------------------------------
	                 NBF =    80, NAUX =   364
	 --------------------------------------------------------
	   CLASS    FOCC     OCC    AOCC    AVIR     VIR    FVIR
	   PAIRS       0      17      17      63      63       0
	 --------------------------------------------------------

DGAS Warning! /src/lib/libfock/apps.cc:80 is not currently checking restricted

         ------------------------------------------------------------
                                     CPHF                           
                                  Rob Parrish                       
         ------------------------------------------------------------

  ==> Geometry <==

    Molecular point group: c1
    Full point group: C1

    Geometry (in Angstrom), charge = 0, multiplicity = 1:

       Center              X                  Y                   Z               Mass       
    ------------   -----------------  -----------------  -----------------  -----------------
           H         -1.721396855225     0.460571094257     0.366283216842     1.007825032070
           H         -1.471882711647     2.088998513015    -0.276699078603     1.007825032070
           H         -1.299985646854     0.681282815896    -1.336922110847     1.007825032070
           C         -1.129849335386     1.054885958925    -0.326852722641    12.000000000000
           H          0.916865248683     1.600479900088    -0.676474068927     1.007825032070
           H          0.498174698250     1.375794887574     1.036458826413     1.007825032070
           C          0.362778214944     0.979926541411     0.028851693792    12.000000000000
           H          1.319808005098    -0.644793857701    -1.027467464075     1.007825032070
           H          1.763858096823    -0.522853371668     0.689521338966     1.007825032070
           C          0.940231807285    -0.456127200407    -0.022093540868    12.000000000000
           H          0.380939622574    -2.527505006103     0.271156642966     1.007825032070
           H         -0.920673560569    -1.522607491420    -0.379406165012     1.007825032070
           H         -0.478937567234    -1.396573868627     1.327796246694     1.007825032070
           C         -0.088064084127    -1.544485900954     0.320577705548    12.000000000000

  Nuclear repulsion =  133.396626058599423
  Reference energy  = -157.290577634651498

  ==> Basis Set <==

  Basis Set: 6-31G(D)
    Number of shells: 44
    Number of basis function: 80
    Number of Cartesian functions: 80
    Spherical Harmonics?: false
    Max angular momentum: 2

[...]
  CGR           7          0          1   2.106E-06
  CGR           8          1          0   4.868E-07

    CGRSolver converged.

  ==> DFCorrGrad: Density-Fitted Correlated Gradients <==

    OpenMP threads:              1
    Integrals threads:           1
    Memory (MB):               715
    Schwarz Cutoff:          0E+00
    Fitting Condition:       1E-12

   => Auxiliary Basis Set <=

  Basis Set: 
    Number of shells: 186
    Number of basis function: 510
    Number of Cartesian functions: 574
    Spherical Harmonics?: true
    Max angular momentum: 3

	-----------------------------------------------------------
	 ==================> DF-MP2 Energies <==================== 
	-----------------------------------------------------------
	 Reference Energy          =    -157.2921328124188278 [Eh]
	 Singles Energy            =      -0.0000000000000000 [Eh]
	 Same-Spin Energy          =      -0.1245749930043085 [Eh]
	 Opposite-Spin Energy      =      -0.4226791108251930 [Eh]
	 Correlation Energy        =      -0.5472541038295015 [Eh]
	 Total Energy              =    -157.8393869162483156 [Eh]
	-----------------------------------------------------------
	 ================> DF-SCS-MP2 Energies <================== 
	-----------------------------------------------------------
	 SCS Same-Spin Scale       =       0.3333333333333333 [-]
	 SCS Opposite-Spin Scale   =       1.2000000000000000 [-]
	 SCS Same-Spin Energy      =      -0.0415249976681028 [Eh]
	 SCS Opposite-Spin Energy  =      -0.5072149329902317 [Eh]
	 SCS Correlation Energy    =      -0.5487399306583345 [Eh]
	 SCS Total Energy          =    -157.8408727430771705 [Eh]
	-----------------------------------------------------------


  -Total Gradient:
     Atom            X                  Y                   Z
    ------   -----------------  -----------------  -----------------
       1        0.000006575804     0.000003810904    -0.000009944082
       2       -0.000006003335    -0.000010203443     0.000001681510
       3       -0.000008831920     0.000005324333     0.000008325375
       4       -0.001015528321    -0.000509444257     0.004541635972
       5       -0.000007665126     0.000000697250    -0.000002690662
       6        0.000022244505    -0.000006269037    -0.000011365826
       7        0.000921749455     0.000530641586    -0.008378534047
       8        0.000011880450     0.000020220718     0.000010555692
       9       -0.000004840749    -0.000005979578     0.000002815862
      10        0.001330621942     0.000393417705     0.008331377234
      11       -0.000011470671     0.000003035216    -0.000001418140
      12        0.000007464726     0.000002046313     0.000009273583
      13       -0.000002901667    -0.000010001200    -0.000007810058
      14       -0.001243295094    -0.000417296510    -0.004493902414


			-----------------------------------------
			 OPTKING 2.0: for geometry optimizations 
			  - R.A. King,  Bethel University        
			-----------------------------------------

	Previous internal coordinate definitions found.
	---Fragment 1 Geometry and Gradient---
	 H          -3.3081108463        1.0158000135        0.7623167331
	 H          -2.7664682933        4.0044614265       -0.6125208400
	 H          -2.5876674079        1.2534156403       -2.4907698588
	 C          -2.1607679742        2.0285561473       -0.6210378902
	 H           1.7357979966        3.0409566408       -1.2896327863
	 H           0.9278723167        2.6381002376        1.8898326437
	 C           0.6496686289        1.8382300191       -0.0026636902
	 H           2.4438681794       -1.2545302062       -1.9610323575
	 H           3.4161476106       -0.9268960217        1.1808396033
	 C           1.7527908485       -0.8523988617       -0.0480670665
	 H           0.8665604421       -4.7840744155        0.6526362927
	 H          -1.6667590386       -3.0571985259       -0.6572663357
	 H          -0.8700542620       -2.6722672476        2.5637859259
	 C          -0.0897775596       -2.9520506005        0.6685613260
	             0.0000065758        0.0000038109       -0.0000099441
	            -0.0000060033       -0.0000102034        0.0000016815
	            -0.0000088319        0.0000053243        0.0000083254
	            -0.0010155283       -0.0005094443        0.0045416360
	            -0.0000076651        0.0000006972       -0.0000026907
	             0.0000222445       -0.0000062690       -0.0000113658
	             0.0009217495        0.0005306416       -0.0083785340
	             0.0000118805        0.0000202207        0.0000105557
	            -0.0000048407       -0.0000059796        0.0000028159
	             0.0013306219        0.0003934177        0.0083313772
	            -0.0000114707        0.0000030352       -0.0000014181
	             0.0000074647        0.0000020463        0.0000092736
	            -0.0000029017       -0.0000100012       -0.0000078101
	            -0.0012432951       -0.0004172965       -0.0044939024

	---Fragment 1 Intrafragment Coordinates---
	 - Coordinate -           - BOHR/RAD -       - ANG/DEG -
	 R(1,4)           =         2.062945	       1.091663
	 R(2,4)           =         2.066675	       1.093638
	 R(3,4)           =         2.068570	       1.094640
	 R(4,7)           =         2.883949	       1.526120
	 R(5,7)           =         2.069425	       1.095092
	 R(6,7)           =         2.073338	       1.097163
	 R(7,10)          =         2.908337	       1.539026
	 R(8,10)          =         2.073339	       1.097164
	 R(9,10)          =         2.069424	       1.095092
	 R(10,14)         =         2.883947	       1.526119
	 R(11,14)         =         2.066675	       1.093638
	 R(12,14)         =         2.062946	       1.091664
	 R(13,14)         =         2.068571	       1.094641
	 B(1,4,2)         =         1.879266	     107.673994
	 B(1,4,3)         =         1.883229	     107.901085
	 B(1,4,7)         =         1.945297	     111.457330
	 B(2,4,3)         =         1.877068	     107.548057
	 B(2,4,7)         =         1.926043	     110.354133
	 B(3,4,7)         =         1.950012	     111.727474
	 B(4,7,5)         =         1.917464	     109.862579
	 B(4,7,6)         =         1.876556	     107.518762
	 B(4,7,10)        =         2.012340	     115.298587
	 B(5,7,6)         =         1.847320	     105.843631
	 B(5,7,10)        =         1.905937	     109.202151
	 B(6,7,10)        =         1.896805	     108.678949
	 B(7,10,8)        =         1.896805	     108.678916
	 B(7,10,9)        =         1.905939	     109.202240
	 B(7,10,14)       =         2.012339	     115.298550
	 B(8,10,9)        =         1.847319	     105.843576
	 B(8,10,14)       =         1.876556	     107.518754
	 B(9,10,14)       =         1.917464	     109.862618
	 B(10,14,11)      =         1.926043	     110.354143
	 B(10,14,12)      =         1.945297	     111.457280
	 B(10,14,13)      =         1.950012	     111.727473
	 B(11,14,12)      =         1.879265	     107.673953
	 B(11,14,13)      =         1.877069	     107.548104
	 B(12,14,13)      =         1.883230	     107.901122
	 D(1,4,7,5)       =        -3.030856	    -173.655243
	 D(1,4,7,6)       =        -1.028339	     -58.919481
	 D(1,4,7,10)      =         1.090093	      62.457718
	 D(2,4,7,5)       =        -0.943661	     -54.067814
	 D(2,4,7,6)       =         1.058855	      60.667947
	 D(2,4,7,10)      =        -3.105898	    -177.954854
	 D(3,4,7,5)       =         1.143841	      65.537247
	 D(3,4,7,6)       =        -3.136828	    -179.726992
	 D(3,4,7,10)      =        -1.018396	     -58.349793
	 D(4,7,10,8)      =         1.574212	      90.195714
	 D(4,7,10,9)      =        -2.701518	    -154.785600
	 D(4,7,10,14)     =        -0.533231	     -30.551900
	 D(5,7,10,8)      =        -0.594073	     -34.037889
	 D(5,7,10,9)      =         1.413382	      80.980796
	 D(5,7,10,14)     =        -2.701517	    -154.785503
	 D(6,7,10,8)      =        -2.601529	    -149.056611
	 D(6,7,10,9)      =        -0.594074	     -34.037926
	 D(6,7,10,14)     =         1.574213	      90.195775
	 D(7,10,14,11)    =        -3.105900	    -177.954983
	 D(7,10,14,12)    =         1.090092	      62.457667
	 D(7,10,14,13)    =        -1.018397	     -58.349857
	 D(8,10,14,11)    =         1.058854	      60.667891
	 D(8,10,14,12)    =        -1.028339	     -58.919460
	 D(8,10,14,13)    =        -3.136828	    -179.726983
	 D(9,10,14,11)    =        -0.943661	     -54.067821
	 D(9,10,14,12)    =        -3.030854	    -173.655171
	 D(9,10,14,13)    =         1.143842	      65.537306

	Current energy   :      -157.8393869162

	Energy change for the previous step:
		Projected    :        -0.0000033248
		Actual       :        -0.0000050164

	Performing BFGS update.
	Previous computed or guess Hessian on step 1.
	Steps to be used in Hessian update: 11 10
	Adding user-defined constraint: Fragment 1; Coordinate 49:
		Value =    -0.533231; Fixed value    =    -0.523600
		Force =     0.007464; Force constant =     0.775000
	Removing off-diagonal coupling between coordinate 49 and others.
	Taking RFO optimization step.
	Going to follow RFO solution 1.
	Rejecting RFO root 1 because normalization gives large value.
	Using RFO vector 2.
	Norm of target step-size    0.00248
	Projected energy change by RFO approximation:        -0.0000003077

	Back-transformation to cartesian coordinates...
	Could not converge backtransformation.
	Using first guess instead.

	--- Internal Coordinate Step in ANG or DEG, aJ/ANG or AJ/DEG ---
	 ---------------------------------------------------------------------------
	   Coordinate                Previous        Force       Change         New 
	   ----------                --------       ------       ------       ------
	    1 R(1,4)          =      1.091663     0.000100     0.000015     1.091678
	    2 R(2,4)          =      1.093638     0.000066     0.000006     1.093644
	    3 R(3,4)          =      1.094640     0.000063     0.000007     1.094648
	    4 R(4,7)          =      1.526120     0.000081     0.000013     1.526133
	    5 R(5,7)          =      1.095092     0.000016    -0.000002     1.095090
	    6 R(6,7)          =      1.097163     0.000081     0.000017     1.097181
	    7 R(7,10)         =      1.539026     0.000111    -0.000005     1.539021
	    8 R(8,10)         =      1.097164     0.000080     0.000017     1.097181
	    9 R(9,10)         =      1.095092     0.000017    -0.000002     1.095090
	   10 R(10,14)        =      1.526119     0.000087     0.000014     1.526133
	   11 R(11,14)        =      1.093638     0.000066     0.000006     1.093643
	   12 R(12,14)        =      1.091664     0.000097     0.000015     1.091679
	   13 R(13,14)        =      1.094641     0.000061     0.000007     1.094648
	   14 B(1,4,2)        =    107.673994     0.000000     0.003222   107.677217
	   15 B(1,4,3)        =    107.901085     0.000000     0.002703   107.903789
	   16 B(1,4,7)        =    111.457330     0.000000     0.000555   111.457884
	   17 B(2,4,3)        =    107.548057     0.000001     0.001489   107.549546
	   18 B(2,4,7)        =    110.354133    -0.000001    -0.003517   110.350617
	   19 B(3,4,7)        =    111.727474    -0.000001    -0.004042   111.723432
	   20 B(4,7,5)        =    109.862579    -0.000006     0.008555   109.871133
	   21 B(4,7,6)        =    107.518762     0.000005    -0.014991   107.503771
	   22 B(4,7,10)       =    115.298587     0.000002     0.000091   115.298678
	   23 B(5,7,6)        =    105.843631     0.000000     0.001830   105.845461
	   24 B(5,7,10)       =    109.202151    -0.000001    -0.000790   109.201361
	   25 B(6,7,10)       =    108.678949     0.000000     0.005246   108.684194
	   26 B(7,10,8)       =    108.678916     0.000000     0.005271   108.684186
	   27 B(7,10,9)       =    109.202240    -0.000001    -0.000894   109.201346
	   28 B(7,10,14)      =    115.298550     0.000002     0.000113   115.298663
	   29 B(8,10,9)       =    105.843576     0.000000     0.001878   105.845454
	   30 B(8,10,14)      =    107.518754     0.000005    -0.014947   107.503807
	   31 B(9,10,14)      =    109.862618    -0.000006     0.008527   109.871145
	   32 B(10,14,11)     =    110.354143    -0.000001    -0.003498   110.350646
	   33 B(10,14,12)     =    111.457280     0.000000     0.000608   111.457889
	   34 B(10,14,13)     =    111.727473    -0.000001    -0.004056   111.723417
	   35 B(11,14,12)     =    107.673953     0.000000     0.003237   107.677189
	   36 B(11,14,13)     =    107.548104     0.000001     0.001445   107.549549
	   37 B(12,14,13)     =    107.901122     0.000000     0.002671   107.903793
	   38 D(1,4,7,5)      =   -173.655243    -0.000000     0.032686  -173.622557
	   39 D(1,4,7,6)      =    -58.919481    -0.000000     0.031099   -58.888382
	   40 D(1,4,7,10)     =     62.457718     0.000001     0.026726    62.484444
	   41 D(2,4,7,5)      =    -54.067814    -0.000000     0.034762   -54.033052
	   42 D(2,4,7,6)      =     60.667947    -0.000000     0.033176    60.701123
	   43 D(2,4,7,10)     =   -177.954854     0.000001     0.028802  -177.926051
	   44 D(3,4,7,5)      =     65.537247    -0.000000     0.031644    65.568891
	   45 D(3,4,7,6)      =   -179.726992    -0.000000     0.030058  -179.696934
	   46 D(3,4,7,10)     =    -58.349793     0.000001     0.025684   -58.324108
	   47 D(4,7,10,8)     =     90.195714    -0.000002    -0.012112    90.183602
	   48 D(4,7,10,9)     =   -154.785600    -0.000002    -0.007504  -154.793104
	   49 D(4,7,10,14)    =    -30.551900    -0.000004     0.003218   -30.548682
	   50 D(5,7,10,8)     =    -34.037889    -0.000000    -0.022940   -34.060829
	   51 D(5,7,10,9)     =     80.980796    -0.000000    -0.018332    80.962464
	   52 D(5,7,10,14)    =   -154.785503    -0.000002    -0.007610  -154.793113
	   53 D(6,7,10,8)     =   -149.056611    -0.000000    -0.027532  -149.084143
	   54 D(6,7,10,9)     =    -34.037926    -0.000000    -0.022924   -34.060850
	   55 D(6,7,10,14)    =     90.195775    -0.000002    -0.012202    90.183572
	   56 D(7,10,14,11)   =   -177.954983     0.000001     0.028925  -177.926058
	   57 D(7,10,14,12)   =     62.457667     0.000001     0.026783    62.484450
	   58 D(7,10,14,13)   =    -58.349857     0.000001     0.025756   -58.324101
	   59 D(8,10,14,11)   =     60.667891    -0.000000     0.033219    60.701110
	   60 D(8,10,14,12)   =    -58.919460    -0.000000     0.031078   -58.888382
	   61 D(8,10,14,13)   =   -179.726983    -0.000000     0.030050  -179.696933
	   62 D(9,10,14,11)   =    -54.067821    -0.000000     0.034739   -54.033082
	   63 D(9,10,14,12)   =   -173.655171    -0.000000     0.032597  -173.622574
	   64 D(9,10,14,13)   =     65.537306    -0.000000     0.031569    65.568875
	 ---------------------------------------------------------------------------
	 Forces used to impose fixed constraints are not included.
	  Forces zeroed: 49 

  ==> Convergence Check <==

  Measures of convergence in internal coordinates in au.
  Criteria marked as inactive (o), active & met (*), and active & unmet ( ).
  ---------------------------------------------------------------------------------------------
   Step     Total Energy     Delta E     MAX Force     RMS Force      MAX Disp      RMS Disp   
  ---------------------------------------------------------------------------------------------
    Convergence Criteria    1.00e-06 *    3.00e-04 *             o    1.20e-03 *             o
  ---------------------------------------------------------------------------------------------
     12    -157.83938692   -5.02e-06      1.05e-04 *    3.60e-05 o    6.07e-04 *    3.10e-04 o  ~
  ---------------------------------------------------------------------------------------------


  **** Optimization is complete! (in 12 steps) ****

  ==> Optimization Summary <==

  Measures of convergence in internal coordinates in au.
  --------------------------------------------------------------------------------------------------------------- ~
   Step         Total Energy             Delta E       MAX Force       RMS Force        MAX Disp        RMS Disp  ~
  --------------------------------------------------------------------------------------------------------------- ~
      1    -157.827905870218   -157.827905870218      0.04829643      0.01260387      0.04938174      0.01266944  ~
      2    -157.834927346472     -0.007021476253      0.01641946      0.00574925      0.02468320      0.01253427  ~
      3    -157.837882579389     -0.002955232917      0.00809333      0.00233611      0.04130570      0.01251329  ~
      4    -157.838930841666     -0.001048262276      0.00327051      0.00097239      0.04641427      0.01249407  ~
      5    -157.839319825371     -0.000388983706      0.00087823      0.00029256      0.02894301      0.01249765  ~
      6    -157.839414190522     -0.000094365151      0.00028899      0.00011196      0.02488986      0.01245190  ~
      7    -157.839452445325     -0.000038254803      0.00064396      0.00014444      0.01534065      0.00765613  ~
      8    -157.839410008045      0.000042437279      0.00013858      0.00006361      0.00899716      0.00452862  ~
      9    -157.839412509649     -0.000002501603      0.00009047      0.00002757      0.02556616      0.01249867  ~
     10    -157.839360823268      0.000051686380      0.00059423      0.00019214      0.02534340      0.01249900  ~
     11    -157.839381899815     -0.000021076547      0.00044962      0.00010142      0.00220012      0.00069338  ~
     12    -157.839386916248     -0.000005016433      0.00020128      0.00004391      0.00060672      0.00031045  ~
  --------------------------------------------------------------------------------------------------------------- ~

	Writing optimization data to binary file.
	Final energy is   -157.8393869162483
	Final (previous) structure:
	Cartesian Geometry (in Angstrom)
	    H    -1.7505768633   0.5375382157   0.4034006409
	    H    -1.4639519691   2.1190697196  -0.3241320683
	    H    -1.3693346157   0.6632789897  -1.3180586411
	    C    -1.1434291650   1.0734656795  -0.3286390971
	    H     0.9185447385   1.6092049466  -0.6824442779
	    H     0.4910088825   1.3960225197   1.0000563631
	    C     0.3437898316   0.9727494302  -0.0014095642
	    H     1.2932393414  -0.6638687926  -1.0377336289
	    H     1.8077474567  -0.4904922494   0.6248734051
	    C     0.9275369685  -0.4510700502  -0.0254359961
	    H     0.4585640358  -2.5316231449   0.3453602516
	    H    -0.8820108954  -1.6177997821  -0.3478103648
	    H    -0.4604128857  -1.4141029227   1.3566970797
	    C    -0.0475082384  -1.5621578964   0.3537874163
	Saving final (previous) structure.
			--------------------------
			 OPTKING Finished Execution 
			--------------------------

    Final optimized geometry and variables:
    Molecular point group: c1
    Full point group: C1

    Geometry (in Angstrom), charge = 0, multiplicity = 1:

    H           -1.750576863335     0.537538215654     0.403400640887
    H           -1.463951969117     2.119069719594    -0.324132068291
    H           -1.369334615681     0.663278989725    -1.318058641135
    C           -1.143429164974     1.073465679505    -0.328639097145
    H            0.918544738532     1.609204946618    -0.682444277943
    H            0.491008882500     1.396022519704     1.000056363094
    C            0.343789831575     0.972749430244    -0.001409564165
    H            1.293239341359    -0.663868792589    -1.037733628903
    H            1.807747456717    -0.490492249442     0.624873405093
    C            0.927536968477    -0.451070050228    -0.025435996076
    H            0.458564035811    -2.531623144907     0.345360251592
    H           -0.882010895425    -1.617799782060    -0.347810364818
    H           -0.460412885665    -1.414102922709     1.356697079701
    C           -0.047508238393    -1.562157896370     0.353787416264

	Cleaning optimization helper files.

*** Psi4 exiting successfully. Buy a developer a beer!
