    -----------------------------------------------------------------------
          Psi4: An Open-Source Ab Initio Electronic Structure Package
                              Psi4 1.0.0 Driver

                          Git: Rev {master} 6a9a71b 

    J. M. Turney, A. C. Simmonett, R. M. Parrish, E. G. Hohenstein,
    F. A. Evangelista, J. T. Fermann, B. J. Mintz, L. A. Burns, J. J. Wilke,
    M. L. Abrams, N. J. Russ, M. L. Leininger, C. L. Janssen, E. T. Seidl,
    W. D. Allen, H. F. Schaefer, R. A. King, E. F. Valeev, C. D. Sherrill,
    and T. D. Crawford, WIREs Comput. Mol. Sci. 2, 556-565 (2012)
    (doi: 10.1002/wcms.93)

                         Additional Contributions by
    A. E. DePrince, U. Bozkaya, A. Yu. Sokolov, D. G. A. Smith, R. Di Remigio,
    R. M. Richard, J. F. Gonthier, H. R. McAlexander, M. Saitow, and
    B. P. Pritchard
    -----------------------------------------------------------------------


    Psi4 started on: Thu Feb 16 16:38:53 2017

    Process ID:   2294
    PSI4DATADIR: /Users/sternc1/anaconda/share/psi4
    Memory level set to 256.000 MB

  ==> Input File <==

--------------------------------------------------------------------------

memory 1000 mb

molecule butane {
  symmetry C1
  0 1 
  H      1.604   0.760   -8.260
  H      1.745   2.388   -8.880
  H      2.043   1.024   -9.930
  C      2.142   1.395   -8.932
  H      4.169   2.051   -9.210
  H      3.731   1.788   -7.539
  C      3.631   1.416   -8.537
  H      5.269   0.035   -8.685
  H      3.929   -0.553   -7.731
  C      4.203   -0.012   -8.612
  H      4.033   -1.721   -9.902
  H      3.908   -0.189   -10.732
  H      2.568   -0.776   -9.778
  C      3.635   -0.729   -9.850
  units Angstrom
}

dih_string = "4 7 10 14 40"
set optking fixed_dihedral = $dih_string

optimize('MP2/6-31G(d)')
--------------------------------------------------------------------------

  Memory set to 1000.000 MiB by Python script.
gradient() will perform analytic gradient computation.
    SCF Algorithm Type (re)set to DF.

*** tstart() called on lski1497
*** at Thu Feb 16 16:38:55 2017


         ---------------------------------------------------------
                                   SCF
            by Justin Turney, Rob Parrish, and Andy Simmonett
                              RHF Reference
                        1 Threads,   1000 MiB Core
         ---------------------------------------------------------

  ==> Geometry <==

    Molecular point group: c1
    Full point group: C1

    Geometry (in Angstrom), charge = 0, multiplicity = 1:

       Center              X                  Y                   Z               Mass       
    ------------   -----------------  -----------------  -----------------  -----------------
           H         -1.780902560730     0.248885860623     0.736970686905     1.007825032070
           H         -1.639902560730     1.876885860623     0.116970686905     1.007825032070
           H         -1.341902560730     0.512885860623    -0.933029313095     1.007825032070
           C         -1.242902560730     0.883885860623     0.064970686905    12.000000000000
           H          0.784097439270     1.539885860623    -0.213029313095     1.007825032070
           H          0.346097439270     1.276885860623     1.457970686905     1.007825032070
           C          0.246097439270     0.904885860623     0.459970686905    12.000000000000
           H          1.884097439270    -0.476114139377     0.311970686905     1.007825032070
           H          0.544097439270    -1.064114139377     1.265970686905     1.007825032070
           C          0.818097439270    -0.523114139377     0.384970686905    12.000000000000
           H          0.648097439270    -2.232114139377    -0.905029313095     1.007825032070
           H          0.523097439270    -0.700114139377    -1.735029313095     1.007825032070
           H         -0.816902560730    -1.287114139377    -0.781029313095     1.007825032070
           C          0.250097439270    -1.240114139377    -0.853029313095    12.000000000000

  Running in c1 symmetry.

  Rotational constants: A =      0.39416  B =      0.19300  C =      0.14783 [cm^-1]
  Rotational constants: A =  11816.74930  B =   5786.00979  C =   4431.75235 [MHz]
  Nuclear repulsion =  135.628873068029321

  Charge       = 0
  Multiplicity = 1
  Electrons    = 34
  Nalpha       = 17
  Nbeta        = 17

  ==> Algorithm <==

  SCF Algorithm Type is DF.
  DIIS enabled.
  MOM disabled.
  Fractional occupation disabled.
  Guess Type is SAD.
  Energy threshold   = 1.00e-10
  Density threshold  = 1.00e-10
  Integral threshold = 0.00e+00

  ==> Primary Basis <==

  Basis Set: 6-31G(D)
    Number of shells: 44
    Number of basis function: 80
    Number of Cartesian functions: 80
    Spherical Harmonics?: false
    Max angular momentum: 2

  ==> Pre-Iterations <==

   -------------------------------------------------------
    Irrep   Nso     Nmo     Nalpha   Nbeta   Ndocc  Nsocc
   -------------------------------------------------------
     A         80      80       0       0       0       0
   -------------------------------------------------------
    Total      80      80      17      17      17       0
   -------------------------------------------------------

  ==> Integral Setup <==

  ==> DFJK: Density-Fitted J/K Matrices <==

    J tasked:                  Yes
    K tasked:                  Yes
    wK tasked:                  No
    OpenMP threads:              1
    Integrals threads:           1
    Memory (MB):               715
    Algorithm:                Core
    Integral Cache:           NONE
    Schwarz Cutoff:          1E-12
    Fitting Condition:       1E-12

   => Auxiliary Basis Set <=

  Basis Set: 
    Number of shells: 186
    Number of basis function: 574
    Number of Cartesian functions: 574
    Spherical Harmonics?: false
    Max angular momentum: 3

  Minimum eigenvalue in the overlap matrix is 4.7259739422E-03.
  Using Symmetric Orthogonalization.
  SCF Guess: Superposition of Atomic Densities via on-the-fly atomic UHF.

  ==> Iterations <==

                           Total Energy        Delta E     RMS |[F,P]|

   @DF-RHF iter   0:  -158.97896517166268   -1.58979e+02   4.72716e-02 
   @DF-RHF iter   1:  -157.19090353854514    1.78806e+00   4.07311e-03 
   @DF-RHF iter   2:  -157.27530925364456   -8.44057e-02   1.15268e-03 DIIS
   @DF-RHF iter   3:  -157.28377396349541   -8.46471e-03   3.46012e-04 DIIS
   @DF-RHF iter   4:  -157.28436215284327   -5.88189e-04   8.70080e-05 DIIS
   @DF-RHF iter   5:  -157.28440953099195   -4.73781e-05   1.49409e-05 DIIS
   @DF-RHF iter   6:  -157.28441124640429   -1.71541e-06   2.78899e-06 DIIS
   @DF-RHF iter   7:  -157.28441128713214   -4.07279e-08   7.99881e-07 DIIS
   @DF-RHF iter   8:  -157.28441129059340   -3.46125e-09   1.62468e-07 DIIS
   @DF-RHF iter   9:  -157.28441129078507   -1.91676e-10   4.40625e-08 DIIS
   @DF-RHF iter  10:  -157.28441129080122   -1.61435e-11   1.03791e-08 DIIS
   @DF-RHF iter  11:  -157.28441129080173   -5.11591e-13   2.95929e-09 DIIS
   @DF-RHF iter  12:  -157.28441129080167    5.68434e-14   6.32181e-10 DIIS
   @DF-RHF iter  13:  -157.28441129080190   -2.27374e-13   1.25677e-10 DIIS
   @DF-RHF iter  14:  -157.28441129080178    1.13687e-13   2.97083e-11 DIIS

  ==> Post-Iterations <==

    Orbital Energies (a.u.)
    -----------------------

    Doubly Occupied:                                                      

       1A    -11.207762     2A    -11.207155     3A    -11.198963  
       4A    -11.198887     5A     -1.075962     6A     -0.970205  
       7A     -0.883936     8A     -0.776302     9A     -0.639727  
      10A     -0.628996    11A     -0.574212    12A     -0.539241  
      13A     -0.527541    14A     -0.507358    15A     -0.466868  
      16A     -0.453680    17A     -0.453357  

    Virtual:                                                              

      18A      0.233978    19A      0.282541    20A      0.291637  
      21A      0.304412    22A      0.316249    23A      0.320325  
      24A      0.349379    25A      0.353916    26A      0.368521  
      27A      0.379148    28A      0.390788    29A      0.419604  
      30A      0.451170    31A      0.714958    32A      0.732871  
      33A      0.755273    34A      0.755926    35A      0.775741  
      36A      0.840798    37A      0.845991    38A      0.929209  
      39A      0.950986    40A      0.996210    41A      1.118852  
      42A      1.138489    43A      1.177274    44A      1.182500  
      45A      1.183185    46A      1.208877    47A      1.213165  
      48A      1.216975    49A      1.237489    50A      1.269725  
      51A      1.270239    52A      1.307772    53A      1.327127  
      54A      1.584870    55A      1.715922    56A      1.736531  
      57A      1.739797    58A      1.911437    59A      1.957087  
      60A      2.062622    61A      2.164551    62A      2.285179  
      63A      2.314032    64A      2.320999    65A      2.352799  
      66A      2.452836    67A      2.502446    68A      2.634220  
      69A      2.670762    70A      2.682812    71A      2.715168  
      72A      2.750378    73A      2.801995    74A      2.938678  
      75A      2.946166    76A      3.095402    77A      4.589352  
      78A      4.691442    79A      4.797847    80A      4.960355  

    Final Occupation by Irrep:
              A 
    DOCC [    17 ]

  Energy converged.

  @DF-RHF Final Energy:  -157.28441129080178

   => Energetics <=

    Nuclear Repulsion Energy =            135.6288730680293213
    One-Electron Energy =                -479.2062637979247484
    Two-Electron Energy =                 186.2929794390935001
    DFT Exchange-Correlation Energy =       0.0000000000000000
    Empirical Dispersion Energy =           0.0000000000000000
    PCM Polarization Energy =               0.0000000000000000
    EFP Energy =                            0.0000000000000000
    Total Energy =                       -157.2844112908019554


  Saving occupied orbitals to File 180.

*** tstop() called on lski1497 at Thu Feb 16 16:39:01 2017
Module time:
	user time   =       4.88 seconds =       0.08 minutes
	system time =       0.19 seconds =       0.00 minutes
	total time  =          6 seconds =       0.10 minutes
Total time:
	user time   =       4.88 seconds =       0.08 minutes
	system time =       0.19 seconds =       0.00 minutes
	total time  =          6 seconds =       0.10 minutes


Properties will be evaluated at   0.000000,   0.000000,   0.000000 Bohr

Properties computed using the SCF density matrix

  Nuclear Dipole Moment: (a.u.)
     X:    -0.7969      Y:    -0.2851      Z:    -0.6349

  Electronic Dipole Moment: (a.u.)
     X:     0.8203      Y:     0.2931      Z:     0.6532

  Dipole Moment: (a.u.)
     X:     0.0234      Y:     0.0079      Z:     0.0183     Total:     0.0307

  Dipole Moment: (Debye)
     X:     0.0594      Y:     0.0202      Z:     0.0464     Total:     0.0781


  //>>>>>>>>>>>>>>>>>>>>>>>>>>>>>>>>>>>//
  //               DFMP2               //
  //<<<<<<<<<<<<<<<<<<<<<<<<<<<<<<<<<<<//


*** tstart() called on lski1497
*** at Thu Feb 16 16:39:01 2017


*** tstop() called on lski1497 at Thu Feb 16 16:39:02 2017
Module time:
	user time   =       0.53 seconds =       0.01 minutes
	system time =       0.01 seconds =       0.00 minutes
	total time  =          1 seconds =       0.02 minutes
Total time:
	user time   =       5.43 seconds =       0.09 minutes
	system time =       0.20 seconds =       0.00 minutes
	total time  =          7 seconds =       0.12 minutes
	 --------------------------------------------------------
	                          DF-MP2                         
	      2nd-Order Density-Fitted Moller-Plesset Theory     
	              RMP2 Wavefunction,   1 Threads             
	                                                         
	        Rob Parrish, Justin Turney, Andy Simmonett,      
	           Ed Hohenstein, and C. David Sherrill          
	 --------------------------------------------------------

   => Auxiliary Basis Set <=

  Basis Set: 
    Number of shells: 132
    Number of basis function: 364
    Number of Cartesian functions: 414
    Spherical Harmonics?: true
    Max angular momentum: 3

	 --------------------------------------------------------
	                 NBF =    80, NAUX =   364
	 --------------------------------------------------------
	   CLASS    FOCC     OCC    AOCC    AVIR     VIR    FVIR
	   PAIRS       0      17      17      63      63       0
	 --------------------------------------------------------

DGAS Warning! /src/lib/libfock/apps.cc:80 is not currently checking restricted

         ------------------------------------------------------------
                                     CPHF                           
                                  Rob Parrish                       
         ------------------------------------------------------------

  ==> Geometry <==

    Molecular point group: c1
    Full point group: C1

    Geometry (in Angstrom), charge = 0, multiplicity = 1:

       Center              X                  Y                   Z               Mass       
    ------------   -----------------  -----------------  -----------------  -----------------
           H         -1.780902560730     0.248885860623     0.736970686905     1.007825032070
           H         -1.639902560730     1.876885860623     0.116970686905     1.007825032070
           H         -1.341902560730     0.512885860623    -0.933029313095     1.007825032070
           C         -1.242902560730     0.883885860623     0.064970686905    12.000000000000
           H          0.784097439270     1.539885860623    -0.213029313095     1.007825032070
           H          0.346097439270     1.276885860623     1.457970686905     1.007825032070
           C          0.246097439270     0.904885860623     0.459970686905    12.000000000000
           H          1.884097439270    -0.476114139377     0.311970686905     1.007825032070
           H          0.544097439270    -1.064114139377     1.265970686905     1.007825032070
           C          0.818097439270    -0.523114139377     0.384970686905    12.000000000000
           H          0.648097439270    -2.232114139377    -0.905029313095     1.007825032070
           H          0.523097439270    -0.700114139377    -1.735029313095     1.007825032070
           H         -0.816902560730    -1.287114139377    -0.781029313095     1.007825032070
           C          0.250097439270    -1.240114139377    -0.853029313095    12.000000000000

  Nuclear repulsion =  135.628873068029321
  Reference energy  = -157.284411290801785

  ==> Basis Set <==

  Basis Set: 6-31G(D)
    Number of shells: 44
    Number of basis function: 80
    Number of Cartesian functions: 80
    Spherical Harmonics?: false
    Max angular momentum: 2

  ==> CGRSolver (by Rob Parrish) <==

   Number of roots    =         1
   Preconditioning    =    JACOBI
   Convergence cutoff =     1E-06
   Maximum iterations =       100

  ==> CPHFRHamiltonian (by Rob Parrish) <== 

  ==> DFJK: Density-Fitted J/K Matrices <==

    J tasked:                  Yes
    K tasked:                  Yes
    wK tasked:                  No
    OpenMP threads:              1
    Integrals threads:           1
    Memory (MB):               715
    Algorithm:                Core
    Integral Cache:           NONE
    Schwarz Cutoff:          1E-12
    Fitting Condition:       1E-12

   => Auxiliary Basis Set <=

  Basis Set: 
    Number of shells: 186
    Number of basis function: 574
    Number of Cartesian functions: 574
    Spherical Harmonics?: false
    Max angular momentum: 3

  ==> CPHF Iterations <==

  => Iterations <=

             Iter  Converged  Remaining    Residual
  CGR           1          0          1   7.575E-02
  CGR           2          0          1   8.676E-03
  CGR           3          0          1   2.261E-03
  CGR           4          0          1   4.345E-04
  CGR           5          0          1   7.756E-05
  CGR           6          0          1   1.412E-05
  CGR           7          0          1   1.898E-06
  CGR           8          1          0   4.778E-07

    CGRSolver converged.

  ==> DFCorrGrad: Density-Fitted Correlated Gradients <==

    OpenMP threads:              1
    Integrals threads:           1
    Memory (MB):               715
    Schwarz Cutoff:          0E+00
    Fitting Condition:       1E-12

   => Auxiliary Basis Set <=

  Basis Set: 
    Number of shells: 186
    Number of basis function: 510
    Number of Cartesian functions: 574
    Spherical Harmonics?: true
    Max angular momentum: 3

	-----------------------------------------------------------
	 ==================> DF-MP2 Energies <==================== 
	-----------------------------------------------------------
	 Reference Energy          =    -157.2844112908017848 [Eh]
	 Singles Energy            =      -0.0000000000000000 [Eh]
	 Same-Spin Energy          =      -0.1253835699110887 [Eh]
	 Opposite-Spin Energy      =      -0.4213423314636932 [Eh]
	 Correlation Energy        =      -0.5467259013747819 [Eh]
	 Total Energy              =    -157.8311371921765556 [Eh]
	-----------------------------------------------------------
	 ================> DF-SCS-MP2 Energies <================== 
	-----------------------------------------------------------
	 SCS Same-Spin Scale       =       0.3333333333333333 [-]
	 SCS Opposite-Spin Scale   =       1.2000000000000000 [-]
	 SCS Same-Spin Energy      =      -0.0417945233036962 [Eh]
	 SCS Opposite-Spin Energy  =      -0.5056107977564318 [Eh]
	 SCS Correlation Energy    =      -0.5474053210601281 [Eh]
	 SCS Total Energy          =    -157.8318166118619104 [Eh]
	-----------------------------------------------------------


  -Total Gradient:
     Atom            X                  Y                   Z
    ------   -----------------  -----------------  -----------------
       1        0.011442577303     0.009589996355    -0.009225109384
       2        0.009484929698    -0.013914056066    -0.000782240286
       3        0.006971369052    -0.001346456546     0.011952367300
       4       -0.025581699065    -0.011949784885    -0.008505331262
       5       -0.008923686413    -0.011926267068     0.009397342479
       6       -0.003950292942    -0.009978346271    -0.014783815278
       7        0.018816502424     0.027095314895     0.007146787493
       8       -0.018160017865     0.002090033508    -0.002701195219
       9        0.002511945878     0.009801114468    -0.015131302596
      10        0.019882231012    -0.013644113643     0.023816089372
      11       -0.005177995599     0.015915303294     0.004271325742
      12       -0.002952600022    -0.006596722328     0.016101777346
      13        0.010337841648     0.007938515558     0.002437125748
      14       -0.014701105106    -0.003074531271    -0.023993821455


			-----------------------------------------
			 OPTKING 2.0: for geometry optimizations 
			  - R.A. King,  Bethel University        
			-----------------------------------------

	Previous internal coordinate definitions found.
	---Fragment 1 Geometry and Gradient---
	 H          -3.3654181091        0.4703261149        1.3926727662
	 H          -3.0989667244        3.5468002593        0.2210425638
	 H          -2.5358283368        0.9692138140       -1.7631698757
	 C          -2.3487454496        1.6703022093        0.1227768049
	 H           1.4817294217        2.9099625525       -0.4025670600
	 H           0.6540293755        2.4129645795        2.7551653080
	 C           0.4650567622        1.7099864581        0.8692186274
	 H           3.5604281679       -0.8997253314        0.5895391597
	 H           1.0281951498       -2.0108842976        2.3923378905
	 C           1.5459801102       -0.9885424597        0.7274891674
	 H           1.2247266676       -4.2180844208       -1.7102575440
	 H           0.9885109010       -1.3230239852       -3.2787302343
	 H          -1.5437221170       -2.4322932252       -1.4759315035
	 C           0.4726156668       -2.3434760969       -1.6119917851
	             0.0114425773        0.0095899964       -0.0092251094
	             0.0094849297       -0.0139140561       -0.0007822403
	             0.0069713691       -0.0013464565        0.0119523673
	            -0.0255816991       -0.0119497849       -0.0085053313
	            -0.0089236864       -0.0119262671        0.0093973425
	            -0.0039502929       -0.0099783463       -0.0147838153
	             0.0188165024        0.0270953149        0.0071467875
	            -0.0181600179        0.0020900335       -0.0027011952
	             0.0025119459        0.0098011145       -0.0151313026
	             0.0198822310       -0.0136441136        0.0238160894
	            -0.0051779956        0.0159153033        0.0042713257
	            -0.0029526000       -0.0065967223        0.0161017773
	             0.0103378416        0.0079385156        0.0024371257
	            -0.0147011051       -0.0030745313       -0.0239938215

	Previous optimization step data not found.  Starting new optimization.

	---Fragment 1 Intrafragment Coordinates---
	 - Coordinate -           - BOHR/RAD -       - ANG/DEG -
	 R(1,4)           =         2.021436	       1.069698
	 R(2,4)           =         2.023298	       1.070683
	 R(3,4)           =         2.020723	       1.069320
	 R(4,7)           =         2.911397	       1.540645
	 R(5,7)           =         2.022623	       1.070326
	 R(6,7)           =         2.021555	       1.069761
	 R(7,10)          =         2.910419	       1.540128
	 R(8,10)          =         2.021118	       1.069530
	 R(9,10)          =         2.021140	       1.069541
	 R(10,14)         =         2.908802	       1.539272
	 R(11,14)         =         2.022247	       1.070127
	 R(12,14)         =         2.021259	       1.069604
	 R(13,14)         =         2.022874	       1.070459
	 B(1,4,2)         =         1.910870	     109.484805
	 B(1,4,3)         =         1.911121	     109.499161
	 B(1,4,7)         =         1.910399	     109.457783
	 B(2,4,3)         =         1.910042	     109.437340
	 B(2,4,7)         =         1.910564	     109.467262
	 B(3,4,7)         =         1.910803	     109.480971
	 B(4,7,5)         =         1.909937	     109.431343
	 B(4,7,6)         =         1.911630	     109.528316
	 B(4,7,10)        =         1.911154	     109.501062
	 B(5,7,6)         =         1.910605	     109.469614
	 B(5,7,10)        =         1.910047	     109.437654
	 B(6,7,10)        =         1.910425	     109.459295
	 B(7,10,8)        =         1.910015	     109.435815
	 B(7,10,9)        =         1.911064	     109.495884
	 B(7,10,14)       =         1.911351	     109.512373
	 B(8,10,9)        =         1.911117	     109.498955
	 B(8,10,14)       =         1.910664	     109.472970
	 B(9,10,14)       =         1.909588	     109.411344
	 B(10,14,11)      =         1.910958	     109.489813
	 B(10,14,12)      =         1.911193	     109.503272
	 B(10,14,13)      =         1.911520	     109.522005
	 B(11,14,12)      =         1.910285	     109.451288
	 B(11,14,13)      =         1.910581	     109.468233
	 B(12,14,13)      =         1.909262	     109.392648
	 D(1,4,7,5)       =         3.140997	     179.965873
	 D(1,4,7,6)       =        -1.047644	     -60.025575
	 D(1,4,7,10)      =         1.047427	      60.013132
	 D(2,4,7,5)       =        -1.047689	     -60.028143
	 D(2,4,7,6)       =         1.046856	      59.980409
	 D(2,4,7,10)      =        -3.141259	    -179.980883
	 D(3,4,7,5)       =         1.046044	      59.933911
	 D(3,4,7,6)       =         3.140588	     179.942463
	 D(3,4,7,10)      =        -1.047526	     -60.018830
	 D(4,7,10,8)      =         2.792518	     159.999472
	 D(4,7,10,9)      =        -1.395795	     -79.973150
	 D(4,7,10,14)     =         0.698024	      39.993827
	 D(5,7,10,8)      =         0.699015	      40.050596
	 D(5,7,10,9)      =         2.793888	     160.077974
	 D(5,7,10,14)     =        -1.395479	     -79.955049
	 D(6,7,10,8)      =        -1.394860	     -79.919602
	 D(6,7,10,9)      =         0.700013	      40.107776
	 D(6,7,10,14)     =         2.793831	     160.074752
	 D(7,10,14,11)    =         3.141157	     179.975061
	 D(7,10,14,12)    =         1.046647	      59.968444
	 D(7,10,14,13)    =        -1.046954	     -59.986060
	 D(8,10,14,11)    =         1.047061	      59.992153
	 D(8,10,14,12)    =        -1.047450	     -60.014464
	 D(8,10,14,13)    =        -3.141051	    -179.968968
	 D(9,10,14,11)    =        -1.047306	     -60.006228
	 D(9,10,14,12)    =         3.141368	     179.987154
	 D(9,10,14,13)    =         1.047767	      60.032651

	Current energy   :      -157.8311371922

	Generating empirical Hessian (Schlegel '84) for each fragment.
	Adding user-defined constraint: Fragment 1; Coordinate 49:
		Value =     0.698024; Fixed value    =     0.698130
		Force =     0.000053; Force constant =     0.500000
	Removing off-diagonal coupling between coordinate 49 and others.
	Taking RFO optimization step.
	Going to follow RFO solution 1.
	Using RFO vector 1.

	Determining step-restricting scale parameter for RS-RFO.
	Maximum step size allowed    0.10000

	 Iter      |step|        alpha        rfo_root  
	------------------------------------------------
	    0     0.41530       1.00000           1
	    1     0.28893       3.79755           1
	    2     0.19852      12.39447           1
	    3     0.14303      30.09420           1
	    4     0.11366      53.27760           1
	    5     0.10216      68.75813           1
	    6     0.10007      72.19836           1
	    7     0.10000      72.31724           1
	------------------------------------------------
	Norm of target step-size    0.10000
	Projected energy change by RFO approximation:        -0.0086452131

	Back-transformation to cartesian coordinates...
	Could not converge backtransformation.
	Using first guess instead.

	--- Internal Coordinate Step in ANG or DEG, aJ/ANG or AJ/DEG ---
	 ---------------------------------------------------------------------------
	   Coordinate                Previous        Force       Change         New 
	   ----------                --------       ------       ------       ------
	    1 R(1,4)          =      1.069698     0.142063     0.009207     1.078905
	    2 R(2,4)          =      1.070683     0.135604     0.009608     1.080291
	    3 R(3,4)          =      1.069320     0.093373     0.007072     1.076392
	    4 R(4,7)          =      1.540645     0.002615     0.001571     1.542216
	    5 R(5,7)          =      1.070326     0.143930     0.009173     1.079499
	    6 R(6,7)          =      1.069761     0.145259     0.009519     1.079279
	    7 R(7,10)         =      1.540128     0.122146     0.008669     1.548797
	    8 R(8,10)         =      1.069530     0.146846     0.009618     1.079148
	    9 R(9,10)         =      1.069541     0.148833     0.009475     1.079016
	   10 R(10,14)        =      1.539272     0.008602     0.001987     1.541259
	   11 R(11,14)        =      1.070127     0.139125     0.009825     1.079952
	   12 R(12,14)        =      1.069604     0.143038     0.009267     1.078871
	   13 R(13,14)        =      1.070459     0.086416     0.006641     1.077100
	   14 B(1,4,2)        =    109.484805    -0.000278    -0.247056   109.237749
	   15 B(1,4,3)        =    109.499161    -0.000270    -0.302860   109.196302
	   16 B(1,4,7)        =    109.457783     0.000228     0.192428   109.650211
	   17 B(2,4,3)        =    109.437340    -0.000461    -0.426298   109.011042
	   18 B(2,4,7)        =    109.467262     0.000168     0.170989   109.638251
	   19 B(3,4,7)        =    109.480971     0.000614     0.607078   110.088049
	   20 B(4,7,5)        =    109.431343    -0.000798    -0.727434   108.703909
	   21 B(4,7,6)        =    109.528316    -0.000938    -0.782848   108.745468
	   22 B(4,7,10)       =    109.501062     0.003049     2.704171   112.205233
	   23 B(5,7,6)        =    109.469614     0.000338     0.193934   109.663548
	   24 B(5,7,10)       =    109.437654    -0.000746    -0.613616   108.824038
	   25 B(6,7,10)       =    109.459295    -0.000905    -0.783972   108.675322
	   26 B(7,10,8)       =    109.435815    -0.000903    -0.782290   108.653525
	   27 B(7,10,9)       =    109.495884    -0.000751    -0.619169   108.876715
	   28 B(7,10,14)      =    109.512373     0.003047     2.701876   112.214249
	   29 B(8,10,9)       =    109.498955     0.000335     0.190648   109.689603
	   30 B(8,10,14)      =    109.472970    -0.000932    -0.776355   108.696615
	   31 B(9,10,14)      =    109.411344    -0.000795    -0.723763   108.687582
	   32 B(10,14,11)     =    109.489813     0.000169     0.171392   109.661205
	   33 B(10,14,12)     =    109.503272     0.000220     0.185408   109.688680
	   34 B(10,14,13)     =    109.522005     0.000611     0.605761   110.127767
	   35 B(11,14,12)     =    109.451288    -0.000274    -0.243347   109.207940
	   36 B(11,14,13)     =    109.468233    -0.000465    -0.432433   109.035800
	   37 B(12,14,13)     =    109.392648    -0.000261    -0.293627   109.099021
	   38 D(1,4,7,5)      =    179.965873     0.000085     0.325640   180.291513
	   39 D(1,4,7,6)      =    -60.025575    -0.000064    -0.338855   -60.364430
	   40 D(1,4,7,10)     =     60.013132    -0.000021    -0.128677    59.884455
	   41 D(2,4,7,5)      =    -60.028143     0.000062     0.246060   -59.782082
	   42 D(2,4,7,6)      =     59.980409    -0.000087    -0.418434    59.561975
	   43 D(2,4,7,10)     =   -179.980883    -0.000044    -0.208257  -180.189140
	   44 D(3,4,7,5)      =     59.933911     0.000042     0.202735    60.136646
	   45 D(3,4,7,6)      =    179.942463    -0.000107    -0.461760   179.480703
	   46 D(3,4,7,10)     =    -60.018830    -0.000064    -0.251582   -60.270412
	   47 D(4,7,10,8)     =    159.999472     0.000101     0.390532   160.390004
	   48 D(4,7,10,9)     =    -79.973150    -0.000038    -0.214584   -80.187734
	   49 D(4,7,10,14)    =     39.993827     0.000062     0.176579    40.170406
	   50 D(5,7,10,8)     =     40.050596     0.000002     0.001988    40.052584
	   51 D(5,7,10,9)     =    160.077974    -0.000136    -0.603128   159.474847
	   52 D(5,7,10,14)    =    -79.955049    -0.000037    -0.211965   -80.167014
	   53 D(6,7,10,8)     =    -79.919602     0.000139     0.599197   -79.320406
	   54 D(6,7,10,9)     =     40.107776     0.000000    -0.005919    40.101857
	   55 D(6,7,10,14)    =    160.074752     0.000100     0.385244   160.459997
	   56 D(7,10,14,11)   =    179.975061    -0.000043    -0.203722   179.771340
	   57 D(7,10,14,12)   =     59.968444    -0.000021    -0.124837    59.843607
	   58 D(7,10,14,13)   =    -59.986060    -0.000064    -0.254157   -60.240217
	   59 D(8,10,14,11)   =     59.992153    -0.000086    -0.415394    59.576759
	   60 D(8,10,14,12)   =    -60.014464    -0.000064    -0.336510   -60.350974
	   61 D(8,10,14,13)   =   -179.968968    -0.000107    -0.465830  -180.434798
	   62 D(9,10,14,11)   =    -60.006228     0.000062     0.245282   -59.760946
	   63 D(9,10,14,12)   =    179.987154     0.000084     0.324167   180.311321
	   64 D(9,10,14,13)   =     60.032651     0.000041     0.194847    60.227498
	 ---------------------------------------------------------------------------
	 Forces used to impose fixed constraints are not included.
	  Forces zeroed: 49 

  ==> Convergence Check <==

  Measures of convergence in internal coordinates in au.
  Criteria marked as inactive (o), active & met (*), and active & unmet ( ).
  --------------------------------------------------------------------------------------------- ~
   Step     Total Energy     Delta E     MAX Force     RMS Force      MAX Disp      RMS Disp    ~
  --------------------------------------------------------------------------------------------- ~
    Convergence Criteria    1.00e-06 *    3.00e-04 *             o    1.20e-03 *             o  ~
  --------------------------------------------------------------------------------------------- ~
      1    -157.83113719   -1.58e+02      4.01e-02      1.11e-02 o    4.72e-02      1.27e-02 o  ~
  ---------------------------------------------------------------------------------------------

	Writing optimization data to binary file.
	Structure for next step:
	Cartesian Geometry (in Angstrom)
	    H    -1.8289015732   0.3057836524   0.7514270348
	    H    -1.6367485616   1.9551872123   0.1669032933
	    H    -1.4057984312   0.6018287646  -0.9277682907
	    C    -1.2693746044   0.9426632196   0.0840814380
	    H     0.7697884418   1.5468254516  -0.2130535290
	    H     0.3386258074   1.2553890624   1.4731893702
	    C     0.2257876266   0.9014160925   0.4598708022
	    H     1.8881063377  -0.4556786508   0.2940804359
	    H     0.5448899963  -1.0757550712   1.2557205549
	    C     0.8137853454  -0.5283205713   0.3656159546
	    H     0.7253851742  -2.2817703196  -0.8911394943
	    H     0.5526755003  -0.7636274629  -1.7642511241
	    H    -0.7843551285  -1.3875765487  -0.8115727376
	    C     0.2874982191  -1.2949627823  -0.8635140916
			--------------------------
			 OPTKING Finished Execution 
			--------------------------

    Structure for next step:
    Molecular point group: c1
    Full point group: C1

    Geometry (in Angstrom), charge = 0, multiplicity = 1:

    H           -1.826309936447     0.306682184573     0.753476517182
    H           -1.634156924925     1.956085744389     0.168952775746
    H           -1.403206794445     0.602727296746    -0.925718808308
    C           -1.266782967730     0.943561751751     0.086130920455
    H            0.772380078537     1.547723983713    -0.211004046532
    H            0.341217444091     1.256287594578     1.475238852581
    C            0.228379263277     0.902314624621     0.461920284652
    H            1.890697974367    -0.454780118630     0.296129918326
    H            0.547481632982    -1.074856539114     1.257770037347
    C            0.816376982073    -0.527422039154     0.367665437063
    H            0.727976810906    -2.280871787425    -0.889090011886
    H            0.555267137048    -0.762728930741    -1.762201641629
    H           -0.781763491768    -1.386678016597    -0.809523255162
    C            0.290089855828    -1.294064250133    -0.861464609198

gradient() will perform analytic gradient computation.
    SCF Algorithm Type (re)set to DF.

*** tstart() called on lski1497
*** at Thu Feb 16 16:39:22 2017


         ---------------------------------------------------------
                                   SCF
            by Justin Turney, Rob Parrish, and Andy Simmonett
                              RHF Reference
                        1 Threads,   1000 MiB Core
         ---------------------------------------------------------

  ==> Geometry <==

    Molecular point group: c1
    Full point group: C1

    Geometry (in Angstrom), charge = 0, multiplicity = 1:

       Center              X                  Y                   Z               Mass       
    ------------   -----------------  -----------------  -----------------  -----------------
           H         -1.826309936447     0.306682184573     0.753476517182     1.007825032070
           H         -1.634156924925     1.956085744389     0.168952775746     1.007825032070
           H         -1.403206794445     0.602727296746    -0.925718808308     1.007825032070
           C         -1.266782967730     0.943561751751     0.086130920455    12.000000000000
           H          0.772380078537     1.547723983713    -0.211004046532     1.007825032070
           H          0.341217444091     1.256287594578     1.475238852581     1.007825032070
           C          0.228379263277     0.902314624621     0.461920284652    12.000000000000
           H          1.890697974367    -0.454780118630     0.296129918326     1.007825032070
           H          0.547481632982    -1.074856539114     1.257770037347     1.007825032070
           C          0.816376982073    -0.527422039154     0.367665437063    12.000000000000
           H          0.727976810906    -2.280871787425    -0.889090011886     1.007825032070
           H          0.555267137048    -0.762728930741    -1.762201641629     1.007825032070
           H         -0.781763491768    -1.386678016597    -0.809523255162     1.007825032070
           C          0.290089855828    -1.294064250133    -0.861464609198    12.000000000000

  Running in c1 symmetry.

  Rotational constants: A =      0.40227  B =      0.18016  C =      0.14102 [cm^-1]
  Rotational constants: A =  12059.64148  B =   5401.04441  C =   4227.58794 [MHz]
  Nuclear repulsion =  133.932276894178386

  Charge       = 0
  Multiplicity = 1
  Electrons    = 34
  Nalpha       = 17
  Nbeta        = 17

  ==> Algorithm <==

  SCF Algorithm Type is DF.
  DIIS enabled.
  MOM disabled.
  Fractional occupation disabled.
  Guess Type is READ.
  Energy threshold   = 1.00e-10
  Density threshold  = 1.00e-10
  Integral threshold = 0.00e+00

  ==> Primary Basis <==

  Basis Set: 6-31G(D)
    Number of shells: 44
    Number of basis function: 80
    Number of Cartesian functions: 80
    Spherical Harmonics?: false
    Max angular momentum: 2

  ==> Pre-Iterations <==

   -------------------------------------------------------
    Irrep   Nso     Nmo     Nalpha   Nbeta   Ndocc  Nsocc
   -------------------------------------------------------
     A         80      80       0       0       0       0
   -------------------------------------------------------
    Total      80      80      17      17      17       0
   -------------------------------------------------------

  ==> Integral Setup <==

  ==> DFJK: Density-Fitted J/K Matrices <==

    J tasked:                  Yes
    K tasked:                  Yes
    wK tasked:                  No
    OpenMP threads:              1
    Integrals threads:           1
    Memory (MB):               715
    Algorithm:                Core
    Integral Cache:           NONE
    Schwarz Cutoff:          1E-12
    Fitting Condition:       1E-12

   => Auxiliary Basis Set <=

  Basis Set: 
    Number of shells: 186
    Number of basis function: 574
    Number of Cartesian functions: 574
    Spherical Harmonics?: false
    Max angular momentum: 3

  Minimum eigenvalue in the overlap matrix is 4.8758722623E-03.
  Using Symmetric Orthogonalization.
  SCF Guess was Projection but file not found.
  Switching over to SAD guess.

  SCF Guess: Superposition of Atomic Densities via on-the-fly atomic UHF.

  ==> Iterations <==

                           Total Energy        Delta E     RMS |[F,P]|

   @DF-RHF iter   0:  -158.85691300434652   -1.58857e+02   4.63561e-02 
   @DF-RHF iter   1:  -157.19720939900569    1.65970e+00   4.04404e-03 
   @DF-RHF iter   2:  -157.28165561487802   -8.44462e-02   1.16089e-03 DIIS
   @DF-RHF iter   3:  -157.29025305793115   -8.59744e-03   3.55000e-04 DIIS
   @DF-RHF iter   4:  -157.29086918952507   -6.16132e-04   8.69998e-05 DIIS
   @DF-RHF iter   5:  -157.29091735591848   -4.81664e-05   1.44884e-05 DIIS
   @DF-RHF iter   6:  -157.29091900463467   -1.64872e-06   2.56423e-06 DIIS
   @DF-RHF iter   7:  -157.29091903920650   -3.45718e-08   7.57652e-07 DIIS
   @DF-RHF iter   8:  -157.29091904219794   -2.99144e-09   1.42832e-07 DIIS
   @DF-RHF iter   9:  -157.29091904234562   -1.47679e-10   3.91581e-08 DIIS
   @DF-RHF iter  10:  -157.29091904235784   -1.22213e-11   9.90446e-09 DIIS
   @DF-RHF iter  11:  -157.29091904235824   -3.97904e-13   2.65880e-09 DIIS
   @DF-RHF iter  12:  -157.29091904235835   -1.13687e-13   5.47143e-10 DIIS
   @DF-RHF iter  13:  -157.29091904235858   -2.27374e-13   1.08680e-10 DIIS
   @DF-RHF iter  14:  -157.29091904235824    3.41061e-13   2.63828e-11 DIIS

  ==> Post-Iterations <==

    Orbital Energies (a.u.)
    -----------------------

    Doubly Occupied:                                                      

       1A    -11.211868     2A    -11.211303     3A    -11.203749  
       4A    -11.203696     5A     -1.069131     6A     -0.971854  
       7A     -0.878908     8A     -0.773170     9A     -0.636530  
      10A     -0.620585    11A     -0.573858    12A     -0.533560  
      13A     -0.528708    14A     -0.509046    15A     -0.463811  
      16A     -0.454710    17A     -0.453030  

    Virtual:                                                              

      18A      0.229379    19A      0.281966    20A      0.290576  
      21A      0.301014    22A      0.314866    23A      0.318138  
      24A      0.345329    25A      0.347700    26A      0.363617  
      27A      0.378149    28A      0.385746    29A      0.414561  
      30A      0.457033    31A      0.713547    32A      0.731160  
      33A      0.738336    34A      0.759261    35A      0.775428  
      36A      0.847210    37A      0.848845    38A      0.921391  
      39A      0.950068    40A      0.997644    41A      1.110816  
      42A      1.119115    43A      1.167545    44A      1.171383  
      45A      1.176220    46A      1.193292    47A      1.202180  
      48A      1.207162    49A      1.236091    50A      1.258626  
      51A      1.258872    52A      1.294297    53A      1.312395  
      54A      1.582346    55A      1.711955    56A      1.714827  
      57A      1.729888    58A      1.910036    59A      1.956774  
      60A      2.049471    61A      2.163467    62A      2.278394  
      63A      2.302882    64A      2.317666    65A      2.347380  
      66A      2.437470    67A      2.484878    68A      2.624067  
      69A      2.662624    70A      2.665741    71A      2.695174  
      72A      2.737860    73A      2.781174    74A      2.930325  
      75A      2.959093    76A      3.081617    77A      4.564854  
      78A      4.690750    79A      4.793251    80A      4.951765  

    Final Occupation by Irrep:
              A 
    DOCC [    17 ]

  Energy converged.

  @DF-RHF Final Energy:  -157.29091904235824

   => Energetics <=

    Nuclear Repulsion Energy =            133.9322768941783863
    One-Electron Energy =                -475.8513554811332824
    Two-Electron Energy =                 184.6281595445965422
    DFT Exchange-Correlation Energy =       0.0000000000000000
    Empirical Dispersion Energy =           0.0000000000000000
    PCM Polarization Energy =               0.0000000000000000
    EFP Energy =                            0.0000000000000000
    Total Energy =                       -157.2909190423583823


  Saving occupied orbitals to File 180.

*** tstop() called on lski1497 at Thu Feb 16 16:39:28 2017
Module time:
	user time   =       5.03 seconds =       0.08 minutes
	system time =       0.13 seconds =       0.00 minutes
	total time  =          6 seconds =       0.10 minutes
Total time:
	user time   =      28.30 seconds =       0.47 minutes
	system time =       0.86 seconds =       0.01 minutes
	total time  =         33 seconds =       0.55 minutes


Properties will be evaluated at   0.000000,   0.000000,   0.000000 Bohr

Properties computed using the SCF density matrix

  Nuclear Dipole Moment: (a.u.)
     X:    -0.7597      Y:    -0.2722      Z:    -0.6056

  Electronic Dipole Moment: (a.u.)
     X:     0.7820      Y:     0.2800      Z:     0.6230

  Dipole Moment: (a.u.)
     X:     0.0223      Y:     0.0077      Z:     0.0174     Total:     0.0293

  Dipole Moment: (Debye)
     X:     0.0566      Y:     0.0197      Z:     0.0443     Total:     0.0745


  //>>>>>>>>>>>>>>>>>>>>>>>>>>>>>>>>>>>//
  //               DFMP2               //
  //<<<<<<<<<<<<<<<<<<<<<<<<<<<<<<<<<<<//


*** tstart() called on lski1497
*** at Thu Feb 16 16:39:28 2017


*** tstop() called on lski1497 at Thu Feb 16 16:39:29 2017
Module time:
	user time   =       0.52 seconds =       0.01 minutes
	system time =       0.00 seconds =       0.00 minutes
	total time  =          1 seconds =       0.02 minutes
Total time:
	user time   =      28.84 seconds =       0.48 minutes
	system time =       0.86 seconds =       0.01 minutes
	total time  =         34 seconds =       0.57 minutes
	 --------------------------------------------------------
	                          DF-MP2                         
	      2nd-Order Density-Fitted Moller-Plesset Theory     
	              RMP2 Wavefunction,   1 Threads             
	                                                         
	        Rob Parrish, Justin Turney, Andy Simmonett,      
	           Ed Hohenstein, and C. David Sherrill          
	 --------------------------------------------------------

   => Auxiliary Basis Set <=

  Basis Set: 
    Number of shells: 132
    Number of basis function: 364
    Number of Cartesian functions: 414
    Spherical Harmonics?: true
    Max angular momentum: 3

	 --------------------------------------------------------
	                 NBF =    80, NAUX =   364
	 --------------------------------------------------------
	   CLASS    FOCC     OCC    AOCC    AVIR     VIR    FVIR
	   PAIRS       0      17      17      63      63       0
	 --------------------------------------------------------

DGAS Warning! /src/lib/libfock/apps.cc:80 is not currently checking restricted

         ------------------------------------------------------------
                                     CPHF                           
                                  Rob Parrish                       
         ------------------------------------------------------------

  ==> Geometry <==

    Molecular point group: c1
    Full point group: C1

    Geometry (in Angstrom), charge = 0, multiplicity = 1:

       Center              X                  Y                   Z               Mass       
    ------------   -----------------  -----------------  -----------------  -----------------
           H         -1.826309936447     0.306682184573     0.753476517182     1.007825032070
           H         -1.634156924925     1.956085744389     0.168952775746     1.007825032070
           H         -1.403206794445     0.602727296746    -0.925718808308     1.007825032070
           C         -1.266782967730     0.943561751751     0.086130920455    12.000000000000
           H          0.772380078537     1.547723983713    -0.211004046532     1.007825032070
           H          0.341217444091     1.256287594578     1.475238852581     1.007825032070
           C          0.228379263277     0.902314624621     0.461920284652    12.000000000000
           H          1.890697974367    -0.454780118630     0.296129918326     1.007825032070
           H          0.547481632982    -1.074856539114     1.257770037347     1.007825032070
           C          0.816376982073    -0.527422039154     0.367665437063    12.000000000000
           H          0.727976810906    -2.280871787425    -0.889090011886     1.007825032070
           H          0.555267137048    -0.762728930741    -1.762201641629     1.007825032070
           H         -0.781763491768    -1.386678016597    -0.809523255162     1.007825032070
           C          0.290089855828    -1.294064250133    -0.861464609198    12.000000000000

  Nuclear repulsion =  133.932276894178386
  Reference energy  = -157.290919042358240

  ==> Basis Set <==

  Basis Set: 6-31G(D)
    Number of shells: 44
    Number of basis function: 80
    Number of Cartesian functions: 80
    Spherical Harmonics?: false
    Max angular momentum: 2

  ==> CGRSolver (by Rob Parrish) <==

   Number of roots    =         1
   Preconditioning    =    JACOBI
   Convergence cutoff =     1E-06
   Maximum iterations =       100

  ==> CPHFRHamiltonian (by Rob Parrish) <== 

  ==> DFJK: Density-Fitted J/K Matrices <==

    J tasked:                  Yes
    K tasked:                  Yes
    wK tasked:                  No
    OpenMP threads:              1
    Integrals threads:           1
    Memory (MB):               715
    Algorithm:                Core
    Integral Cache:           NONE
    Schwarz Cutoff:          1E-12
    Fitting Condition:       1E-12

   => Auxiliary Basis Set <=

  Basis Set: 
    Number of shells: 186
    Number of basis function: 574
    Number of Cartesian functions: 574
    Spherical Harmonics?: false
    Max angular momentum: 3

  ==> CPHF Iterations <==

  => Iterations <=

             Iter  Converged  Remaining    Residual
  CGR           1          0          1   7.487E-02
  CGR           2          0          1   8.603E-03
  CGR           3          0          1   2.264E-03
  CGR           4          0          1   4.332E-04
  CGR           5          0          1   7.576E-05
  CGR           6          0          1   1.387E-05
  CGR           7          0          1   1.791E-06
  CGR           8          1          0   4.379E-07

    CGRSolver converged.

  ==> DFCorrGrad: Density-Fitted Correlated Gradients <==

    OpenMP threads:              1
    Integrals threads:           1
    Memory (MB):               715
    Schwarz Cutoff:          0E+00
    Fitting Condition:       1E-12

   => Auxiliary Basis Set <=

  Basis Set: 
    Number of shells: 186
    Number of basis function: 510
    Number of Cartesian functions: 574
    Spherical Harmonics?: true
    Max angular momentum: 3

	-----------------------------------------------------------
	 ==================> DF-MP2 Energies <==================== 
	-----------------------------------------------------------
	 Reference Energy          =    -157.2909190423582402 [Eh]
	 Singles Energy            =      -0.0000000000000000 [Eh]
	 Same-Spin Energy          =      -0.1247786378230913 [Eh]
	 Opposite-Spin Energy      =      -0.4216903180043641 [Eh]
	 Correlation Energy        =      -0.5464689558274554 [Eh]
	 Total Energy              =    -157.8373879981857044 [Eh]
	-----------------------------------------------------------
	 ================> DF-SCS-MP2 Energies <================== 
	-----------------------------------------------------------
	 SCS Same-Spin Scale       =       0.3333333333333333 [-]
	 SCS Opposite-Spin Scale   =       1.2000000000000000 [-]
	 SCS Same-Spin Energy      =      -0.0415928792743638 [Eh]
	 SCS Opposite-Spin Energy  =      -0.5060283816052369 [Eh]
	 SCS Correlation Energy    =      -0.5476212608796006 [Eh]
	 SCS Total Energy          =    -157.8385403032378349 [Eh]
	-----------------------------------------------------------


  -Total Gradient:
     Atom            X                  Y                   Z
    ------   -----------------  -----------------  -----------------
       1        0.007989389613     0.005461835969    -0.005060275778
       2        0.005520764816    -0.007478099809    -0.000728279376
       3        0.004638780501     0.000420765506     0.008753994843
       4       -0.021137030330    -0.003763882054    -0.007759177836
       5       -0.006101663031    -0.008504526980     0.004243601090
       6       -0.004536226249    -0.007461479303    -0.008046669340
       7        0.013836918731     0.021470235169     0.008271364624
       8       -0.011048137005     0.001898870845    -0.004319604347
       9       -0.000412482715     0.006244501871    -0.009799225660
      10        0.017964941814    -0.010313573166     0.017134408252
      11       -0.003005604834     0.008643450564     0.002738989629
      12       -0.001342959878    -0.003108214160     0.010422913771
      13        0.008200149643     0.004411516381     0.001767809589
      14       -0.010566841077    -0.007921400833    -0.017619849461


			-----------------------------------------
			 OPTKING 2.0: for geometry optimizations 
			  - R.A. King,  Bethel University        
			-----------------------------------------

	Previous internal coordinate definitions found.
	---Fragment 1 Geometry and Gradient---
	 H          -3.4512256137        0.5795453387        1.4238642650
	 H          -3.0881090463        3.6964663493        0.3192744756
	 H          -2.6516765493        1.1389895237       -1.7493550238
	 C          -2.3938728788        1.7830733003        0.1627638512
	 H           1.4595868189        2.9247744585       -0.3987398609
	 H           0.6448075211        2.3740394979        2.7877974120
	 C           0.4315742620        1.7051275262        0.8729028332
	 H           3.5729013716       -0.8594098749        0.5596044454
	 H           1.0345903491       -2.0311844911        2.3768409087
	 C           1.5427289173       -0.9966832104        0.6947869846
	 H           1.3756768037       -4.3102230225       -1.6801366299
	 H           1.0493028196       -1.4413487927       -3.3300784936
	 H          -1.4773189001       -2.6204416859       -1.5297772505
	 C           0.5481903814       -2.4454270311       -1.6279321846
	             0.0079893896        0.0054618360       -0.0050602758
	             0.0055207648       -0.0074780998       -0.0007282794
	             0.0046387805        0.0004207655        0.0087539948
	            -0.0211370303       -0.0037638821       -0.0077591778
	            -0.0061016630       -0.0085045270        0.0042436011
	            -0.0045362262       -0.0074614793       -0.0080466693
	             0.0138369187        0.0214702352        0.0082713646
	            -0.0110481370        0.0018988708       -0.0043196043
	            -0.0004124827        0.0062445019       -0.0097992257
	             0.0179649418       -0.0103135732        0.0171344083
	            -0.0030056048        0.0086434506        0.0027389896
	            -0.0013429599       -0.0031082142        0.0104229138
	             0.0082001496        0.0044115164        0.0017678096
	            -0.0105668411       -0.0079214008       -0.0176198495

	---Fragment 1 Intrafragment Coordinates---
	 - Coordinate -           - BOHR/RAD -       - ANG/DEG -
	 R(1,4)           =         2.038835	       1.078905
	 R(2,4)           =         2.041453	       1.080291
	 R(3,4)           =         2.034086	       1.076392
	 R(4,7)           =         2.914365	       1.542216
	 R(5,7)           =         2.039957	       1.079499
	 R(6,7)           =         2.039542	       1.079279
	 R(7,10)          =         2.926802	       1.548797
	 R(8,10)          =         2.039294	       1.079148
	 R(9,10)          =         2.039045	       1.079016
	 R(10,14)         =         2.912557	       1.541259
	 R(11,14)         =         2.040814	       1.079952
	 R(12,14)         =         2.038771	       1.078871
	 R(13,14)         =         2.035424	       1.077100
	 B(1,4,2)         =         1.906558	     109.237749
	 B(1,4,3)         =         1.905835	     109.196302
	 B(1,4,7)         =         1.913757	     109.650211
	 B(2,4,3)         =         1.902602	     109.011042
	 B(2,4,7)         =         1.913548	     109.638251
	 B(3,4,7)         =         1.921399	     110.088049
	 B(4,7,5)         =         1.897241	     108.703909
	 B(4,7,6)         =         1.897966	     108.745468
	 B(4,7,10)        =         1.958351	     112.205233
	 B(5,7,6)         =         1.913990	     109.663548
	 B(5,7,10)        =         1.899338	     108.824038
	 B(6,7,10)        =         1.896742	     108.675322
	 B(7,10,8)        =         1.896362	     108.653525
	 B(7,10,9)        =         1.900257	     108.876715
	 B(7,10,14)       =         1.958508	     112.214249
	 B(8,10,9)        =         1.914445	     109.689603
	 B(8,10,14)       =         1.897114	     108.696615
	 B(9,10,14)       =         1.896956	     108.687582
	 B(10,14,11)      =         1.913949	     109.661205
	 B(10,14,12)      =         1.914429	     109.688680
	 B(10,14,13)      =         1.922092	     110.127767
	 B(11,14,12)      =         1.906038	     109.207940
	 B(11,14,13)      =         1.903034	     109.035800
	 B(12,14,13)      =         1.904137	     109.099021
	 D(1,4,7,5)       =        -3.136505	    -179.708487
	 D(1,4,7,6)       =        -1.053558	     -60.364430
	 D(1,4,7,10)      =         1.045181	      59.884455
	 D(2,4,7,5)       =        -1.043394	     -59.782082
	 D(2,4,7,6)       =         1.039553	      59.561975
	 D(2,4,7,10)      =         3.138292	     179.810860
	 D(3,4,7,5)       =         1.049582	      60.136646
	 D(3,4,7,6)       =         3.132529	     179.480703
	 D(3,4,7,10)      =        -1.051917	     -60.270412
	 D(4,7,10,8)      =         2.799334	     160.390004
	 D(4,7,10,9)      =        -1.399540	     -80.187734
	 D(4,7,10,14)     =         0.701106	      40.170406
	 D(5,7,10,8)      =         0.699049	      40.052584
	 D(5,7,10,9)      =         2.783361	     159.474847
	 D(5,7,10,14)     =        -1.399178	     -80.167014
	 D(6,7,10,8)      =        -1.384402	     -79.320406
	 D(6,7,10,9)      =         0.699909	      40.101857
	 D(6,7,10,14)     =         2.800555	     160.459997
	 D(7,10,14,11)    =         3.137602	     179.771340
	 D(7,10,14,12)    =         1.044468	      59.843607
	 D(7,10,14,13)    =        -1.051390	     -60.240217
	 D(8,10,14,11)    =         1.039811	      59.576759
	 D(8,10,14,12)    =        -1.053323	     -60.350974
	 D(8,10,14,13)    =         3.134004	     179.565202
	 D(9,10,14,11)    =        -1.043025	     -59.760946
	 D(9,10,14,12)    =        -3.136159	    -179.688679
	 D(9,10,14,13)    =         1.051168	      60.227498

	Current energy   :      -157.8373879982

	Energy change for the previous step:
		Projected    :        -0.0086452131
		Actual       :        -0.0062508060

	Performing BFGS update.
	Previous computed or guess Hessian on step 1.
	Steps to be used in Hessian update: 1
	Adding user-defined constraint: Fragment 1; Coordinate 49:
		Value =     0.701106; Fixed value    =     0.698130
		Force =    -0.001562; Force constant =     0.525000
	Removing off-diagonal coupling between coordinate 49 and others.
	Taking RFO optimization step.
	Going to follow RFO solution 1.
	Using RFO vector 1.

	Determining step-restricting scale parameter for RS-RFO.
	Maximum step size allowed    0.10000

	 Iter      |step|        alpha        rfo_root  
	------------------------------------------------
	    0     0.20059       1.00000           1
	    1     0.15670       4.94980           1
	    2     0.12447      14.46137           1
	    3     0.10675      26.20307           1
	    4     0.10072      32.22680           1
	    5     0.10001      33.02924           1
	------------------------------------------------
	Norm of target step-size    0.10001
	Projected energy change by RFO approximation:        -0.0039430897

	Back-transformation to cartesian coordinates...
	Could not converge backtransformation.
	Using first guess instead.

	--- Internal Coordinate Step in ANG or DEG, aJ/ANG or AJ/DEG ---
	 ---------------------------------------------------------------------------
	   Coordinate                Previous        Force       Change         New 
	   ----------                --------       ------       ------       ------
	    1 R(1,4)          =      1.078905     0.086486     0.012661     1.091566
	    2 R(2,4)          =      1.080291     0.073673     0.010730     1.091021
	    3 R(3,4)          =      1.076392     0.073738     0.012578     1.088970
	    4 R(4,7)          =      1.542216    -0.032309    -0.006916     1.535299
	    5 R(5,7)          =      1.079499     0.089018     0.012866     1.092365
	    6 R(6,7)          =      1.079279     0.086312     0.012470     1.091749
	    7 R(7,10)         =      1.548797    -0.000279    -0.005900     1.542897
	    8 R(8,10)         =      1.079148     0.087203     0.012592     1.091740
	    9 R(9,10)         =      1.079016     0.091853     0.013247     1.092263
	   10 R(10,14)        =      1.541259    -0.028266    -0.006208     1.535051
	   11 R(11,14)        =      1.079952     0.075687     0.011002     1.090955
	   12 R(12,14)        =      1.078871     0.087025     0.012727     1.091598
	   13 R(13,14)        =      1.077100     0.069652     0.012021     1.089121
	   14 B(1,4,2)        =    109.237749    -0.000229    -0.625718   108.612031
	   15 B(1,4,3)        =    109.196302    -0.000224    -0.663402   108.532900
	   16 B(1,4,7)        =    109.650211     0.000238     0.705824   110.356036
	   17 B(2,4,3)        =    109.011042    -0.000268    -0.593854   108.417188
	   18 B(2,4,7)        =    109.638251     0.000139     0.404634   110.042885
	   19 B(3,4,7)        =    110.088049     0.000335     0.729811   110.817860
	   20 B(4,7,5)        =    108.703909    -0.000242    -0.171633   108.532276
	   21 B(4,7,6)        =    108.745468    -0.000264    -0.098974   108.646494
	   22 B(4,7,10)       =    112.205233     0.001022     1.173634   113.378867
	   23 B(5,7,6)        =    109.663548    -0.000027    -0.589924   109.073623
	   24 B(5,7,10)       =    108.824038    -0.000213    -0.121479   108.702559
	   25 B(6,7,10)       =    108.675322    -0.000286    -0.238323   108.436999
	   26 B(7,10,8)       =    108.653525    -0.000285    -0.234693   108.418831
	   27 B(7,10,9)       =    108.876715    -0.000218    -0.139236   108.737479
	   28 B(7,10,14)      =    112.214249     0.001019     1.165244   113.379492
	   29 B(8,10,9)       =    109.689603    -0.000030    -0.599650   109.089952
	   30 B(8,10,14)      =    108.696615    -0.000260    -0.081132   108.615483
	   31 B(9,10,14)      =    108.687582    -0.000237    -0.157163   108.530419
	   32 B(10,14,11)     =    109.661205     0.000139     0.401225   110.062430
	   33 B(10,14,12)     =    109.688680     0.000230     0.685448   110.374128
	   34 B(10,14,13)     =    110.127767     0.000331     0.717189   110.844956
	   35 B(11,14,12)     =    109.207940    -0.000225    -0.613674   108.594266
	   36 B(11,14,13)     =    109.035800    -0.000271    -0.602754   108.433046
	   37 B(12,14,13)     =    109.099021    -0.000214    -0.630961   108.468060
	   38 D(1,4,7,5)      =   -179.708487     0.000041     0.407659  -179.300828
	   39 D(1,4,7,6)      =    -60.364430    -0.000034    -0.455485   -60.819915
	   40 D(1,4,7,10)     =     59.884455    -0.000008    -0.073021    59.811434
	   41 D(2,4,7,5)      =    -59.782082     0.000030     0.330514   -59.451568
	   42 D(2,4,7,6)      =     59.561975    -0.000045    -0.532631    59.029344
	   43 D(2,4,7,10)     =    179.810860    -0.000020    -0.150167   179.660693
	   44 D(3,4,7,5)      =     60.136646     0.000022     0.312713    60.449359
	   45 D(3,4,7,6)      =    179.480703    -0.000053    -0.550432   178.930272
	   46 D(3,4,7,10)     =    -60.270412    -0.000028    -0.167968   -60.438380
	   47 D(4,7,10,8)     =    160.390004     0.000055     0.715810   161.105814
	   48 D(4,7,10,9)     =    -80.187734    -0.000021    -0.218943   -80.406676
	   49 D(4,7,10,14)    =     40.170406     0.000026     0.237259    40.407665
	   50 D(5,7,10,8)     =     40.052584     0.000008     0.261569    40.314153
	   51 D(5,7,10,9)     =    159.474847    -0.000067    -0.673184   158.801662
	   52 D(5,7,10,14)    =    -80.167014    -0.000021    -0.216982   -80.383996
	   53 D(6,7,10,8)     =    -79.320406     0.000082     1.175954   -78.144452
	   54 D(6,7,10,9)     =     40.101857     0.000007     0.241201    40.343058
	   55 D(6,7,10,14)    =    160.459997     0.000054     0.697403   161.157400
	   56 D(7,10,14,11)   =    179.771340    -0.000019    -0.134454   179.636886
	   57 D(7,10,14,12)   =     59.843607    -0.000008    -0.057864    59.785742
	   58 D(7,10,14,13)   =    -60.240217    -0.000028    -0.172164   -60.412381
	   59 D(8,10,14,11)   =     59.576759    -0.000044    -0.526840    59.049919
	   60 D(8,10,14,12)   =    -60.350974    -0.000033    -0.450251   -60.801225
	   61 D(8,10,14,13)   =    179.565202    -0.000053    -0.564550   179.000652
	   62 D(9,10,14,11)   =    -59.760946     0.000030     0.328961   -59.431985
	   63 D(9,10,14,12)   =   -179.688679     0.000041     0.405550  -179.283129
	   64 D(9,10,14,13)   =     60.227498     0.000021     0.291251    60.518748
	 ---------------------------------------------------------------------------
	 Forces used to impose fixed constraints are not included.
	  Forces zeroed: 49 

  ==> Convergence Check <==

  Measures of convergence in internal coordinates in au.
  Criteria marked as inactive (o), active & met (*), and active & unmet ( ).
  ---------------------------------------------------------------------------------------------
   Step     Total Energy     Delta E     MAX Force     RMS Force      MAX Disp      RMS Disp   
  ---------------------------------------------------------------------------------------------
    Convergence Criteria    1.00e-06 *    3.00e-04 *             o    1.20e-03 *             o
  ---------------------------------------------------------------------------------------------
      2    -157.83738800   -6.25e-03      1.34e-02      5.19e-03 o    2.50e-02      1.25e-02 o  ~
  ---------------------------------------------------------------------------------------------

	Writing optimization data to binary file.
	Structure for next step:
	Cartesian Geometry (in Angstrom)
	    H    -1.8533839950   0.3253121586   0.7623200624
	    H    -1.6322080820   1.9886501780   0.1909925905
	    H    -1.4342430939   0.6348779891  -0.9292779809
	    C    -1.2705027745   0.9637383746   0.0958535825
	    H     0.7720079403   1.5531620631  -0.2159705111
	    H     0.3454445149   1.2500163731   1.4842523747
	    C     0.2196151413   0.8957635941   0.4592706340
	    H     1.8970217876  -0.4445360064   0.2956657158
	    H     0.5450916582  -1.0809203088   1.2611866721
	    C     0.8101436128  -0.5260811764   0.3584469665
	    H     0.7610814516  -2.3012348963  -0.8833079033
	    H     0.5671355485  -0.7868440331  -1.7834385476
	    H    -0.7758335849  -1.4280800121  -0.8262335421
	    C     0.3062769389  -1.3098427989  -0.8614777428
			--------------------------
			 OPTKING Finished Execution 
			--------------------------

    Structure for next step:
    Molecular point group: c1
    Full point group: C1

    Geometry (in Angstrom), charge = 0, multiplicity = 1:

    H           -1.852905114130     0.325465859390     0.762728608231
    H           -1.631729201094     1.988803878803     0.191401136396
    H           -1.433764213021     0.635031689950    -0.928869435084
    C           -1.270023893601     0.963892075457     0.096262128399
    H            0.772486821245     1.553315763965    -0.215561965253
    H            0.345923395844     1.250170073885     1.484660920581
    C            0.220094022205     0.895917294943     0.459679179886
    H            1.897500668508    -0.444382305528     0.296074261683
    H            0.545570539091    -1.080766607981     1.261595217926
    C            0.810622493703    -0.525927475550     0.358855512385
    H            0.761560332520    -2.301081195484    -0.882899357418
    H            0.567614429461    -0.786690332307    -1.783030001775
    H           -0.775354703971    -1.427926311313    -0.825824996273
    C            0.306755819833    -1.309689098072    -0.861069196969

gradient() will perform analytic gradient computation.
    SCF Algorithm Type (re)set to DF.

*** tstart() called on lski1497
*** at Thu Feb 16 16:39:49 2017


         ---------------------------------------------------------
                                   SCF
            by Justin Turney, Rob Parrish, and Andy Simmonett
                              RHF Reference
                        1 Threads,   1000 MiB Core
         ---------------------------------------------------------

  ==> Geometry <==

    Molecular point group: c1
    Full point group: C1

    Geometry (in Angstrom), charge = 0, multiplicity = 1:

       Center              X                  Y                   Z               Mass       
    ------------   -----------------  -----------------  -----------------  -----------------
           H         -1.852905114130     0.325465859390     0.762728608231     1.007825032070
           H         -1.631729201094     1.988803878803     0.191401136396     1.007825032070
           H         -1.433764213021     0.635031689950    -0.928869435084     1.007825032070
           C         -1.270023893601     0.963892075457     0.096262128399    12.000000000000
           H          0.772486821245     1.553315763965    -0.215561965253     1.007825032070
           H          0.345923395844     1.250170073885     1.484660920581     1.007825032070
           C          0.220094022205     0.895917294943     0.459679179886    12.000000000000
           H          1.897500668508    -0.444382305528     0.296074261683     1.007825032070
           H          0.545570539091    -1.080766607981     1.261595217926     1.007825032070
           C          0.810622493703    -0.525927475550     0.358855512385    12.000000000000
           H          0.761560332520    -2.301081195484    -0.882899357418     1.007825032070
           H          0.567614429461    -0.786690332307    -1.783030001775     1.007825032070
           H         -0.775354703971    -1.427926311313    -0.825824996273     1.007825032070
           C          0.306755819833    -1.309689098072    -0.861069196969    12.000000000000

  Running in c1 symmetry.

  Rotational constants: A =      0.40641  B =      0.17623  C =      0.13917 [cm^-1]
  Rotational constants: A =  12183.89895  B =   5283.09632  C =   4172.26241 [MHz]
  Nuclear repulsion =  133.289165513536233

  Charge       = 0
  Multiplicity = 1
  Electrons    = 34
  Nalpha       = 17
  Nbeta        = 17

  ==> Algorithm <==

  SCF Algorithm Type is DF.
  DIIS enabled.
  MOM disabled.
  Fractional occupation disabled.
  Guess Type is READ.
  Energy threshold   = 1.00e-10
  Density threshold  = 1.00e-10
  Integral threshold = 0.00e+00

  ==> Primary Basis <==

  Basis Set: 6-31G(D)
    Number of shells: 44
    Number of basis function: 80
    Number of Cartesian functions: 80
    Spherical Harmonics?: false
    Max angular momentum: 2

  ==> Pre-Iterations <==

   -------------------------------------------------------
    Irrep   Nso     Nmo     Nalpha   Nbeta   Ndocc  Nsocc
   -------------------------------------------------------
     A         80      80       0       0       0       0
   -------------------------------------------------------
    Total      80      80      17      17      17       0
   -------------------------------------------------------

  ==> Integral Setup <==

  ==> DFJK: Density-Fitted J/K Matrices <==

    J tasked:                  Yes
    K tasked:                  Yes
    wK tasked:                  No
    OpenMP threads:              1
    Integrals threads:           1
    Memory (MB):               715
    Algorithm:                Core
    Integral Cache:           NONE
    Schwarz Cutoff:          1E-12
    Fitting Condition:       1E-12

   => Auxiliary Basis Set <=

  Basis Set: 
    Number of shells: 186
    Number of basis function: 574
    Number of Cartesian functions: 574
    Spherical Harmonics?: false
    Max angular momentum: 3

  Minimum eigenvalue in the overlap matrix is 4.8980175225E-03.
  Using Symmetric Orthogonalization.
  SCF Guess was Projection but file not found.
  Switching over to SAD guess.

  SCF Guess: Superposition of Atomic Densities via on-the-fly atomic UHF.

  ==> Iterations <==

                           Total Energy        Delta E     RMS |[F,P]|

   @DF-RHF iter   0:  -158.78604635503174   -1.58786e+02   4.57854e-02 
   @DF-RHF iter   1:  -157.19834921066658    1.58770e+00   4.02826e-03 
   @DF-RHF iter   2:  -157.28319477067024   -8.48456e-02   1.16953e-03 DIIS
   @DF-RHF iter   3:  -157.29194044377883   -8.74567e-03   3.62912e-04 DIIS
   @DF-RHF iter   4:  -157.29258323781036   -6.42794e-04   8.75929e-05 DIIS
   @DF-RHF iter   5:  -157.29263250275355   -4.92649e-05   1.44565e-05 DIIS
   @DF-RHF iter   6:  -157.29263416522483   -1.66247e-06   2.57819e-06 DIIS
   @DF-RHF iter   7:  -157.29263419979182   -3.45670e-08   7.71621e-07 DIIS
   @DF-RHF iter   8:  -157.29263420283652   -3.04470e-09   1.38634e-07 DIIS
   @DF-RHF iter   9:  -157.29263420297494   -1.38414e-10   3.84614e-08 DIIS
   @DF-RHF iter  10:  -157.29263420298614   -1.11982e-11   1.01366e-08 DIIS
   @DF-RHF iter  11:  -157.29263420298653   -3.97904e-13   2.49696e-09 DIIS
   @DF-RHF iter  12:  -157.29263420298687   -3.41061e-13   5.00866e-10 DIIS
   @DF-RHF iter  13:  -157.29263420298710   -2.27374e-13   1.07798e-10 DIIS
   @DF-RHF iter  14:  -157.29263420298670    3.97904e-13   3.49583e-11 DIIS

  ==> Post-Iterations <==

    Orbital Energies (a.u.)
    -----------------------

    Doubly Occupied:                                                      

       1A    -11.215442     2A    -11.214880     3A    -11.208406  
       4A    -11.208389     5A     -1.068368     6A     -0.971354  
       7A     -0.875664     8A     -0.768908     9A     -0.633201  
      10A     -0.617387    11A     -0.570950    12A     -0.534153  
      13A     -0.526400    14A     -0.506031    15A     -0.459872  
      16A     -0.456643    17A     -0.453250  

    Virtual:                                                              

      18A      0.226528    19A      0.278867    20A      0.286491  
      21A      0.298085    22A      0.313819    23A      0.316232  
      24A      0.339243    25A      0.342550    26A      0.359611  
      27A      0.376805    28A      0.386806    29A      0.414606  
      30A      0.462778    31A      0.710721    32A      0.732160  
      33A      0.733308    34A      0.760699    35A      0.778450  
      36A      0.852415    37A      0.856248    38A      0.923106  
      39A      0.951932    40A      1.000419    41A      1.107860  
      42A      1.112317    43A      1.156014    44A      1.158494  
      45A      1.166890    46A      1.179544    47A      1.189787  
      48A      1.193962    49A      1.232403    50A      1.246413  
      51A      1.246916    52A      1.285089    53A      1.298670  
      54A      1.574130    55A      1.706033    56A      1.710021  
      57A      1.733653    58A      1.907192    59A      1.960085  
      60A      2.044635    61A      2.163847    62A      2.275459  
      63A      2.294402    64A      2.312233    65A      2.345574  
      66A      2.429612    67A      2.471224    68A      2.607231  
      69A      2.650103    70A      2.656051    71A      2.685562  
      72A      2.729432    73A      2.767942    74A      2.928524  
      75A      2.971368    76A      3.080775    77A      4.556411  
      78A      4.684472    79A      4.788679    80A      4.948505  

    Final Occupation by Irrep:
              A 
    DOCC [    17 ]

  Energy converged.

  @DF-RHF Final Energy:  -157.29263420298670

   => Energetics <=

    Nuclear Repulsion Energy =            133.2891655135362328
    One-Electron Energy =                -474.5850051967998979
    Two-Electron Energy =                 184.0032054802768187
    DFT Exchange-Correlation Energy =       0.0000000000000000
    Empirical Dispersion Energy =           0.0000000000000000
    PCM Polarization Energy =               0.0000000000000000
    EFP Energy =                            0.0000000000000000
    Total Energy =                       -157.2926342029868749


  Saving occupied orbitals to File 180.

*** tstop() called on lski1497 at Thu Feb 16 16:39:55 2017
Module time:
	user time   =       5.01 seconds =       0.08 minutes
	system time =       0.14 seconds =       0.00 minutes
	total time  =          6 seconds =       0.10 minutes
Total time:
	user time   =      51.71 seconds =       0.86 minutes
	system time =       1.53 seconds =       0.03 minutes
	total time  =         60 seconds =       1.00 minutes


Properties will be evaluated at   0.000000,   0.000000,   0.000000 Bohr

Properties computed using the SCF density matrix

  Nuclear Dipole Moment: (a.u.)
     X:    -0.7529      Y:    -0.2700      Z:    -0.5997

  Electronic Dipole Moment: (a.u.)
     X:     0.7735      Y:     0.2774      Z:     0.6160

  Dipole Moment: (a.u.)
     X:     0.0206      Y:     0.0074      Z:     0.0163     Total:     0.0273

  Dipole Moment: (Debye)
     X:     0.0524      Y:     0.0188      Z:     0.0414     Total:     0.0694


  //>>>>>>>>>>>>>>>>>>>>>>>>>>>>>>>>>>>//
  //               DFMP2               //
  //<<<<<<<<<<<<<<<<<<<<<<<<<<<<<<<<<<<//


*** tstart() called on lski1497
*** at Thu Feb 16 16:39:55 2017


*** tstop() called on lski1497 at Thu Feb 16 16:39:56 2017
Module time:
	user time   =       0.52 seconds =       0.01 minutes
	system time =       0.00 seconds =       0.00 minutes
	total time  =          1 seconds =       0.02 minutes
Total time:
	user time   =      52.25 seconds =       0.87 minutes
	system time =       1.53 seconds =       0.03 minutes
	total time  =         61 seconds =       1.02 minutes
	 --------------------------------------------------------
	                          DF-MP2                         
	      2nd-Order Density-Fitted Moller-Plesset Theory     
	              RMP2 Wavefunction,   1 Threads             
	                                                         
	        Rob Parrish, Justin Turney, Andy Simmonett,      
	           Ed Hohenstein, and C. David Sherrill          
	 --------------------------------------------------------

   => Auxiliary Basis Set <=

  Basis Set: 
    Number of shells: 132
    Number of basis function: 364
    Number of Cartesian functions: 414
    Spherical Harmonics?: true
    Max angular momentum: 3

	 --------------------------------------------------------
	                 NBF =    80, NAUX =   364
	 --------------------------------------------------------
	   CLASS    FOCC     OCC    AOCC    AVIR     VIR    FVIR
	   PAIRS       0      17      17      63      63       0
	 --------------------------------------------------------

DGAS Warning! /src/lib/libfock/apps.cc:80 is not currently checking restricted

         ------------------------------------------------------------
                                     CPHF                           
                                  Rob Parrish                       
         ------------------------------------------------------------

  ==> Geometry <==

    Molecular point group: c1
    Full point group: C1

    Geometry (in Angstrom), charge = 0, multiplicity = 1:

       Center              X                  Y                   Z               Mass       
    ------------   -----------------  -----------------  -----------------  -----------------
           H         -1.852905114130     0.325465859390     0.762728608231     1.007825032070
           H         -1.631729201094     1.988803878803     0.191401136396     1.007825032070
           H         -1.433764213021     0.635031689950    -0.928869435084     1.007825032070
           C         -1.270023893601     0.963892075457     0.096262128399    12.000000000000
           H          0.772486821245     1.553315763965    -0.215561965253     1.007825032070
           H          0.345923395844     1.250170073885     1.484660920581     1.007825032070
           C          0.220094022205     0.895917294943     0.459679179886    12.000000000000
           H          1.897500668508    -0.444382305528     0.296074261683     1.007825032070
           H          0.545570539091    -1.080766607981     1.261595217926     1.007825032070
           C          0.810622493703    -0.525927475550     0.358855512385    12.000000000000
           H          0.761560332520    -2.301081195484    -0.882899357418     1.007825032070
           H          0.567614429461    -0.786690332307    -1.783030001775     1.007825032070
           H         -0.775354703971    -1.427926311313    -0.825824996273     1.007825032070
           C          0.306755819833    -1.309689098072    -0.861069196969    12.000000000000

  Nuclear repulsion =  133.289165513536233
  Reference energy  = -157.292634202986704

  ==> Basis Set <==

  Basis Set: 6-31G(D)
    Number of shells: 44
    Number of basis function: 80
    Number of Cartesian functions: 80
    Spherical Harmonics?: false
    Max angular momentum: 2

  ==> CGRSolver (by Rob Parrish) <==

[...]
  CGR           3          0          1   2.360E-03
  CGR           4          0          1   4.371E-04
  CGR           5          0          1   7.931E-05
  CGR           6          0          1   1.504E-05
  CGR           7          0          1   1.988E-06
  CGR           8          1          0   4.529E-07

    CGRSolver converged.

  ==> DFCorrGrad: Density-Fitted Correlated Gradients <==

    OpenMP threads:              1
    Integrals threads:           1
    Memory (MB):               715
    Schwarz Cutoff:          0E+00
    Fitting Condition:       1E-12

   => Auxiliary Basis Set <=

  Basis Set: 
    Number of shells: 186
    Number of basis function: 510
    Number of Cartesian functions: 574
    Spherical Harmonics?: true
    Max angular momentum: 3

	-----------------------------------------------------------
	 ==================> DF-MP2 Energies <==================== 
	-----------------------------------------------------------
	 Reference Energy          =    -157.2940669059132688 [Eh]
	 Singles Energy            =      -0.0000000000000000 [Eh]
	 Same-Spin Energy          =      -0.1246737310686941 [Eh]
	 Opposite-Spin Energy      =      -0.4226477717808247 [Eh]
	 Correlation Energy        =      -0.5473215028495189 [Eh]
	 Total Energy              =    -157.8413884087627821 [Eh]
	-----------------------------------------------------------
	 ================> DF-SCS-MP2 Energies <================== 
	-----------------------------------------------------------
	 SCS Same-Spin Scale       =       0.3333333333333333 [-]
	 SCS Opposite-Spin Scale   =       1.2000000000000000 [-]
	 SCS Same-Spin Energy      =      -0.0415579103562314 [Eh]
	 SCS Opposite-Spin Energy  =      -0.5071773261369896 [Eh]
	 SCS Correlation Energy    =      -0.5487352364932210 [Eh]
	 SCS Total Energy          =    -157.8428021424064980 [Eh]
	-----------------------------------------------------------


  -Total Gradient:
     Atom            X                  Y                   Z
    ------   -----------------  -----------------  -----------------
       1        0.000002024667    -0.000002876403    -0.000000761250
       2        0.000003108585    -0.000003423203     0.000002415288
       3        0.000002710315     0.000002701693    -0.000000518818
       4        0.000940984007     0.000707718208    -0.003674326927
       5       -0.000014619351    -0.000000260654    -0.000014157657
       6        0.000016176480     0.000006042885    -0.000009004726
       7       -0.002552103224    -0.001606950887     0.006067317341
       8       -0.000003638578    -0.000002301293     0.000018526841
       9       -0.000014893241    -0.000010531841    -0.000009885494
      10        0.004557247068     0.002329276281    -0.004440341011
      11        0.000001338374     0.000005228473     0.000001426300
      12       -0.000001550136     0.000003129040     0.000001088287
      13        0.000000818678    -0.000001255118     0.000003734340
      14       -0.002937603644    -0.001426497181     0.002054487487


			-----------------------------------------
			 OPTKING 2.0: for geometry optimizations 
			  - R.A. King,  Bethel University        
			-----------------------------------------

	Previous internal coordinate definitions found.
	---Fragment 1 Geometry and Gradient---
	 H          -3.5525216991        0.5416662524        1.3418952043
	 H          -3.1291865888        3.7538460794        0.5380055995
	 H          -2.7412561072        1.3948018681       -1.7848224505
	 C          -2.4167546973        1.8431134522        0.2027595275
	 H           1.4252468124        2.9498937052       -0.3718805972
	 H           0.6838922115        2.3770308779        2.8031660840
	 C           0.3799243790        1.6699904661        0.8813459673
	 H           3.5827445294       -0.8397693024        0.6591615238
	 H           1.0198426511       -2.0689297486        2.3560457030
	 C           1.5177419189       -0.9862613126        0.6585908601
	 H           1.6304922858       -4.2938244773       -1.7541754694
	 H           1.0156139499       -1.4557160273       -3.4005725677
	 H          -1.3822159272       -2.8804873005       -1.5613319701
	 C           0.6406445182       -2.4830452112       -1.6440547290
	             0.0000020247       -0.0000028764       -0.0000007613
	             0.0000031086       -0.0000034232        0.0000024153
	             0.0000027103        0.0000027017       -0.0000005188
	             0.0009409840        0.0007077182       -0.0036743269
	            -0.0000146194       -0.0000002607       -0.0000141577
	             0.0000161765        0.0000060429       -0.0000090047
	            -0.0025521032       -0.0016069509        0.0060673173
	            -0.0000036386       -0.0000023013        0.0000185268
	            -0.0000148932       -0.0000105318       -0.0000098855
	             0.0045572471        0.0023292763       -0.0044403410
	             0.0000013384        0.0000052285        0.0000014263
	            -0.0000015501        0.0000031290        0.0000010883
	             0.0000008187       -0.0000012551        0.0000037343
	            -0.0029376036       -0.0014264972        0.0020544875

	---Fragment 1 Intrafragment Coordinates---
	 - Coordinate -           - BOHR/RAD -       - ANG/DEG -
	 R(1,4)           =         2.069145	       1.094944
	 R(2,4)           =         2.066603	       1.093599
	 R(3,4)           =         2.063193	       1.091795
	 R(4,7)           =         2.883031	       1.525634
	 R(5,7)           =         2.073988	       1.097507
	 R(6,7)           =         2.070192	       1.095498
	 R(7,10)          =         2.898262	       1.533694
	 R(8,10)          =         2.070192	       1.095499
	 R(9,10)          =         2.073988	       1.097507
	 R(10,14)         =         2.883026	       1.525632
	 R(11,14)         =         2.066603	       1.093599
	 R(12,14)         =         2.069145	       1.094945
	 R(13,14)         =         2.063194	       1.091795
	 B(1,4,2)         =         1.878638	     107.638040
	 B(1,4,3)         =         1.883209	     107.899916
	 B(1,4,7)         =         1.944553	     111.414693
	 B(2,4,3)         =         1.878590	     107.635279
	 B(2,4,7)         =         1.930234	     110.594258
	 B(3,4,7)         =         1.945793	     111.485702
	 B(4,7,5)         =         1.885606	     108.037289
	 B(4,7,6)         =         1.918168	     109.902921
	 B(4,7,10)        =         2.001788	     114.694006
	 B(5,7,6)         =         1.850612	     106.032270
	 B(5,7,10)        =         1.897876	     108.740298
	 B(6,7,10)        =         1.903628	     109.069875
	 B(7,10,8)        =         1.903635	     109.070244
	 B(7,10,9)        =         1.897878	     108.740382
	 B(7,10,14)       =         2.001785	     114.693852
	 B(8,10,9)        =         1.850614	     106.032388
	 B(8,10,14)       =         1.918164	     109.902674
	 B(9,10,14)       =         1.885604	     108.037137
	 B(10,14,11)      =         1.930231	     110.594088
	 B(10,14,12)      =         1.944554	     111.414729
	 B(10,14,13)      =         1.945791	     111.485630
	 B(11,14,12)      =         1.878639	     107.638105
	 B(11,14,13)      =         1.878592	     107.635365
	 B(12,14,13)      =         1.883210	     107.899983
	 D(1,4,7,5)       =         3.099497	     177.588105
	 D(1,4,7,6)       =        -1.171938	     -67.147110
	 D(1,4,7,10)      =         0.979941	      56.146492
	 D(2,4,7,5)       =        -1.094985	     -62.738046
	 D(2,4,7,6)       =         0.916765	      52.526739
	 D(2,4,7,10)      =         3.068644	     175.820341
	 D(3,4,7,5)       =         0.994470	      56.978954
	 D(3,4,7,6)       =         3.006220	     172.243739
	 D(3,4,7,10)      =        -1.125086	     -64.462659
	 D(4,7,10,8)      =         2.868791	     164.369597
	 D(4,7,10,9)      =        -1.403684	     -80.425167
	 D(4,7,10,14)     =         0.709146	      40.631054
	 D(5,7,10,8)      =         0.755957	      43.313139
	 D(5,7,10,9)      =         2.766668	     158.518376
	 D(5,7,10,14)     =        -1.403688	     -80.425404
	 D(6,7,10,8)      =        -1.254747	     -71.891712
	 D(6,7,10,9)      =         0.755964	      43.313524
	 D(6,7,10,14)     =         2.868793	     164.369745
	 D(7,10,14,11)    =         3.068646	     175.820463
	 D(7,10,14,12)    =         0.979943	      56.146621
	 D(7,10,14,13)    =        -1.125084	     -64.462590
	 D(8,10,14,11)    =         0.916764	      52.526680
	 D(8,10,14,12)    =        -1.171939	     -67.147161
	 D(8,10,14,13)    =         3.006218	     172.243628
	 D(9,10,14,11)    =        -1.094985	     -62.738030
	 D(9,10,14,12)    =         3.099498	     177.588129
	 D(9,10,14,13)    =         0.994470	      56.978917

	Current energy   :      -157.8413884088

	Energy change for the previous step:
		Projected    :        -0.0000005839
		Actual       :         0.0000040165

	Performing BFGS update.
	Previous computed or guess Hessian on step 1.
	Steps to be used in Hessian update: 10 9
	Adding user-defined constraint: Fragment 1; Coordinate 49:
		Value =     0.709146; Fixed value    =     0.698130
		Force =    -0.008262; Force constant =     0.750000
	Removing off-diagonal coupling between coordinate 49 and others.
	Taking RFO optimization step.
	Going to follow RFO solution 1.
	Using RFO vector 1.
	Norm of target step-size    0.00407
	Projected energy change by RFO approximation:        -0.0000006612

	Back-transformation to cartesian coordinates...
	Successfully converged to displaced geometry.

	--- Internal Coordinate Step in ANG or DEG, aJ/ANG or AJ/DEG ---
	 ---------------------------------------------------------------------------
	   Coordinate                Previous        Force       Change         New 
	   ----------                --------       ------       ------       ------
	    1 R(1,4)          =      1.094944    -0.000002     0.000002     1.094946
	    2 R(2,4)          =      1.093599     0.000032     0.000005     1.093605
	    3 R(3,4)          =      1.091795     0.000004     0.000005     1.091800
	    4 R(4,7)          =      1.525634     0.000112     0.000002     1.525636
	    5 R(5,7)          =      1.097507    -0.000009    -0.000011     1.097497
	    6 R(6,7)          =      1.095498     0.000032     0.000003     1.095501
	    7 R(7,10)         =      1.533694     0.000091     0.000014     1.533708
	    8 R(8,10)         =      1.095499     0.000031     0.000002     1.095501
	    9 R(9,10)         =      1.097507    -0.000008    -0.000011     1.097496
	   10 R(10,14)        =      1.525632     0.000127     0.000004     1.525635
	   11 R(11,14)        =      1.093599     0.000033     0.000005     1.093604
	   12 R(12,14)        =      1.094945    -0.000003     0.000002     1.094947
	   13 R(13,14)        =      1.091795     0.000003     0.000006     1.091801
	   14 B(1,4,2)        =    107.638040    -0.000000     0.000668   107.638708
	   15 B(1,4,3)        =    107.899916    -0.000000     0.000101   107.900017
	   16 B(1,4,7)        =    111.414693     0.000000     0.001164   111.415857
	   17 B(2,4,3)        =    107.635279    -0.000000    -0.001053   107.634226
	   18 B(2,4,7)        =    110.594258     0.000000    -0.001694   110.592564
	   19 B(3,4,7)        =    111.485702     0.000000     0.000780   111.486482
	   20 B(4,7,5)        =    108.037289    -0.000016     0.007398   108.044687
	   21 B(4,7,6)        =    109.902921     0.000016    -0.007052   109.895870
	   22 B(4,7,10)       =    114.694006     0.000001     0.004253   114.698259
	   23 B(5,7,6)        =    106.032270     0.000000    -0.001633   106.030637
	   24 B(5,7,10)       =    108.740298    -0.000000     0.000362   108.740659
	   25 B(6,7,10)       =    109.069875    -0.000001    -0.003573   109.066303
	   26 B(7,10,8)       =    109.070244    -0.000001    -0.003855   109.066390
	   27 B(7,10,9)       =    108.740382    -0.000000     0.000290   108.740672
	   28 B(7,10,14)      =    114.693852     0.000001     0.004358   114.698209
	   29 B(8,10,9)       =    106.032388     0.000000    -0.001724   106.030664
	   30 B(8,10,14)      =    109.902674     0.000016    -0.006869   109.895805
	   31 B(9,10,14)      =    108.037137    -0.000016     0.007543   108.044680
	   32 B(10,14,11)     =    110.594088     0.000000    -0.001592   110.592496
	   33 B(10,14,12)     =    111.414729     0.000000     0.001167   111.415896
	   34 B(10,14,13)     =    111.485630     0.000000     0.000817   111.486447
	   35 B(11,14,12)     =    107.638105    -0.000000     0.000635   107.638740
	   36 B(11,14,13)     =    107.635365    -0.000000    -0.001121   107.634244
	   37 B(12,14,13)     =    107.899983    -0.000000     0.000051   107.900034
	   38 D(1,4,7,5)      =    177.588105    -0.000001     0.055113   177.643218
	   39 D(1,4,7,6)      =    -67.147110    -0.000001     0.053526   -67.093584
	   40 D(1,4,7,10)     =     56.146492     0.000002     0.046368    56.192860
	   41 D(2,4,7,5)      =    -62.738046    -0.000001     0.055590   -62.682456
	   42 D(2,4,7,6)      =     52.526739    -0.000001     0.054002    52.580742
	   43 D(2,4,7,10)     =    175.820341     0.000002     0.046844   175.867186
	   44 D(3,4,7,5)      =     56.978954    -0.000001     0.053644    57.032599
	   45 D(3,4,7,6)      =    172.243739    -0.000001     0.052057   172.295796
	   46 D(3,4,7,10)     =    -64.462659     0.000002     0.044899   -64.417760
	   47 D(4,7,10,8)     =    164.369597    -0.000005    -0.019421   164.350176
	   48 D(4,7,10,9)     =    -80.425167    -0.000005    -0.023382   -80.448549
	   49 D(4,7,10,14)    =     40.631054    -0.000010    -0.010503    40.620550
	   50 D(5,7,10,8)     =     43.313139    -0.000000    -0.032096    43.281044
	   51 D(5,7,10,9)     =    158.518376    -0.000000    -0.036057   158.482319
	   52 D(5,7,10,14)    =    -80.425404    -0.000005    -0.023179   -80.448582
	   53 D(6,7,10,8)     =    -71.891712    -0.000000    -0.028433   -71.920145
	   54 D(6,7,10,9)     =     43.313524    -0.000000    -0.032394    43.281130
	   55 D(6,7,10,14)    =    164.369745    -0.000005    -0.019515   164.350229
	   56 D(7,10,14,11)   =    175.820463     0.000002     0.046985   175.867448
	   57 D(7,10,14,12)   =     56.146621     0.000002     0.046480    56.193101
	   58 D(7,10,14,13)   =    -64.462590     0.000002     0.045047   -64.417543
	   59 D(8,10,14,11)   =     52.526680    -0.000001     0.054296    52.580977
	   60 D(8,10,14,12)   =    -67.147161    -0.000001     0.053791   -67.093370
	   61 D(8,10,14,13)   =    172.243628    -0.000001     0.052358   172.295986
	   62 D(9,10,14,11)   =    -62.738030    -0.000001     0.055815   -62.682216
	   63 D(9,10,14,12)   =    177.588129    -0.000001     0.055309   177.643438
	   64 D(9,10,14,13)   =     56.978917    -0.000001     0.053876    57.032794
	 ---------------------------------------------------------------------------
	 Forces used to impose fixed constraints are not included.
	  Forces zeroed: 49 

  ==> Convergence Check <==

  Measures of convergence in internal coordinates in au.
  Criteria marked as inactive (o), active & met (*), and active & unmet ( ).
  ---------------------------------------------------------------------------------------------
   Step     Total Energy     Delta E     MAX Force     RMS Force      MAX Disp      RMS Disp   
  ---------------------------------------------------------------------------------------------
    Convergence Criteria    1.00e-06 *    3.00e-04 *             o    1.20e-03 *             o
  ---------------------------------------------------------------------------------------------
     11    -157.84138841    4.02e-06      2.78e-04 *    9.52e-05 o    9.74e-04 *    5.09e-04 o  ~
  ---------------------------------------------------------------------------------------------


  **** Optimization is complete! (in 11 steps) ****

  ==> Optimization Summary <==

  Measures of convergence in internal coordinates in au.
  --------------------------------------------------------------------------------------------------------------- ~
   Step         Total Energy             Delta E       MAX Force       RMS Force        MAX Disp        RMS Disp  ~
  --------------------------------------------------------------------------------------------------------------- ~
      1    -157.831137192177   -157.831137192177      0.04007252      0.01110340      0.04719668      0.01267267  ~
      2    -157.837387998186     -0.006250806009      0.01343429      0.00519546      0.02503286      0.01254422  ~
      3    -157.840028550894     -0.002640552708      0.00673924      0.00201609      0.03901574      0.01250358  ~
      4    -157.840933850825     -0.000905299931      0.00241804      0.00080049      0.03731447      0.01249385  ~
      5    -157.841250666767     -0.000316815942      0.00067195      0.00025265      0.02677175      0.01250319  ~
      6    -157.841344990682     -0.000094323915      0.00031359      0.00012585      0.02507910      0.01249930  ~
      7    -157.841399946682     -0.000054956000      0.00067049      0.00015317      0.01081374      0.00546289  ~
      8    -157.841405819721     -0.000005873040      0.00068567      0.00014747      0.00432591      0.00140561  ~
      9    -157.841395336188      0.000010483533      0.00062615      0.00014789      0.00346475      0.00112598  ~
     10    -157.841392425221      0.000002910968      0.00056553      0.00012170      0.00230461      0.00116207  ~
     11    -157.841388408763      0.000004016458      0.00054737      0.00011724      0.00097415      0.00050863  ~
  --------------------------------------------------------------------------------------------------------------- ~

	Writing optimization data to binary file.
	Final energy is   -157.8413884087628
	Final (previous) structure:
	Cartesian Geometry (in Angstrom)
	    H    -1.8799135162   0.2866374354   0.7101003584
	    H    -1.6558942242   1.9864497898   0.2847003013
	    H    -1.4506102548   0.7380973591  -0.9444873622
	    C    -1.2788915046   0.9753336318   0.1072957208
	    H     0.7542081297   1.5610165165  -0.1967907363
	    H     0.3619001715   1.2578705647   1.4833716035
	    C     0.2010473224   0.8837208932   0.4663881988
	    H     1.8959067492  -0.4443867753   0.3488132552
	    H     0.5396774873  -1.0948304691   1.2467656884
	    C     0.8031544320  -0.5219070083   0.3485112729
	    H     0.8628193564  -2.2721940511  -0.9282696782
	    H     0.5374397550  -0.7703317438  -1.7995054990
	    H    -0.7314371660  -1.5242882291  -0.8262212936
	    C     0.3390144779  -1.3139709337  -0.8699962923
	Saving final (previous) structure.
			--------------------------
			 OPTKING Finished Execution 
			--------------------------

    Final optimized geometry and variables:
    Molecular point group: c1
    Full point group: C1

    Geometry (in Angstrom), charge = 0, multiplicity = 1:

    H           -1.879913516175     0.286637435431     0.710100358432
    H           -1.655894224202     1.986449789777     0.284700301328
    H           -1.450610254845     0.738097359117    -0.944487362182
    C           -1.278891504574     0.975333631774     0.107295720755
    H            0.754208129723     1.561016516536    -0.196790736339
    H            0.361900171484     1.257870564707     1.483371603520
    C            0.201047322378     0.883720893223     0.466388198803
    H            1.895906749151    -0.444386775318     0.348813255164
    H            0.539677487290    -1.094830469110     1.246765688423
    C            0.803154431985    -0.521907008345     0.348511272925
    H            0.862819356418    -2.272194051055    -0.928269678248
    H            0.537439755003    -0.770331743815    -1.799505499007
    H           -0.731437166002    -1.524288229051    -0.826221293627
    C            0.339014477854    -1.313970933691    -0.869996292252

	Cleaning optimization helper files.

*** Psi4 exiting successfully. Buy a developer a beer!
