 Entering Gaussian System, Link 0=g09
 Initial command:
 /softlib/exe/x86_64/pkg/gaussian/09revB.01/dist/g09/l1.exe /zenodotus/hwlab/hwlab_store011/chs2057/Weinsteinlab/parameters/Pyrrol/torsion-scan/torsion-scan/Gau-14793.inp -scrdir=/zenodotus/hwlab/hwlab_store011/chs2057/Weinsteinlab/parameters/Pyrrol/torsion-scan/torsion-scan/
 Entering Link 1 = /softlib/exe/x86_64/pkg/gaussian/09revB.01/dist/g09/l1.exe PID=     14794.
  
 Copyright (c) 1988,1990,1992,1993,1995,1998,2003,2009,2010,
            Gaussian, Inc.  All Rights Reserved.
  
 This is part of the Gaussian(R) 09 program.  It is based on
 the Gaussian(R) 03 system (copyright 2003, Gaussian, Inc.),
 the Gaussian(R) 98 system (copyright 1998, Gaussian, Inc.),
 the Gaussian(R) 94 system (copyright 1995, Gaussian, Inc.),
 the Gaussian 92(TM) system (copyright 1992, Gaussian, Inc.),
 the Gaussian 90(TM) system (copyright 1990, Gaussian, Inc.),
 the Gaussian 88(TM) system (copyright 1988, Gaussian, Inc.),
 the Gaussian 86(TM) system (copyright 1986, Carnegie Mellon
 University), and the Gaussian 82(TM) system (copyright 1983,
 Carnegie Mellon University). Gaussian is a federally registered
 trademark of Gaussian, Inc.
  
 This software contains proprietary and confidential information,
 including trade secrets, belonging to Gaussian, Inc.
  
 This software is provided under written license and may be
 used, copied, transmitted, or stored only in accord with that
 written license.
  
 The following legend is applicable only to US Government
 contracts under FAR:
  
                    RESTRICTED RIGHTS LEGEND
  
 Use, reproduction and disclosure by the US Government is
 subject to restrictions as set forth in subparagraphs (a)
 and (c) of the Commercial Computer Software - Restricted
 Rights clause in FAR 52.227-19.
  
 Gaussian, Inc.
 340 Quinnipiac St., Bldg. 40, Wallingford CT 06492
  
  
 ---------------------------------------------------------------
 Warning -- This program may not be used in any manner that
 competes with the business of Gaussian, Inc. or will provide
 assistance to any competitor of Gaussian, Inc.  The licensee
 of this program is prohibited from giving any competitor of
 Gaussian, Inc. access to this program.  By using this program,
 the user acknowledges that Gaussian, Inc. is engaged in the
 business of creating and licensing software in the field of
 computational chemistry and represents and warrants to the
 licensee that it is not a competitor of Gaussian, Inc. and that
 it will not use this program in any manner prohibited above.
 ---------------------------------------------------------------
  

 Cite this work as:
 Gaussian 09, Revision B.01,
 M. J. Frisch, G. W. Trucks, H. B. Schlegel, G. E. Scuseria, 
 M. A. Robb, J. R. Cheeseman, G. Scalmani, V. Barone, B. Mennucci, 
 G. A. Petersson, H. Nakatsuji, M. Caricato, X. Li, H. P. Hratchian, 
 A. F. Izmaylov, J. Bloino, G. Zheng, J. L. Sonnenberg, M. Hada, 
 M. Ehara, K. Toyota, R. Fukuda, J. Hasegawa, M. Ishida, T. Nakajima, 
 Y. Honda, O. Kitao, H. Nakai, T. Vreven, J. A. Montgomery, Jr., 
 J. E. Peralta, F. Ogliaro, M. Bearpark, J. J. Heyd, E. Brothers, 
 K. N. Kudin, V. N. Staroverov, T. Keith, R. Kobayashi, J. Normand, 
 K. Raghavachari, A. Rendell, J. C. Burant, S. S. Iyengar, J. Tomasi, 
 M. Cossi, N. Rega, J. M. Millam, M. Klene, J. E. Knox, J. B. Cross, 
 V. Bakken, C. Adamo, J. Jaramillo, R. Gomperts, R. E. Stratmann, 
 O. Yazyev, A. J. Austin, R. Cammi, C. Pomelli, J. W. Ochterski, 
 R. L. Martin, K. Morokuma, V. G. Zakrzewski, G. A. Voth, 
 P. Salvador, J. J. Dannenberg, S. Dapprich, A. D. Daniels, 
 O. Farkas, J. B. Foresman, J. V. Ortiz, J. Cioslowski, 
 and D. J. Fox, Gaussian, Inc., Wallingford CT, 2010.
 
 ******************************************
 Gaussian 09:  EM64L-G09RevB.01 12-Aug-2010
                23-Mar-2015 
 ******************************************
 %chk=PRL.scan2.neg.chk
 %nproc=16
 Will use up to   16 processors via shared memory.
 %mem=32GB
 ------------------------------------------------------
 # opt=modredundant B3LYP/cc-pVDZ Geom=PrintInputOrient
 ------------------------------------------------------
 1/14=-1,18=120,19=15,26=3,38=1/1,3;
 2/9=2110,12=2,17=6,18=5,40=1/2;
 3/5=16,11=2,16=1,25=1,30=1,71=1,74=-5/1,2,3;
 4//1;
 5/5=2,38=5/2;
 6/7=2,8=2,9=2,10=2,28=1/1;
 7//1,2,3,16;
 1/14=-1,18=20,19=15/3(2);
 2/9=2110/2;
 99//99;
 2/9=2110/2;
 3/5=16,11=2,16=1,25=1,30=1,71=1,74=-5/1,2,3;
 4/5=5,16=3/1;
 5/5=2,38=5/2;
 7//1,2,3,16;
 1/14=-1,18=20,19=15/3(-5);
 2/9=2110/2;
 6/7=2,8=2,9=2,10=2,19=2,28=1/1;
 99/9=1/99;
 -------------------------------
 PRL Dihedral Scan at MP2/6-31G*
 -------------------------------
 Symbolic Z-matrix:
 Charge =  0 Multiplicity = 1
 C1                    0.779     0.587    -0.13 
 C2                   -0.41     -0.337     0.142 
 N3                   -1.469     0.488     0.542 
 C4                   -1.064     1.829     0.518 
 C5                    0.218     1.966     0.144 
 C6                   -2.808     0.033     0.853 
 C7                   -3.702    -0.196    -0.375 
 C8                   -5.092    -0.707     0.007 
 C9                   -0.439    -1.679     0.026 
 H10                   1.14      0.471    -1.167 
 H11                   1.631     0.338     0.527 
 H12                  -1.783     2.599     0.799 
 H13                   0.769     2.9       0.063 
 H14                  -2.73     -0.9       1.439 
 H15                  -3.273     0.78      1.519 
 H16                  -3.787     0.753    -0.934 
 H17                  -3.207    -0.912    -1.051 
 H18                  -5.72     -0.864    -0.884 
 H19                  -5.033    -1.669     0.545 
 H20                  -5.62      0.006     0.664 
 H21                  -1.336    -2.266     0.226 
 H22                   0.46     -2.217    -0.275 
 
 The following ModRedundant input section has been read:
 D       9       2       3       6 S   6 -15.00                                

 GradGradGradGradGradGradGradGradGradGradGradGradGradGradGradGradGradGrad
 Berny optimization.
 Initialization pass.
                           ----------------------------
                           !    Initial Parameters    !
                           ! (Angstroms and Degrees)  !
 --------------------------                            --------------------------
 ! Name  Definition              Value          Derivative Info.                !
 --------------------------------------------------------------------------------
 ! R1    R(1,2)                  1.5302         estimate D2E/DX2                !
 ! R2    R(1,5)                  1.5137         estimate D2E/DX2                !
 ! R3    R(1,10)                 1.1041         estimate D2E/DX2                !
 ! R4    R(1,11)                 1.1043         estimate D2E/DX2                !
 ! R5    R(2,3)                  1.4008         estimate D2E/DX2                !
 ! R6    R(2,9)                  1.3473         estimate D2E/DX2                !
 ! R7    R(3,4)                  1.401          estimate D2E/DX2                !
 ! R8    R(3,6)                  1.448          estimate D2E/DX2                !
 ! R9    R(4,5)                  1.3424         estimate D2E/DX2                !
 ! R10   R(4,12)                 1.0903         estimate D2E/DX2                !
 ! R11   R(5,13)                 1.0874         estimate D2E/DX2                !
 ! R12   R(6,7)                  1.5361         estimate D2E/DX2                !
 ! R13   R(6,14)                 1.1045         estimate D2E/DX2                !
 ! R14   R(6,15)                 1.1035         estimate D2E/DX2                !
 ! R15   R(7,8)                  1.5294         estimate D2E/DX2                !
 ! R16   R(7,16)                 1.1047         estimate D2E/DX2                !
 ! R17   R(7,17)                 1.1021         estimate D2E/DX2                !
 ! R18   R(8,18)                 1.1013         estimate D2E/DX2                !
 ! R19   R(8,19)                 1.1038         estimate D2E/DX2                !
 ! R20   R(8,20)                 1.104          estimate D2E/DX2                !
 ! R21   R(9,21)                 1.0905         estimate D2E/DX2                !
 ! R22   R(9,22)                 1.0901         estimate D2E/DX2                !
 ! A1    A(2,1,5)              103.2941         estimate D2E/DX2                !
 ! A2    A(2,1,10)             110.9501         estimate D2E/DX2                !
 ! A3    A(2,1,11)             110.9515         estimate D2E/DX2                !
 ! A4    A(5,1,10)             112.7601         estimate D2E/DX2                !
 ! A5    A(5,1,11)             112.5593         estimate D2E/DX2                !
 ! A6    A(10,1,11)            106.4284         estimate D2E/DX2                !
 ! A7    A(1,2,3)              106.4133         estimate D2E/DX2                !
 ! A8    A(1,2,9)              127.0768         estimate D2E/DX2                !
 ! A9    A(3,2,9)              126.5097         estimate D2E/DX2                !
 ! A10   A(2,3,4)              109.8949         estimate D2E/DX2                !
 ! A11   A(2,3,6)              125.1262         estimate D2E/DX2                !
 ! A12   A(4,3,6)              124.8731         estimate D2E/DX2                !
 ! A13   A(3,4,5)              112.2413         estimate D2E/DX2                !
 ! A14   A(3,4,12)             118.7448         estimate D2E/DX2                !
 ! A15   A(5,4,12)             129.0109         estimate D2E/DX2                !
 ! A16   A(1,5,4)              108.1421         estimate D2E/DX2                !
 ! A17   A(1,5,13)             125.5334         estimate D2E/DX2                !
 ! A18   A(4,5,13)             126.3193         estimate D2E/DX2                !
 ! A19   A(3,6,7)              114.4139         estimate D2E/DX2                !
 ! A20   A(3,6,14)             108.3053         estimate D2E/DX2                !
 ! A21   A(3,6,15)             107.8529         estimate D2E/DX2                !
 ! A22   A(7,6,14)             109.8343         estimate D2E/DX2                !
 ! A23   A(7,6,15)             109.7636         estimate D2E/DX2                !
 ! A24   A(14,6,15)            106.3414         estimate D2E/DX2                !
 ! A25   A(6,7,8)              112.2762         estimate D2E/DX2                !
 ! A26   A(6,7,16)             108.7381         estimate D2E/DX2                !
 ! A27   A(6,7,17)             109.0137         estimate D2E/DX2                !
 ! A28   A(8,7,16)             110.0894         estimate D2E/DX2                !
 ! A29   A(8,7,17)             110.141          estimate D2E/DX2                !
 ! A30   A(16,7,17)            106.3966         estimate D2E/DX2                !
 ! A31   A(7,8,18)             111.3338         estimate D2E/DX2                !
 ! A32   A(7,8,19)             111.3676         estimate D2E/DX2                !
 ! A33   A(7,8,20)             111.5628         estimate D2E/DX2                !
 ! A34   A(18,8,19)            107.4914         estimate D2E/DX2                !
 ! A35   A(18,8,20)            107.5064         estimate D2E/DX2                !
 ! A36   A(19,8,20)            107.3599         estimate D2E/DX2                !
 ! A37   A(2,9,21)             122.5529         estimate D2E/DX2                !
 ! A38   A(2,9,22)             119.8428         estimate D2E/DX2                !
 ! A39   A(21,9,22)            117.6039         estimate D2E/DX2                !
 ! D1    D(5,1,2,3)             -1.0401         estimate D2E/DX2                !
 ! D2    D(5,1,2,9)            179.1459         estimate D2E/DX2                !
 ! D3    D(10,1,2,3)          -122.1131         estimate D2E/DX2                !
 ! D4    D(10,1,2,9)            58.0729         estimate D2E/DX2                !
 ! D5    D(11,1,2,3)           119.7959         estimate D2E/DX2                !
 ! D6    D(11,1,2,9)           -60.0181         estimate D2E/DX2                !
 ! D7    D(2,1,5,4)              0.5057         estimate D2E/DX2                !
 ! D8    D(2,1,5,13)           179.7239         estimate D2E/DX2                !
 ! D9    D(10,1,5,4)           120.3441         estimate D2E/DX2                !
 ! D10   D(10,1,5,13)          -60.4378         estimate D2E/DX2                !
 ! D11   D(11,1,5,4)          -119.2316         estimate D2E/DX2                !
 ! D12   D(11,1,5,13)           59.9866         estimate D2E/DX2                !
 ! D13   D(1,2,3,4)              1.2262         estimate D2E/DX2                !
 ! D14   D(1,2,3,6)            177.6311         estimate D2E/DX2                !
 ! D15   D(9,2,3,4)           -178.9584         estimate D2E/DX2                !
 ! D16   D(9,2,3,6)             -2.5534         Scan                            !
 ! D17   D(1,2,9,21)          -179.0825         estimate D2E/DX2                !
 ! D18   D(1,2,9,22)             1.1326         estimate D2E/DX2                !
 ! D19   D(3,2,9,21)             1.1395         estimate D2E/DX2                !
 ! D20   D(3,2,9,22)          -178.6455         estimate D2E/DX2                !
 ! D21   D(2,3,4,5)             -0.9558         estimate D2E/DX2                !
 ! D22   D(2,3,4,12)           179.6059         estimate D2E/DX2                !
 ! D23   D(6,3,4,5)           -177.3719         estimate D2E/DX2                !
 ! D24   D(6,3,4,12)             3.1898         estimate D2E/DX2                !
 ! D25   D(2,3,6,7)            -81.2022         estimate D2E/DX2                !
 ! D26   D(2,3,6,14)            41.6616         estimate D2E/DX2                !
 ! D27   D(2,3,6,15)           156.3638         estimate D2E/DX2                !
 ! D28   D(4,3,6,7)             94.6766         estimate D2E/DX2                !
 ! D29   D(4,3,6,14)          -142.4596         estimate D2E/DX2                !
 ! D30   D(4,3,6,15)           -27.7574         estimate D2E/DX2                !
 ! D31   D(3,4,5,1)              0.2261         estimate D2E/DX2                !
 ! D32   D(3,4,5,13)          -178.9842         estimate D2E/DX2                !
 ! D33   D(12,4,5,1)           179.5924         estimate D2E/DX2                !
 ! D34   D(12,4,5,13)            0.382          estimate D2E/DX2                !
 ! D35   D(3,6,7,8)            178.6324         estimate D2E/DX2                !
 ! D36   D(3,6,7,16)           -59.2996         estimate D2E/DX2                !
 ! D37   D(3,6,7,17)            56.3064         estimate D2E/DX2                !
 ! D38   D(14,6,7,8)            56.6            estimate D2E/DX2                !
 ! D39   D(14,6,7,16)          178.668          estimate D2E/DX2                !
 ! D40   D(14,6,7,17)          -65.726          estimate D2E/DX2                !
 ! D41   D(15,6,7,8)           -59.9786         estimate D2E/DX2                !
 ! D42   D(15,6,7,16)           62.0894         estimate D2E/DX2                !
 ! D43   D(15,6,7,17)          177.6953         estimate D2E/DX2                !
 ! D44   D(6,7,8,18)           179.8977         estimate D2E/DX2                !
 ! D45   D(6,7,8,19)           -60.1488         estimate D2E/DX2                !
 ! D46   D(6,7,8,20)            59.7927         estimate D2E/DX2                !
 ! D47   D(16,7,8,18)           58.6013         estimate D2E/DX2                !
 ! D48   D(16,7,8,19)          178.5548         estimate D2E/DX2                !
 ! D49   D(16,7,8,20)          -61.5036         estimate D2E/DX2                !
 ! D50   D(17,7,8,18)          -58.4178         estimate D2E/DX2                !
 ! D51   D(17,7,8,19)           61.5357         estimate D2E/DX2                !
 ! D52   D(17,7,8,20)         -178.5227         estimate D2E/DX2                !
 --------------------------------------------------------------------------------
 Trust Radius=3.00D-01 FncErr=1.00D-07 GrdErr=1.00D-06
 Number of optimizations in scan=   7
 Number of steps in this run=    123 maximum allowed number of steps=    132.
 GradGradGradGradGradGradGradGradGradGradGradGradGradGradGradGradGradGrad

                          Input orientation:                          
 ---------------------------------------------------------------------
 Center     Atomic      Atomic             Coordinates (Angstroms)
 Number     Number       Type             X           Y           Z
 ---------------------------------------------------------------------
      1          6           0        0.779000    0.587000   -0.130000
      2          6           0       -0.410000   -0.337000    0.142000
      3          7           0       -1.469000    0.488000    0.542000
      4          6           0       -1.064000    1.829000    0.518000
      5          6           0        0.218000    1.966000    0.144000
      6          6           0       -2.808000    0.033000    0.853000
      7          6           0       -3.702000   -0.196000   -0.375000
      8          6           0       -5.092000   -0.707000    0.007000
      9          6           0       -0.439000   -1.679000    0.026000
     10          1           0        1.140000    0.471000   -1.167000
     11          1           0        1.631000    0.338000    0.527000
     12          1           0       -1.783000    2.599000    0.799000
     13          1           0        0.769000    2.900000    0.063000
     14          1           0       -2.730000   -0.900000    1.439000
     15          1           0       -3.273000    0.780000    1.519000
     16          1           0       -3.787000    0.753000   -0.934000
     17          1           0       -3.207000   -0.912000   -1.051000
     18          1           0       -5.720000   -0.864000   -0.884000
     19          1           0       -5.033000   -1.669000    0.545000
     20          1           0       -5.620000    0.006000    0.664000
     21          1           0       -1.336000   -2.266000    0.226000
     22          1           0        0.460000   -2.217000   -0.275000
 ---------------------------------------------------------------------
                    Distance matrix (angstroms):
                    1          2          3          4          5
     1  C    0.000000
     2  C    1.530190   0.000000
     3  N    2.348380   1.400752   0.000000
     4  C    2.314977   2.293610   1.401029   0.000000
     5  C    1.513750   2.387090   2.277906   1.342449   0.000000
     6  C    3.760289   2.528404   1.447987   2.525743   3.660034
     7  C    4.555488   3.335331   2.508991   3.443417   4.506662
     8  C    6.013472   4.698537   3.852321   4.787191   5.946411
     9  C    2.577327   1.347316   2.454189   3.597048   3.705617
    10  H    1.104150   2.183769   3.118950   3.088852   2.191764
    11  H    1.104334   2.183926   3.103663   3.079965   2.189439
    12  H    3.387481   3.307094   2.149643   1.090331   2.198571
    13  H    2.321060   3.445933   3.325031   2.171164   1.087437
    14  H    4.121409   2.716906   2.078767   3.327347   4.310648
    15  H    4.378944   3.367579   2.072247   2.642363   3.935010
    16  H    4.639216   3.708100   2.760783   3.268151   4.321282
    17  H    4.356999   3.094686   2.741951   3.816712   4.630500
    18  H    6.701561   5.433829   4.683202   5.558434   6.657742
    19  H    6.270925   4.827915   4.165904   5.290529   6.398986
    20  H    6.474195   5.247307   4.180671   4.909356   6.180149
    21  H    3.569253   2.141395   2.775259   4.114398   4.509042
    22  H    2.825810   2.113099   3.421338   4.395627   4.210892
                    6          7          8          9         10
     6  C    0.000000
     7  C    1.536119   0.000000
     8  C    2.545579   1.529426   0.000000
     9  C    3.037603   3.606558   4.753478   0.000000
    10  H    4.456338   4.951476   6.450100   2.922155   0.000000
    11  H    4.461393   5.435039   6.823573   2.933290   1.768730
    12  H    2.763675   3.587877   4.744089   4.550291   4.115516
    13  H    4.651744   5.455905   6.882217   4.735808   2.747832
    14  H    1.104522   2.175085   2.768920   2.802158   4.862898
    15  H    1.103535   2.173443   2.793935   4.038228   5.175389
    16  H    2.161067   1.104675   2.172581   4.247979   4.940561
    17  H    2.162739   1.102115   2.171316   3.067579   4.563174
    18  H    3.507352   2.185779   1.101324   5.420451   6.994420
    19  H    2.818207   2.188079   1.103798   4.623234   6.753997
    20  H    2.818473   2.190673   1.103994   5.485347   7.019002
    21  H    2.800949   3.200634   4.072589   1.090494   3.944895
    22  H    4.124889   4.627816   5.760584   1.090067   2.912629
                   11         12         13         14         15
    11  H    0.000000
    12  H    4.103840   0.000000
    13  H    2.742660   2.673013   0.000000
    14  H    4.624144   3.680952   5.345688   0.000000
    15  H    5.022812   2.459118   4.790835   1.767385   0.000000
    16  H    5.626853   3.229090   5.134272   3.079089   2.506419
    17  H    5.240117   4.216325   5.619690   2.535305   3.077681
    18  H    7.581090   5.506798   7.561192   3.786519   3.803282
    19  H    6.959689   5.370553   7.400763   2.587355   3.169208
    20  H    7.259889   4.632973   7.039585   3.126269   2.615054
    21  H    3.959104   4.918980   5.580784   2.297947   3.834310
    22  H    2.922750   5.420183   5.137452   3.853360   5.112312
                   16         17         18         19         20
    16  H    0.000000
    17  H    1.767007   0.000000
    18  H    2.520650   2.519000   0.000000
    19  H    3.099361   2.540579   1.778211   0.000000
    20  H    2.543915   3.099438   1.778540   1.778863   0.000000
    21  H    4.058000   2.639069   4.734676   3.758454   4.868930
    22  H    5.224193   3.968890   6.355619   5.580838   6.541395
                   21         22
    21  H    0.000000
    22  H    1.865213   0.000000
 Stoichiometry    C8H13N
 Framework group  C1[X(C8H13N)]
 Deg. of freedom    60
 Full point group                 C1      NOp   1
 Largest Abelian subgroup         C1      NOp   1
 Largest concise Abelian subgroup C1      NOp   1
                         Standard orientation:                         
 ---------------------------------------------------------------------
 Center     Atomic      Atomic             Coordinates (Angstroms)
 Number     Number       Type             X           Y           Z
 ---------------------------------------------------------------------
      1          6           0        2.471965    0.316529    0.287968
      2          6           0        1.075144    0.834374   -0.061614
      3          7           0        0.288424   -0.294688   -0.323138
      4          6           0        1.048871   -1.457616   -0.143692
      5          6           0        2.316474   -1.186967    0.205739
      6          6           0       -1.122393   -0.269979   -0.648178
      7          6           0       -2.051929   -0.140102    0.567863
      8          6           0       -3.526851   -0.085219    0.166941
      9          6           0        0.674892    2.119812   -0.113672
     10          1           0        2.780708    0.659823    1.290951
     11          1           0        3.225444    0.703901   -0.420386
     12          1           0        0.572920   -2.425340   -0.304329
     13          1           0        3.104143   -1.914612    0.386374
     14          1           0       -1.302486    0.564998   -1.348426
     15          1           0       -1.358431   -1.195350   -1.201138
     16          1           0       -1.873974   -0.995723    1.243550
     17          1           0       -1.778537    0.765283    1.133717
     18          1           0       -4.178907    0.005983    1.049787
     19          1           0       -3.733511    0.778326   -0.488765
     20          1           0       -3.832893   -0.994392   -0.379453
     21          1           0       -0.348430    2.406280   -0.358467
     22          1           0        1.387943    2.918657    0.090415
 ---------------------------------------------------------------------
 Rotational constants (GHZ):      3.1441629      1.0197759      0.8267813
 Standard basis: CC-pVDZ (5D, 7F)
 There are   191 symmetry adapted basis functions of A   symmetry.
 Integral buffers will be    131072 words long.
 Raffenetti 2 integral format.
 Two-electron integral symmetry is turned on.
   191 basis functions,   388 primitive gaussians,   200 cartesian basis functions
    34 alpha electrons       34 beta electrons
       nuclear repulsion energy       442.5730450962 Hartrees.
 NAtoms=   22 NActive=   22 NUniq=   22 SFac= 1.00D+00 NAtFMM=   50 NAOKFM=F Big=F
 One-electron integrals computed using PRISM.
 NBasis=   191 RedAO= T  NBF=   191
 NBsUse=   191 1.00D-06 NBFU=   191
 Harris functional with IExCor=  402 diagonalized for initial guess.
 ExpMin= 1.22D-01 ExpMax= 9.05D+03 ExpMxC= 3.09D+02 IAcc=1 IRadAn=         1 AccDes= 0.00D+00
 HarFok:  IExCor=  402 AccDes= 0.00D+00 IRadAn=         1 IDoV= 1
 ScaDFX=  1.000000  1.000000  1.000000  1.000000
 FoFCou: FMM=F IPFlag=           0 FMFlag=      100000 FMFlg1=           0
         NFxFlg=           0 DoJE=T BraDBF=F KetDBF=T FulRan=T
         Omega=  0.000000  0.000000  1.000000  0.000000  0.000000 ICntrl=     500 IOpCl=  0
         NMat0=    1 NMatS0=    1 NMatT0=    0 NMatD0=    1 NMtDS0=    0 NMtDT0=    0
         I1Cent=           4 NGrid=           0.
 Petite list used in FoFCou.
 Initial guess orbital symmetries:
       Occupied  (A) (A) (A) (A) (A) (A) (A) (A) (A) (A) (A) (A)
                 (A) (A) (A) (A) (A) (A) (A) (A) (A) (A) (A) (A)
                 (A) (A) (A) (A) (A) (A) (A) (A) (A) (A)
       Virtual   (A) (A) (A) (A) (A) (A) (A) (A) (A) (A) (A) (A)
                 (A) (A) (A) (A) (A) (A) (A) (A) (A) (A) (A) (A)
                 (A) (A) (A) (A) (A) (A) (A) (A) (A) (A) (A) (A)
                 (A) (A) (A) (A) (A) (A) (A) (A) (A) (A) (A) (A)
                 (A) (A) (A) (A) (A) (A) (A) (A) (A) (A) (A) (A)
                 (A) (A) (A) (A) (A) (A) (A) (A) (A) (A) (A) (A)
                 (A) (A) (A) (A) (A) (A) (A) (A) (A) (A) (A) (A)
                 (A) (A) (A) (A) (A) (A) (A) (A) (A) (A) (A) (A)
                 (A) (A) (A) (A) (A) (A) (A) (A) (A) (A) (A) (A)
                 (A) (A) (A) (A) (A) (A) (A) (A) (A) (A) (A) (A)
                 (A) (A) (A) (A) (A) (A) (A) (A) (A) (A) (A) (A)
                 (A) (A) (A) (A) (A) (A) (A) (A) (A) (A) (A) (A)
                 (A) (A) (A) (A) (A) (A) (A) (A) (A) (A) (A) (A)
                 (A)
 The electronic state of the initial guess is 1-A.
 Requested convergence on RMS density matrix=1.00D-08 within 128 cycles.
 Requested convergence on MAX density matrix=1.00D-06.
 Requested convergence on             energy=1.00D-06.
 No special actions if energy rises.
 Keep R1 ints in memory in canonical form, NReq=206404496.
 Integral accuracy reduced to 1.0D-05 until final iterations.
 Initial convergence to 1.0D-05 achieved.  Increase integral accuracy.
 SCF Done:  E(RB3LYP) =  -367.407838485     A.U. after   14 cycles
             Convg  =    0.6428D-08             -V/T =  2.0079

 **********************************************************************

            Population analysis using the SCF density.

 **********************************************************************

 Orbital symmetries:
       Occupied  (A) (A) (A) (A) (A) (A) (A) (A) (A) (A) (A) (A)
                 (A) (A) (A) (A) (A) (A) (A) (A) (A) (A) (A) (A)
                 (A) (A) (A) (A) (A) (A) (A) (A) (A) (A)
       Virtual   (A) (A) (A) (A) (A) (A) (A) (A) (A) (A) (A) (A)
                 (A) (A) (A) (A) (A) (A) (A) (A) (A) (A) (A) (A)
                 (A) (A) (A) (A) (A) (A) (A) (A) (A) (A) (A) (A)
                 (A) (A) (A) (A) (A) (A) (A) (A) (A) (A) (A) (A)
                 (A) (A) (A) (A) (A) (A) (A) (A) (A) (A) (A) (A)
                 (A) (A) (A) (A) (A) (A) (A) (A) (A) (A) (A) (A)
                 (A) (A) (A) (A) (A) (A) (A) (A) (A) (A) (A) (A)
                 (A) (A) (A) (A) (A) (A) (A) (A) (A) (A) (A) (A)
                 (A) (A) (A) (A) (A) (A) (A) (A) (A) (A) (A) (A)
                 (A) (A) (A) (A) (A) (A) (A) (A) (A) (A) (A) (A)
                 (A) (A) (A) (A) (A) (A) (A) (A) (A) (A) (A) (A)
                 (A) (A) (A) (A) (A) (A) (A) (A) (A) (A) (A) (A)
                 (A) (A) (A) (A) (A) (A) (A) (A) (A) (A) (A) (A)
                 (A)
 The electronic state is 1-A.
 Alpha  occ. eigenvalues --  -14.35092 -10.22426 -10.21762 -10.21459 -10.19171
 Alpha  occ. eigenvalues --  -10.18778 -10.18486 -10.16860 -10.15253  -0.96580
 Alpha  occ. eigenvalues --   -0.81033  -0.76087  -0.75543  -0.68218  -0.65177
 Alpha  occ. eigenvalues --   -0.60267  -0.57916  -0.52812  -0.49634  -0.47079
 Alpha  occ. eigenvalues --   -0.44639  -0.43549  -0.42538  -0.41679  -0.39718
 Alpha  occ. eigenvalues --   -0.38849  -0.37276  -0.36753  -0.35771  -0.34206
 Alpha  occ. eigenvalues --   -0.33389  -0.32115  -0.26065  -0.17147
 Alpha virt. eigenvalues --    0.01150   0.05047   0.06714   0.07416   0.08286
 Alpha virt. eigenvalues --    0.09655   0.10734   0.11023   0.13082   0.13635
 Alpha virt. eigenvalues --    0.14153   0.14933   0.15174   0.15477   0.16437
 Alpha virt. eigenvalues --    0.19607   0.20734   0.22221   0.23739   0.24927
 Alpha virt. eigenvalues --    0.26962   0.34616   0.35798   0.38939   0.39895
 Alpha virt. eigenvalues --    0.41023   0.42002   0.43007   0.45287   0.46782
 Alpha virt. eigenvalues --    0.48299   0.48625   0.49691   0.50978   0.52615
 Alpha virt. eigenvalues --    0.54302   0.56206   0.56785   0.57014   0.59217
 Alpha virt. eigenvalues --    0.60760   0.61998   0.63005   0.63843   0.64445
 Alpha virt. eigenvalues --    0.65061   0.65382   0.65819   0.66319   0.67197
 Alpha virt. eigenvalues --    0.68001   0.69633   0.70496   0.71593   0.72020
 Alpha virt. eigenvalues --    0.73118   0.78650   0.81492   0.82470   0.84579
 Alpha virt. eigenvalues --    0.86461   0.90061   0.90965   0.94979   0.97195
 Alpha virt. eigenvalues --    1.00456   1.01118   1.03539   1.04713   1.08502
 Alpha virt. eigenvalues --    1.09221   1.12124   1.13055   1.13920   1.20365
 Alpha virt. eigenvalues --    1.20821   1.22361   1.26830   1.33061   1.34172
 Alpha virt. eigenvalues --    1.35473   1.36843   1.38816   1.41850   1.41901
 Alpha virt. eigenvalues --    1.46940   1.49419   1.49585   1.50945   1.53280
 Alpha virt. eigenvalues --    1.54033   1.56234   1.59095   1.60425   1.61054
 Alpha virt. eigenvalues --    1.62097   1.63110   1.63571   1.64921   1.66062
 Alpha virt. eigenvalues --    1.67742   1.67903   1.68595   1.69786   1.71026
 Alpha virt. eigenvalues --    1.71427   1.72347   1.72564   1.75725   1.76597
 Alpha virt. eigenvalues --    1.78087   1.80478   1.82360   1.83742   1.84498
 Alpha virt. eigenvalues --    1.87997   1.88232   1.92163   1.93579   1.94330
 Alpha virt. eigenvalues --    1.97857   1.98626   1.99698   2.03961   2.04395
 Alpha virt. eigenvalues --    2.05799   2.09627   2.10342   2.13866   2.15595
 Alpha virt. eigenvalues --    2.17587   2.18102   2.21818   2.24309   2.27859
 Alpha virt. eigenvalues --    2.29871   2.31314   2.33145   2.38568   2.39614
 Alpha virt. eigenvalues --    2.41401   2.43130   2.45514   2.46410   2.47707
 Alpha virt. eigenvalues --    2.51825   2.54322   2.56167   2.58102   2.62390
 Alpha virt. eigenvalues --    2.63591   2.67587   2.70212   2.78244   2.87290
 Alpha virt. eigenvalues --    3.05637   3.21415
          Condensed to atoms (all electrons):
              1          2          3          4          5          6
     1  C    4.671288   0.371316  -0.067557  -0.054229   0.382297   0.011347
     2  C    0.371316   4.703106   0.424729  -0.087635  -0.036330  -0.055918
     3  N   -0.067557   0.424729   6.311934   0.391808  -0.040441   0.376913
     4  C   -0.054229  -0.087635   0.391808   4.679588   0.614946  -0.053134
     5  C    0.382297  -0.036330  -0.040441   0.614946   4.887466   0.004859
     6  C    0.011347  -0.055918   0.376913  -0.053134   0.004859   4.560571
     7  C   -0.000674  -0.005074  -0.046288  -0.001447   0.000003   0.441404
     8  C    0.000005   0.000003   0.004049  -0.000103  -0.000002  -0.041161
     9  C   -0.074820   0.682684  -0.058415   0.006584   0.006274  -0.007731
    10  H    0.353184  -0.008066   0.002116  -0.001169  -0.016499  -0.000170
    11  H    0.351277  -0.006716   0.001964  -0.001897  -0.016036  -0.000153
    12  H    0.010378   0.001230  -0.034507   0.393335  -0.049840  -0.001766
    13  H   -0.039861   0.005498   0.004516  -0.035391   0.398063  -0.000143
    14  H    0.000513  -0.009655  -0.018316   0.006490  -0.000835   0.357758
    15  H   -0.000901   0.007463  -0.015435  -0.006890   0.002071   0.358283
    16  H    0.000146  -0.000458  -0.000606   0.003357  -0.000647  -0.025408
    17  H   -0.000436   0.005123  -0.005891  -0.000654   0.000326  -0.025173
    18  H    0.000000  -0.000011  -0.000191  -0.000001   0.000000   0.004534
    19  H    0.000001  -0.000015   0.000184   0.000014  -0.000001  -0.005321
    20  H   -0.000001   0.000017   0.000217  -0.000011   0.000001  -0.004689
    21  H    0.008768   0.023807  -0.013748  -0.000182  -0.000472   0.006034
    22  H   -0.016164   0.013799   0.005265  -0.000027   0.000636  -0.000537
              7          8          9         10         11         12
     1  C   -0.000674   0.000005  -0.074820   0.353184   0.351277   0.010378
     2  C   -0.005074   0.000003   0.682684  -0.008066  -0.006716   0.001230
     3  N   -0.046288   0.004049  -0.058415   0.002116   0.001964  -0.034507
     4  C   -0.001447  -0.000103   0.006584  -0.001169  -0.001897   0.393335
     5  C    0.000003  -0.000002   0.006274  -0.016499  -0.016036  -0.049840
     6  C    0.441404  -0.041161  -0.007731  -0.000170  -0.000153  -0.001766
     7  C    4.619472   0.426625  -0.001085   0.000037   0.000009  -0.000777
     8  C    0.426625   4.526194  -0.000285   0.000000   0.000000  -0.000052
     9  C   -0.001085  -0.000285   4.774731  -0.003722  -0.003299  -0.000735
    10  H    0.000037   0.000000  -0.003722   0.668353  -0.038363  -0.000240
    11  H    0.000009   0.000000  -0.003299  -0.038363   0.668640  -0.000263
    12  H   -0.000777  -0.000052  -0.000735  -0.000240  -0.000263   0.700133
    13  H    0.000011   0.000000  -0.000241  -0.000346  -0.000383  -0.007162
    14  H   -0.044447  -0.000338   0.008504   0.000033  -0.000110   0.000385
    15  H   -0.035917  -0.002522   0.000304   0.000022   0.000011   0.002699
    16  H    0.366848  -0.022536  -0.000040  -0.000016   0.000002   0.001101
    17  H    0.378515  -0.023599   0.004967  -0.000063   0.000024  -0.000071
    18  H   -0.006954   0.376703   0.000015   0.000000   0.000000   0.000001
    19  H   -0.025591   0.389330   0.000020   0.000000   0.000000   0.000005
    20  H   -0.027581   0.389001  -0.000007   0.000000   0.000000  -0.000020
    21  H   -0.002394  -0.000018   0.338380  -0.000055  -0.000109  -0.000025
    22  H    0.000222   0.000001   0.360396   0.001572   0.001499   0.000019
             13         14         15         16         17         18
     1  C   -0.039861   0.000513  -0.000901   0.000146  -0.000436   0.000000
     2  C    0.005498  -0.009655   0.007463  -0.000458   0.005123  -0.000011
     3  N    0.004516  -0.018316  -0.015435  -0.000606  -0.005891  -0.000191
     4  C   -0.035391   0.006490  -0.006890   0.003357  -0.000654  -0.000001
     5  C    0.398063  -0.000835   0.002071  -0.000647   0.000326   0.000000
     6  C   -0.000143   0.357758   0.358283  -0.025408  -0.025173   0.004534
     7  C    0.000011  -0.044447  -0.035917   0.366848   0.378515  -0.006954
     8  C    0.000000  -0.000338  -0.002522  -0.022536  -0.023599   0.376703
     9  C   -0.000241   0.008504   0.000304  -0.000040   0.004967   0.000015
    10  H   -0.000346   0.000033   0.000022  -0.000016  -0.000063   0.000000
    11  H   -0.000383  -0.000110   0.000011   0.000002   0.000024   0.000000
    12  H   -0.007162   0.000385   0.002699   0.001101  -0.000071   0.000001
    13  H    0.709070   0.000016  -0.000003   0.000003   0.000001   0.000000
    14  H    0.000016   0.710573  -0.032723   0.010404  -0.013615  -0.000268
    15  H   -0.000003  -0.032723   0.714064  -0.011844   0.009675  -0.000240
    16  H    0.000003   0.010404  -0.011844   0.717495  -0.041444  -0.005180
    17  H    0.000001  -0.013615   0.009675  -0.041444   0.692318  -0.004724
    18  H    0.000000  -0.000268  -0.000240  -0.005180  -0.004724   0.677610
    19  H    0.000000   0.007848  -0.001798   0.008754  -0.008275  -0.029630
    20  H    0.000000  -0.001491   0.007620  -0.008651   0.008296  -0.030560
    21  H    0.000013   0.002752  -0.000101  -0.000083   0.002047  -0.000020
    22  H   -0.000006  -0.000007  -0.000002   0.000001  -0.000104   0.000000
             19         20         21         22
     1  C    0.000001  -0.000001   0.008768  -0.016164
     2  C   -0.000015   0.000017   0.023807   0.013799
     3  N    0.000184   0.000217  -0.013748   0.005265
     4  C    0.000014  -0.000011  -0.000182  -0.000027
     5  C   -0.000001   0.000001  -0.000472   0.000636
     6  C   -0.005321  -0.004689   0.006034  -0.000537
     7  C   -0.025591  -0.027581  -0.002394   0.000222
     8  C    0.389330   0.389001  -0.000018   0.000001
     9  C    0.000020  -0.000007   0.338380   0.360396
    10  H    0.000000   0.000000  -0.000055   0.001572
    11  H    0.000000   0.000000  -0.000109   0.001499
    12  H    0.000005  -0.000020  -0.000025   0.000019
    13  H    0.000000   0.000000   0.000013  -0.000006
    14  H    0.007848  -0.001491   0.002752  -0.000007
    15  H   -0.001798   0.007620  -0.000101  -0.000002
    16  H    0.008754  -0.008651  -0.000083   0.000001
    17  H   -0.008275   0.008296   0.002047  -0.000104
    18  H   -0.029630  -0.030560  -0.000020   0.000000
    19  H    0.676515  -0.032596  -0.000016   0.000000
    20  H   -0.032596   0.683729   0.000000   0.000000
    21  H   -0.000016   0.000000   0.697952  -0.056751
    22  H    0.000000   0.000000  -0.056751   0.699323
 Mulliken atomic charges:
              1
     1  C    0.094121
     2  C   -0.028898
     3  N   -0.222301
     4  C    0.146648
     5  C   -0.135839
     6  C    0.099600
     7  C   -0.034920
     8  C   -0.021295
     9  C   -0.032479
    10  H    0.043393
    11  H    0.043902
    12  H   -0.013828
    13  H   -0.033656
    14  H    0.016529
    15  H    0.006164
    16  H    0.008802
    17  H    0.022755
    18  H    0.018916
    19  H    0.020572
    20  H    0.016725
    21  H   -0.005779
    22  H   -0.009135
 Sum of Mulliken atomic charges =   0.00000
 Mulliken charges with hydrogens summed into heavy atoms:
              1
     1  C    0.181417
     2  C   -0.028898
     3  N   -0.222301
     4  C    0.132820
     5  C   -0.169495
     6  C    0.122292
     7  C   -0.003362
     8  C    0.034919
     9  C   -0.047393
 Sum of Mulliken charges with hydrogens summed into heavy atoms =   0.00000
 Electronic spatial extent (au):  <R**2>=           1480.2413
 Charge=              0.0000 electrons
 Dipole moment (field-independent basis, Debye):
    X=             -0.7955    Y=             -1.0350    Z=             -0.0615  Tot=              1.3068
 Quadrupole moment (field-independent basis, Debye-Ang):
   XX=            -53.2135   YY=            -55.9437   ZZ=            -58.4904
   XY=              0.4812   XZ=              1.3765   YZ=              0.6751
 Traceless Quadrupole moment (field-independent basis, Debye-Ang):
   XX=              2.6691   YY=             -0.0612   ZZ=             -2.6079
   XY=              0.4812   XZ=              1.3765   YZ=              0.6751
 Octapole moment (field-independent basis, Debye-Ang**2):
  XXX=              7.4502  YYY=            -10.0189  ZZZ=              0.5672  XYY=             -1.1278
  XXY=              1.8325  XXZ=              3.4908  XZZ=             -3.8549  YZZ=             -1.0555
  YYZ=             -0.8416  XYZ=              0.4380
 Hexadecapole moment (field-independent basis, Debye-Ang**3):
 XXXX=          -1431.0392 YYYY=           -465.7220 ZZZZ=           -140.0776 XXXY=              0.3078
 XXXZ=              0.8464 YYYX=             -2.3004 YYYZ=              4.7294 ZZZX=              0.9590
 ZZZY=              2.6908 XXYY=           -312.3899 XXZZ=           -263.8486 YYZZ=           -110.8440
 XXYZ=             -1.4650 YYXZ=              5.8304 ZZXY=              2.4817
 N-N= 4.425730450962D+02 E-N=-1.735929689389D+03  KE= 3.645397719444D+02
 Calling FoFJK, ICntrl=      2127 FMM=F ISym2X=0 I1Cent= 0 IOpClX= 0 NMat=1 NMatS=1 NMatT=0.
 ***** Axes restored to original set *****
 -------------------------------------------------------------------
 Center     Atomic                   Forces (Hartrees/Bohr)
 Number     Number              X              Y              Z
 -------------------------------------------------------------------
      1        6          -0.000219942   -0.000315975   -0.000096047
      2        6           0.000451881    0.000027586   -0.000045448
      3        7          -0.000707552    0.000336913    0.000111585
      4        6          -0.000873543    0.000168132    0.000328812
      5        6           0.000798151    0.000567492   -0.000193269
      6        6           0.000523157    0.000253222    0.000236481
      7        6          -0.000424846    0.000667872    0.000011836
      8        6          -0.000206470   -0.000216482    0.000106604
      9        6          -0.000125007   -0.000583628   -0.000081017
     10        1           0.000064964   -0.000005292   -0.000137077
     11        1           0.000160974   -0.000024900    0.000143344
     12        1           0.000195196   -0.000208703   -0.000077095
     13        1          -0.000227206   -0.000289706    0.000051969
     14        1          -0.000017629   -0.000126609    0.000109405
     15        1           0.000014224   -0.000097886   -0.000074287
     16        1           0.000063203   -0.000175306    0.000036994
     17        1           0.000240965   -0.000320954   -0.000312804
     18        1          -0.000006223    0.000007017   -0.000026980
     19        1           0.000002719    0.000112599   -0.000032935
     20        1           0.000125198   -0.000026934   -0.000041861
     21        1           0.000217755    0.000195217   -0.000028216
     22        1          -0.000049969    0.000056328    0.000010005
 -------------------------------------------------------------------
 Cartesian Forces:  Max     0.000873543 RMS     0.000278810

 GradGradGradGradGradGradGradGradGradGradGradGradGradGradGradGradGradGrad
 Berny optimization.
 Internal  Forces:  Max     0.000652233 RMS     0.000134242
 Search for a local minimum.
 Step number   1 out of a maximum of  123 on scan point     1 out of     7
 All quantities printed in internal units (Hartrees-Bohrs-Radians)
 Mixed Optimization -- En-DIIS/RFO-DIIS
 Second derivative matrix not updated -- first step.
 ITU=  0
     Eigenvalues ---    0.00288   0.00377   0.00717   0.01057   0.01364
     Eigenvalues ---    0.01491   0.01808   0.02369   0.02786   0.02786
     Eigenvalues ---    0.03532   0.03989   0.04810   0.04994   0.05358
     Eigenvalues ---    0.05443   0.05464   0.06980   0.08269   0.08520
     Eigenvalues ---    0.09396   0.09839   0.12157   0.13086   0.15997
     Eigenvalues ---    0.15999   0.16000   0.16000   0.16000   0.16000
     Eigenvalues ---    0.16000   0.21891   0.21966   0.22150   0.24086
     Eigenvalues ---    0.24873   0.25000   0.28729   0.28866   0.29476
     Eigenvalues ---    0.30184   0.33170   0.33187   0.33207   0.33227
     Eigenvalues ---    0.33244   0.33266   0.33294   0.33449   0.33536
     Eigenvalues ---    0.34756   0.34774   0.34805   0.35111   0.38510
     Eigenvalues ---    0.42964   0.43908   0.54197   0.555961000.00000
     Eigenvalues --- 1000.000001000.000001000.000001000.000001000.00000
     Eigenvalues --- 1000.000001000.000001000.000001000.000001000.00000
     Eigenvalues --- 1000.000001000.000001000.000001000.000001000.00000
     Eigenvalues --- 1000.000001000.000001000.000001000.000001000.00000
     Eigenvalues --- 1000.000001000.000001000.000001000.000001000.00000
     Eigenvalues --- 1000.000001000.000001000.000001000.000001000.00000
     Eigenvalues --- 1000.000001000.000001000.000001000.000001000.00000
     Eigenvalues --- 1000.000001000.000001000.000001000.000001000.00000
     Eigenvalues --- 1000.000001000.000001000.000001000.000001000.00000
     Eigenvalues --- 1000.000001000.000001000.000001000.000001000.00000
     Eigenvalues --- 1000.000001000.000001000.00000
 RFO step:  Lambda=-5.67180722D-06 EMin= 2.88166409D-03
 Linear search not attempted -- first point.
 Iteration  1 RMS(Cart)=  0.00065734 RMS(Int)=  0.00000027
 Iteration  2 RMS(Cart)=  0.00000034 RMS(Int)=  0.00000007
 Iteration  1 RMS(Cart)=  0.00000000 RMS(Int)=  0.00000000
 Variable       Old X    -DE/DX   Delta X   Delta X   Delta X     New X
                                 (Linear)    (Quad)   (Total)
    R1        2.89164  -0.00007   0.00000  -0.00032  -0.00032   2.89132
    R2        2.86057   0.00028   0.00000   0.00090   0.00090   2.86147
    R3        2.08654   0.00015   0.00000   0.00045   0.00045   2.08699
    R4        2.08689   0.00022   0.00000   0.00065   0.00065   2.08754
    R5        2.64704   0.00060   0.00000   0.00130   0.00130   2.64834
    R6        2.54606   0.00034   0.00000   0.00060   0.00060   2.54666
    R7        2.64756  -0.00005   0.00000  -0.00008  -0.00008   2.64748
    R8        2.73630  -0.00031   0.00000  -0.00082  -0.00082   2.73548
    R9        2.53686   0.00065   0.00000   0.00118   0.00118   2.53804
   R10        2.06043  -0.00030   0.00000  -0.00085  -0.00085   2.05958
   R11        2.05496  -0.00037   0.00000  -0.00105  -0.00105   2.05391
   R12        2.90284   0.00033   0.00000   0.00115   0.00115   2.90399
   R13        2.08724   0.00016   0.00000   0.00049   0.00049   2.08773
   R14        2.08538  -0.00012   0.00000  -0.00035  -0.00035   2.08503
   R15        2.89020   0.00012   0.00000   0.00040   0.00040   2.89060
   R16        2.08753  -0.00018   0.00000  -0.00053  -0.00053   2.08701
   R17        2.08270   0.00051   0.00000   0.00153   0.00153   2.08422
   R18        2.08120   0.00003   0.00000   0.00008   0.00008   2.08128
   R19        2.08588  -0.00011   0.00000  -0.00034  -0.00034   2.08553
   R20        2.08625  -0.00011   0.00000  -0.00032  -0.00032   2.08593
   R21        2.06074  -0.00029   0.00000  -0.00083  -0.00083   2.05990
   R22        2.05993  -0.00007   0.00000  -0.00021  -0.00021   2.05972
    A1        1.80282   0.00004   0.00000   0.00005   0.00005   1.80287
    A2        1.93644   0.00001   0.00000   0.00029   0.00029   1.93674
    A3        1.93647  -0.00001   0.00000  -0.00005  -0.00005   1.93642
    A4        1.96804  -0.00001   0.00000   0.00011   0.00011   1.96815
    A5        1.96453  -0.00004   0.00000  -0.00042  -0.00042   1.96411
    A6        1.85753   0.00001   0.00000   0.00003   0.00003   1.85755
    A7        1.85726   0.00004   0.00000   0.00008   0.00008   1.85734
    A8        2.21791  -0.00008   0.00000  -0.00026  -0.00026   2.21765
    A9        2.20801   0.00003   0.00000   0.00018   0.00018   2.20819
   A10        1.91803   0.00002   0.00000   0.00014   0.00014   1.91816
   A11        2.18386  -0.00004   0.00000  -0.00017  -0.00017   2.18370
   A12        2.17945   0.00002   0.00000   0.00004   0.00004   2.17949
   A13        1.95898  -0.00009   0.00000  -0.00025  -0.00025   1.95873
   A14        2.07249   0.00005   0.00000   0.00014   0.00014   2.07263
   A15        2.25167   0.00004   0.00000   0.00012   0.00012   2.25179
   A16        1.88744  -0.00001   0.00000   0.00001   0.00001   1.88745
   A17        2.19097   0.00006   0.00000   0.00034   0.00034   2.19131
   A18        2.20469  -0.00005   0.00000  -0.00035  -0.00035   2.20434
   A19        1.99690  -0.00010   0.00000  -0.00044  -0.00044   1.99646
   A20        1.89028   0.00005   0.00000   0.00048   0.00048   1.89076
   A21        1.88239   0.00006   0.00000   0.00024   0.00024   1.88262
   A22        1.91697   0.00003   0.00000   0.00025   0.00025   1.91722
   A23        1.91574  -0.00001   0.00000  -0.00034  -0.00034   1.91540
   A24        1.85601  -0.00002   0.00000  -0.00017  -0.00017   1.85584
   A25        1.95959   0.00000   0.00000   0.00009   0.00009   1.95968
   A26        1.89784   0.00001   0.00000   0.00042   0.00042   1.89826
   A27        1.90265  -0.00002   0.00000  -0.00050  -0.00050   1.90215
   A28        1.92142   0.00003   0.00000   0.00068   0.00068   1.92210
   A29        1.92232   0.00000   0.00000  -0.00028  -0.00028   1.92204
   A30        1.85697  -0.00002   0.00000  -0.00044  -0.00044   1.85653
   A31        1.94314   0.00001   0.00000   0.00018   0.00018   1.94332
   A32        1.94373   0.00001   0.00000   0.00009   0.00009   1.94382
   A33        1.94714  -0.00012   0.00000  -0.00091  -0.00091   1.94623
   A34        1.87608   0.00002   0.00000   0.00036   0.00036   1.87644
   A35        1.87634   0.00006   0.00000   0.00034   0.00034   1.87668
   A36        1.87378   0.00004   0.00000  -0.00001  -0.00001   1.87377
   A37        2.13895  -0.00005   0.00000  -0.00033  -0.00033   2.13862
   A38        2.09165   0.00000   0.00000   0.00001   0.00001   2.09167
   A39        2.05258   0.00005   0.00000   0.00032   0.00032   2.05289
    D1       -0.01815   0.00001   0.00000   0.00039   0.00039  -0.01776
    D2        3.12669   0.00000   0.00000  -0.00008  -0.00008   3.12661
    D3       -2.13128   0.00000   0.00000   0.00009   0.00009  -2.13119
    D4        1.01356  -0.00001   0.00000  -0.00039  -0.00039   1.01318
    D5        2.09083  -0.00001   0.00000  -0.00010  -0.00010   2.09073
    D6       -1.04751  -0.00002   0.00000  -0.00057  -0.00057  -1.04809
    D7        0.00883  -0.00001   0.00000   0.00001   0.00001   0.00883
    D8        3.13677  -0.00001   0.00000  -0.00028  -0.00028   3.13650
    D9        2.10040   0.00002   0.00000   0.00044   0.00044   2.10084
   D10       -1.05484   0.00002   0.00000   0.00016   0.00016  -1.05468
   D11       -2.08098   0.00000   0.00000   0.00025   0.00025  -2.08073
   D12        1.04696  -0.00001   0.00000  -0.00003  -0.00003   1.04693
   D13        0.02140  -0.00001   0.00000  -0.00065  -0.00065   0.02075
   D14        3.10025  -0.00001   0.00000  -0.00047  -0.00047   3.09978
   D15       -3.12341   0.00000   0.00000  -0.00018  -0.00018  -3.12359
   D16       -0.04457   0.00000   0.00000   0.00000   0.00000  -0.04457
   D17       -3.12558  -0.00001   0.00000  -0.00041  -0.00041  -3.12598
   D18        0.01977   0.00001   0.00000   0.00032   0.00032   0.02009
   D19        0.01989  -0.00003   0.00000  -0.00097  -0.00097   0.01892
   D20       -3.11795  -0.00001   0.00000  -0.00025  -0.00025  -3.11820
   D21       -0.01668   0.00001   0.00000   0.00070   0.00070  -0.01598
   D22        3.13471   0.00001   0.00000   0.00020   0.00020   3.13492
   D23       -3.09572   0.00001   0.00000   0.00053   0.00053  -3.09519
   D24        0.05567   0.00000   0.00000   0.00004   0.00004   0.05571
   D25       -1.41725  -0.00002   0.00000  -0.00042  -0.00042  -1.41767
   D26        0.72713  -0.00001   0.00000  -0.00004  -0.00004   0.72710
   D27        2.72906   0.00002   0.00000   0.00013   0.00013   2.72920
   D28        1.65242  -0.00001   0.00000  -0.00022  -0.00022   1.65220
   D29       -2.48639   0.00000   0.00000   0.00017   0.00017  -2.48622
   D30       -0.48446   0.00003   0.00000   0.00034   0.00034  -0.48412
   D31        0.00395   0.00000   0.00000  -0.00041  -0.00041   0.00353
   D32       -3.12386   0.00000   0.00000  -0.00013  -0.00013  -3.12400
   D33        3.13448   0.00001   0.00000   0.00015   0.00015   3.13463
   D34        0.00667   0.00001   0.00000   0.00043   0.00043   0.00709
   D35        3.11772  -0.00001   0.00000  -0.00012  -0.00012   3.11761
   D36       -1.03497   0.00004   0.00000   0.00110   0.00110  -1.03387
   D37        0.98273   0.00000   0.00000   0.00053   0.00053   0.98327
   D38        0.98786  -0.00003   0.00000  -0.00062  -0.00062   0.98723
   D39        3.11834   0.00002   0.00000   0.00059   0.00059   3.11894
   D40       -1.14714  -0.00001   0.00000   0.00003   0.00003  -1.14711
   D41       -1.04682  -0.00002   0.00000  -0.00037  -0.00037  -1.04719
   D42        1.08366   0.00003   0.00000   0.00084   0.00084   1.08451
   D43        3.10137   0.00000   0.00000   0.00028   0.00028   3.10165
   D44        3.13981   0.00001   0.00000   0.00052   0.00052   3.14033
   D45       -1.04980   0.00004   0.00000   0.00115   0.00115  -1.04864
   D46        1.04358   0.00001   0.00000   0.00059   0.00059   1.04417
   D47        1.02279  -0.00003   0.00000  -0.00056  -0.00056   1.02223
   D48        3.11637   0.00001   0.00000   0.00008   0.00008   3.11645
   D49       -1.07344  -0.00002   0.00000  -0.00049  -0.00049  -1.07393
   D50       -1.01958  -0.00002   0.00000  -0.00025  -0.00025  -1.01984
   D51        1.07400   0.00002   0.00000   0.00038   0.00038   1.07438
   D52       -3.11581  -0.00001   0.00000  -0.00019  -0.00019  -3.11600
         Item               Value     Threshold  Converged?
 Maximum Force            0.000652     0.000450     NO 
 RMS     Force            0.000135     0.000300     YES
 Maximum Displacement     0.002125     0.001800     NO 
 RMS     Displacement     0.000657     0.001200     YES
 Predicted change in Energy=-2.835947D-06
 GradGradGradGradGradGradGradGradGradGradGradGradGradGradGradGradGradGrad

                          Input orientation:                          
 ---------------------------------------------------------------------
 Center     Atomic      Atomic             Coordinates (Angstroms)
 Number     Number       Type             X           Y           Z
 ---------------------------------------------------------------------
      1          6           0        0.778740    0.586729   -0.130680
      2          6           0       -0.409914   -0.337170    0.142213
      3          7           0       -1.469383    0.488210    0.542601
      4          6           0       -1.064540    1.829219    0.518790
      5          6           0        0.217792    1.966203    0.143676
      6          6           0       -2.807845    0.033086    0.853722
      7          6           0       -3.702040   -0.195386   -0.374994
      8          6           0       -5.092219   -0.706930    0.006474
      9          6           0       -0.438671   -1.679490    0.026138
     10          1           0        1.139508    0.470620   -1.168000
     11          1           0        1.631275    0.338009    0.526313
     12          1           0       -1.783144    2.598870    0.800016
     13          1           0        0.768242    2.899874    0.062571
     14          1           0       -2.730081   -0.900183    1.439811
     15          1           0       -3.273060    0.779780    1.519609
     16          1           0       -3.786375    0.753187   -0.934268
     17          1           0       -3.206375   -0.911956   -1.051222
     18          1           0       -5.720026   -0.864019   -0.884698
     19          1           0       -5.033198   -1.668536    0.544806
     20          1           0       -5.619818    0.006334    0.663227
     21          1           0       -1.335093   -2.266218    0.227125
     22          1           0        0.460224   -2.217234   -0.275233
 ---------------------------------------------------------------------
                    Distance matrix (angstroms):
                    1          2          3          4          5
     1  C    0.000000
     2  C    1.530020   0.000000
     3  N    2.348845   1.401441   0.000000
     4  C    2.315874   2.294251   1.400988   0.000000
     5  C    1.514227   2.387373   2.278193   1.343075   0.000000
     6  C    3.760208   2.528519   1.447555   2.525348   3.659998
     7  C    4.555084   3.335521   2.508793   3.443005   4.506282
     8  C    6.013362   4.698843   3.852367   4.787141   5.946485
     9  C    2.577291   1.347636   2.455204   3.597979   3.706189
    10  H    1.104386   2.184008   3.119740   3.090126   2.192447
    11  H    1.104679   2.183999   3.104336   3.080776   2.189832
    12  H    3.387943   3.307386   2.149324   1.089882   2.198817
    13  H    2.321227   3.445701   3.324683   2.171067   1.086883
    14  H    4.121793   2.717337   2.078937   3.327452   4.311159
    15  H    4.379247   3.367848   2.071909   2.642067   3.935332
    16  H    4.638291   3.707854   2.760400   3.267661   4.320501
    17  H    4.355984   3.094327   2.741875   3.816599   4.629957
    18  H    6.701282   5.434097   4.683340   5.558494   6.657732
    19  H    6.270656   4.827978   4.165614   5.290105   6.398838
    20  H    6.473692   5.247146   4.180056   4.908597   6.179701
    21  H    3.568700   2.141119   2.775686   4.114714   4.509080
    22  H    2.825696   2.113301   3.422230   4.396494   4.211342
                    6          7          8          9         10
     6  C    0.000000
     7  C    1.536726   0.000000
     8  C    2.546334   1.529638   0.000000
     9  C    3.038223   3.607361   4.754132   0.000000
    10  H    4.456500   4.951061   6.449839   2.922256   0.000000
    11  H    4.461609   5.435174   6.824038   2.933453   1.769214
    12  H    2.763357   3.587573   4.744260   4.550919   4.116362
    13  H    4.651107   5.454862   6.881656   4.735878   2.748349
    14  H    1.104780   2.175996   2.769747   2.802919   4.863486
    15  H    1.103350   2.173590   2.794500   4.038840   5.175864
    16  H    2.161706   1.104396   2.173054   4.248225   4.939514
    17  H    2.163503   1.102924   2.171903   3.067572   4.562000
    18  H    3.508233   2.186123   1.101365   5.421008   6.993906
    19  H    2.818358   2.188191   1.103617   4.623723   6.753664
    20  H    2.818545   2.190083   1.103826   5.485633   7.018364
    21  H    2.801504   3.202083   4.073826   1.090054   3.944655
    22  H    4.125379   4.628419   5.761075   1.089956   2.912562
                   11         12         13         14         15
    11  H    0.000000
    12  H    4.104225   0.000000
    13  H    2.742816   2.672827   0.000000
    14  H    4.624827   3.680951   5.345605   0.000000
    15  H    5.023375   2.459014   4.790603   1.767334   0.000000
    16  H    5.626420   3.229121   5.132883   3.079876   2.507132
    17  H    5.239645   4.216464   5.618555   2.536186   3.078245
    18  H    7.581388   5.507168   7.560545   3.787403   3.804000
    19  H    6.960011   5.370171   7.399975   2.587614   3.169003
    20  H    7.259965   4.632496   7.038513   3.126569   2.615126
    21  H    3.958642   4.919150   5.580287   2.298403   3.834624
    22  H    2.922858   5.420675   5.137488   3.854095   5.112823
                   16         17         18         19         20
    16  H    0.000000
    17  H    1.767139   0.000000
    18  H    2.521273   2.519618   0.000000
    19  H    3.099510   2.541063   1.778331   0.000000
    20  H    2.543873   3.099565   1.778659   1.778577   0.000000
    21  H    4.058870   2.640055   4.736027   3.759538   4.869656
    22  H    5.224110   3.968608   6.355952   5.581327   6.541549
                   21         22
    21  H    0.000000
    22  H    1.864919   0.000000
 Stoichiometry    C8H13N
 Framework group  C1[X(C8H13N)]
 Deg. of freedom    60
 Full point group                 C1      NOp   1
 Largest Abelian subgroup         C1      NOp   1
 Largest concise Abelian subgroup C1      NOp   1
                         Standard orientation:                         
 ---------------------------------------------------------------------
 Center     Atomic      Atomic             Coordinates (Angstroms)
 Number     Number       Type             X           Y           Z
 ---------------------------------------------------------------------
      1          6           0        2.471746    0.316582    0.288675
      2          6           0        1.075355    0.834466   -0.061821
      3          7           0        0.288153   -0.295055   -0.323610
      4          6           0        1.048309   -1.458143   -0.144281
      5          6           0        2.316252   -1.187382    0.206231
      6          6           0       -1.122177   -0.269939   -0.648806
      7          6           0       -2.051746   -0.140346    0.568008
      8          6           0       -3.526985   -0.084764    0.167544
      9          6           0        0.675407    2.120331   -0.113922
     10          1           0        2.780273    0.659974    1.291950
     11          1           0        3.225865    0.703706   -0.419672
     12          1           0        0.572523   -2.425404   -0.305147
     13          1           0        3.103211   -1.914938    0.386986
     14          1           0       -1.302467    0.565204   -1.349214
     15          1           0       -1.358620   -1.195063   -1.201637
     16          1           0       -1.873378   -0.995327    1.243938
     17          1           0       -1.777762    0.765792    1.133949
     18          1           0       -4.178873    0.006725    1.050538
     19          1           0       -3.733405    0.778359   -0.488488
     20          1           0       -3.832680   -0.994038   -0.378536
     21          1           0       -0.347244    2.406686   -0.359696
     22          1           0        1.388523    2.918874    0.090528
 ---------------------------------------------------------------------
 Rotational constants (GHZ):      3.1421436      1.0197873      0.8267522
 Standard basis: CC-pVDZ (5D, 7F)
 There are   191 symmetry adapted basis functions of A   symmetry.
 Integral buffers will be    131072 words long.
 Raffenetti 2 integral format.
 Two-electron integral symmetry is turned on.
   191 basis functions,   388 primitive gaussians,   200 cartesian basis functions
    34 alpha electrons       34 beta electrons
       nuclear repulsion energy       442.5279365425 Hartrees.
 NAtoms=   22 NActive=   22 NUniq=   22 SFac= 1.00D+00 NAtFMM=   50 NAOKFM=F Big=F
 One-electron integrals computed using PRISM.
 NBasis=   191 RedAO= T  NBF=   191
 NBsUse=   191 1.00D-06 NBFU=   191
 Initial guess read from the read-write file.
 B after Tr=     0.000000    0.000000    0.000000
         Rot=    1.000000    0.000000    0.000000    0.000000 Ang=   0.00 deg.
 Initial guess orbital symmetries:
       Occupied  (A) (A) (A) (A) (A) (A) (A) (A) (A) (A) (A) (A)
                 (A) (A) (A) (A) (A) (A) (A) (A) (A) (A) (A) (A)
                 (A) (A) (A) (A) (A) (A) (A) (A) (A) (A)
       Virtual   (A) (A) (A) (A) (A) (A) (A) (A) (A) (A) (A) (A)
                 (A) (A) (A) (A) (A) (A) (A) (A) (A) (A) (A) (A)
                 (A) (A) (A) (A) (A) (A) (A) (A) (A) (A) (A) (A)
                 (A) (A) (A) (A) (A) (A) (A) (A) (A) (A) (A) (A)
                 (A) (A) (A) (A) (A) (A) (A) (A) (A) (A) (A) (A)
                 (A) (A) (A) (A) (A) (A) (A) (A) (A) (A) (A) (A)
                 (A) (A) (A) (A) (A) (A) (A) (A) (A) (A) (A) (A)
                 (A) (A) (A) (A) (A) (A) (A) (A) (A) (A) (A) (A)
                 (A) (A) (A) (A) (A) (A) (A) (A) (A) (A) (A) (A)
                 (A) (A) (A) (A) (A) (A) (A) (A) (A) (A) (A) (A)
                 (A) (A) (A) (A) (A) (A) (A) (A) (A) (A) (A) (A)
                 (A) (A) (A) (A) (A) (A) (A) (A) (A) (A) (A) (A)
                 (A) (A) (A) (A) (A) (A) (A) (A) (A) (A) (A) (A)
                 (A)
 Requested convergence on RMS density matrix=1.00D-08 within 128 cycles.
 Requested convergence on MAX density matrix=1.00D-06.
 Requested convergence on             energy=1.00D-06.
 No special actions if energy rises.
 Keep R1 ints in memory in canonical form, NReq=206404496.
 SCF Done:  E(RB3LYP) =  -367.407841388     A.U. after    7 cycles
             Convg  =    0.9849D-08             -V/T =  2.0079
 Calling FoFJK, ICntrl=      2127 FMM=F ISym2X=0 I1Cent= 0 IOpClX= 0 NMat=1 NMatS=1 NMatT=0.
 ***** Axes restored to original set *****
 -------------------------------------------------------------------
 Center     Atomic                   Forces (Hartrees/Bohr)
 Number     Number              X              Y              Z
 -------------------------------------------------------------------
      1        6          -0.000116598   -0.000066006    0.000002373
      2        6           0.000166299   -0.000044958   -0.000047676
      3        7          -0.000166385    0.000070344    0.000032733
      4        6           0.000034170   -0.000123357   -0.000023750
      5        6           0.000049195    0.000024828   -0.000010841
      6        6           0.000184159    0.000033546    0.000035994
      7        6          -0.000088686   -0.000004841   -0.000032685
      8        6          -0.000040236   -0.000029433    0.000005324
      9        6          -0.000035735    0.000018345   -0.000009121
     10        1           0.000003213    0.000015786    0.000006992
     11        1           0.000002388    0.000014384    0.000004668
     12        1           0.000004782    0.000006866    0.000008005
     13        1          -0.000004611    0.000026184    0.000014902
     14        1          -0.000032015   -0.000007722   -0.000016571
     15        1          -0.000028754   -0.000009827    0.000007559
     16        1           0.000019764   -0.000012624    0.000024126
     17        1           0.000027567   -0.000000948   -0.000008789
     18        1           0.000014001    0.000013249    0.000005156
     19        1           0.000017675    0.000014234   -0.000007010
     20        1           0.000004596    0.000014735    0.000012083
     21        1          -0.000027008    0.000014658    0.000005450
     22        1           0.000012218    0.000032557   -0.000008921
 -------------------------------------------------------------------
 Cartesian Forces:  Max     0.000184159 RMS     0.000049657

 GradGradGradGradGradGradGradGradGradGradGradGradGradGradGradGradGradGrad
 Berny optimization.
 Using GEDIIS/GDIIS optimizer.
 Internal  Forces:  Max     0.000072802 RMS     0.000021432
 Search for a local minimum.
 Step number   2 out of a maximum of  123 on scan point     1 out of     7
 All quantities printed in internal units (Hartrees-Bohrs-Radians)
 Mixed Optimization -- En-DIIS/RFO-DIIS
 Swaping is turned off.
 Update second derivatives using D2CorX and points    1    2
 DE= -2.90D-06 DEPred=-2.84D-06 R= 1.02D+00
 SS=  1.41D+00  RLast= 5.23D-03 DXNew= 5.0454D-01 1.5679D-02
 Trust test= 1.02D+00 RLast= 5.23D-03 DXMaxT set to 3.00D-01
 ITU=  1  0
     Eigenvalues ---    0.00288   0.00377   0.00717   0.01057   0.01364
     Eigenvalues ---    0.01490   0.01817   0.02369   0.02780   0.02786
     Eigenvalues ---    0.03538   0.04001   0.04803   0.04975   0.05348
     Eigenvalues ---    0.05447   0.05462   0.06980   0.08217   0.08488
     Eigenvalues ---    0.09396   0.09735   0.12158   0.13094   0.15581
     Eigenvalues ---    0.15998   0.15999   0.16000   0.16000   0.16000
     Eigenvalues ---    0.16082   0.21811   0.21891   0.22235   0.24104
     Eigenvalues ---    0.24687   0.25046   0.28023   0.28919   0.29496
     Eigenvalues ---    0.30317   0.32884   0.33193   0.33209   0.33235
     Eigenvalues ---    0.33245   0.33273   0.33314   0.33479   0.33649
     Eigenvalues ---    0.34759   0.34800   0.34908   0.35890   0.38009
     Eigenvalues ---    0.42930   0.43669   0.54111   0.572441000.00000
     Eigenvalues --- 1000.000001000.000001000.000001000.000001000.00000
     Eigenvalues --- 1000.000001000.000001000.000001000.000001000.00000
     Eigenvalues --- 1000.000001000.000001000.000001000.000001000.00000
     Eigenvalues --- 1000.000001000.000001000.000001000.000001000.00000
     Eigenvalues --- 1000.000001000.000001000.000001000.000001000.00000
     Eigenvalues --- 1000.000001000.000001000.000001000.000001000.00000
     Eigenvalues --- 1000.000001000.000001000.000001000.000001000.00000
     Eigenvalues --- 1000.000001000.000001000.000001000.000001000.00000
     Eigenvalues --- 1000.000001000.000001000.000001000.000001000.00000
     Eigenvalues --- 1000.000001000.000001000.000001000.000001000.00000
     Eigenvalues --- 1000.000001000.000001000.00000
 En-DIIS/RFO-DIIS IScMMF=        0 using points:     2    1
 RFO step:  Lambda=-1.10241785D-07.
 DidBck=F Rises=F RFO-DIIS coefs:    1.03726   -0.03726
 Iteration  1 RMS(Cart)=  0.00022223 RMS(Int)=  0.00000003
 Iteration  2 RMS(Cart)=  0.00000003 RMS(Int)=  0.00000001
 Iteration  1 RMS(Cart)=  0.00000000 RMS(Int)=  0.00000000
 Variable       Old X    -DE/DX   Delta X   Delta X   Delta X     New X
                                  (DIIS)     (GDIIS)  (Total)
    R1        2.89132  -0.00007  -0.00001  -0.00024  -0.00025   2.89107
    R2        2.86147  -0.00001   0.00003  -0.00002   0.00001   2.86148
    R3        2.08699  -0.00001   0.00002  -0.00003  -0.00001   2.08698
    R4        2.08754   0.00000   0.00002   0.00001   0.00004   2.08758
    R5        2.64834   0.00005   0.00005   0.00012   0.00017   2.64851
    R6        2.54666  -0.00007   0.00002  -0.00012  -0.00010   2.54657
    R7        2.64748  -0.00006   0.00000  -0.00013  -0.00014   2.64735
    R8        2.73548  -0.00007  -0.00003  -0.00020  -0.00023   2.73525
    R9        2.53804   0.00000   0.00004   0.00001   0.00005   2.53810
   R10        2.05958   0.00000  -0.00003   0.00001  -0.00002   2.05955
   R11        2.05391   0.00002  -0.00004   0.00005   0.00001   2.05392
   R12        2.90399   0.00004   0.00004   0.00015   0.00020   2.90419
   R13        2.08773  -0.00001   0.00002  -0.00002   0.00000   2.08773
   R14        2.08503   0.00001  -0.00001   0.00003   0.00002   2.08505
   R15        2.89060   0.00000   0.00001   0.00001   0.00002   2.89062
   R16        2.08701  -0.00003  -0.00002  -0.00008  -0.00010   2.08690
   R17        2.08422   0.00002   0.00006   0.00008   0.00014   2.08436
   R18        2.08128  -0.00001   0.00000  -0.00004  -0.00003   2.08124
   R19        2.08553  -0.00001  -0.00001  -0.00005  -0.00006   2.08547
   R20        2.08593   0.00001  -0.00001   0.00003   0.00002   2.08595
   R21        2.05990   0.00002  -0.00003   0.00004   0.00001   2.05991
   R22        2.05972   0.00000  -0.00001  -0.00002  -0.00002   2.05969
    A1        1.80287   0.00002   0.00000   0.00012   0.00012   1.80299
    A2        1.93674   0.00001   0.00001   0.00015   0.00017   1.93690
    A3        1.93642   0.00000   0.00000   0.00003   0.00003   1.93645
    A4        1.96815  -0.00001   0.00000  -0.00007  -0.00006   1.96808
    A5        1.96411  -0.00002  -0.00002  -0.00023  -0.00025   1.96386
    A6        1.85755   0.00000   0.00000   0.00000   0.00000   1.85756
    A7        1.85734   0.00001   0.00000   0.00003   0.00003   1.85737
    A8        2.21765   0.00005  -0.00001   0.00021   0.00020   2.21785
    A9        2.20819  -0.00006   0.00001  -0.00024  -0.00023   2.20796
   A10        1.91816  -0.00004   0.00001  -0.00016  -0.00015   1.91801
   A11        2.18370  -0.00002  -0.00001  -0.00006  -0.00007   2.18363
   A12        2.17949   0.00005   0.00000   0.00022   0.00022   2.17970
   A13        1.95873   0.00005  -0.00001   0.00020   0.00019   1.95891
   A14        2.07263  -0.00001   0.00001  -0.00005  -0.00004   2.07258
   A15        2.25179  -0.00003   0.00000  -0.00015  -0.00015   2.25164
   A16        1.88745  -0.00004   0.00000  -0.00019  -0.00019   1.88726
   A17        2.19131   0.00004   0.00001   0.00024   0.00025   2.19156
   A18        2.20434   0.00000  -0.00001  -0.00005  -0.00007   2.20427
   A19        1.99646  -0.00001  -0.00002  -0.00001  -0.00002   1.99644
   A20        1.89076   0.00003   0.00002   0.00024   0.00026   1.89102
   A21        1.88262   0.00002   0.00001   0.00028   0.00029   1.88291
   A22        1.91722  -0.00003   0.00001  -0.00030  -0.00029   1.91693
   A23        1.91540  -0.00001  -0.00001  -0.00015  -0.00016   1.91524
   A24        1.85584   0.00000  -0.00001  -0.00006  -0.00007   1.85578
   A25        1.95968   0.00001   0.00000   0.00003   0.00004   1.95971
   A26        1.89826  -0.00001   0.00002  -0.00018  -0.00017   1.89809
   A27        1.90215  -0.00001  -0.00002  -0.00015  -0.00017   1.90198
   A28        1.92210   0.00001   0.00003   0.00013   0.00016   1.92226
   A29        1.92204   0.00001  -0.00001   0.00019   0.00018   1.92222
   A30        1.85653   0.00000  -0.00002  -0.00003  -0.00005   1.85648
   A31        1.94332  -0.00001   0.00001  -0.00007  -0.00006   1.94326
   A32        1.94382  -0.00002   0.00000  -0.00014  -0.00014   1.94368
   A33        1.94623  -0.00001  -0.00003  -0.00007  -0.00011   1.94612
   A34        1.87644   0.00002   0.00001   0.00013   0.00014   1.87658
   A35        1.87668   0.00001   0.00001   0.00009   0.00010   1.87678
   A36        1.87377   0.00002   0.00000   0.00009   0.00009   1.87386
   A37        2.13862  -0.00002  -0.00001  -0.00010  -0.00011   2.13851
   A38        2.09167  -0.00003   0.00000  -0.00018  -0.00018   2.09148
   A39        2.05289   0.00004   0.00001   0.00028   0.00030   2.05319
    D1       -0.01776   0.00000   0.00001  -0.00023  -0.00022  -0.01797
    D2        3.12661   0.00000   0.00000  -0.00003  -0.00004   3.12657
    D3       -2.13119   0.00000   0.00000  -0.00030  -0.00029  -2.13148
    D4        1.01318   0.00000  -0.00001  -0.00010  -0.00011   1.01306
    D5        2.09073  -0.00001   0.00000  -0.00042  -0.00042   2.09031
    D6       -1.04809  -0.00001  -0.00002  -0.00022  -0.00024  -1.04833
    D7        0.00883   0.00000   0.00000   0.00011   0.00011   0.00894
    D8        3.13650   0.00000  -0.00001  -0.00012  -0.00013   3.13637
    D9        2.10084   0.00001   0.00002   0.00033   0.00035   2.10119
   D10       -1.05468   0.00001   0.00001   0.00010   0.00011  -1.05457
   D11       -2.08073  -0.00001   0.00001   0.00012   0.00013  -2.08061
   D12        1.04693  -0.00001   0.00000  -0.00011  -0.00011   1.04682
   D13        0.02075   0.00000  -0.00002   0.00027   0.00025   0.02100
   D14        3.09978   0.00001  -0.00002   0.00019   0.00018   3.09996
   D15       -3.12359   0.00000  -0.00001   0.00008   0.00007  -3.12352
   D16       -0.04457   0.00001   0.00000   0.00000   0.00000  -0.04457
   D17       -3.12598   0.00000  -0.00002  -0.00025  -0.00026  -3.12625
   D18        0.02009   0.00000   0.00001  -0.00005  -0.00004   0.02004
   D19        0.01892   0.00000  -0.00004  -0.00002  -0.00005   0.01886
   D20       -3.11820   0.00000  -0.00001   0.00018   0.00017  -3.11803
   D21       -0.01598   0.00000   0.00003  -0.00021  -0.00019  -0.01617
   D22        3.13492   0.00000   0.00001  -0.00004  -0.00003   3.13488
   D23       -3.09519  -0.00001   0.00002  -0.00012  -0.00010  -3.09530
   D24        0.05571   0.00000   0.00000   0.00005   0.00005   0.05576
   D25       -1.41767   0.00000  -0.00002   0.00013   0.00012  -1.41755
   D26        0.72710  -0.00002   0.00000  -0.00008  -0.00008   0.72701
   D27        2.72920   0.00001   0.00000   0.00012   0.00012   2.72932
   D28        1.65220   0.00001  -0.00001   0.00003   0.00002   1.65222
   D29       -2.48622  -0.00001   0.00001  -0.00019  -0.00018  -2.48640
   D30       -0.48412   0.00001   0.00001   0.00001   0.00002  -0.48409
   D31        0.00353   0.00000  -0.00002   0.00005   0.00004   0.00357
   D32       -3.12400   0.00001   0.00000   0.00028   0.00028  -3.12372
   D33        3.13463   0.00000   0.00001  -0.00014  -0.00013   3.13449
   D34        0.00709   0.00000   0.00002   0.00009   0.00010   0.00720
   D35        3.11761   0.00000   0.00000   0.00003   0.00002   3.11763
   D36       -1.03387   0.00001   0.00004   0.00009   0.00013  -1.03374
   D37        0.98327  -0.00001   0.00002  -0.00013  -0.00011   0.98316
   D38        0.98723  -0.00001  -0.00002  -0.00005  -0.00008   0.98716
   D39        3.11894   0.00000   0.00002   0.00001   0.00003   3.11897
   D40       -1.14711  -0.00002   0.00000  -0.00021  -0.00021  -1.14731
   D41       -1.04719   0.00001  -0.00001   0.00028   0.00027  -1.04693
   D42        1.08451   0.00002   0.00003   0.00035   0.00038   1.08489
   D43        3.10165   0.00000   0.00001   0.00013   0.00014   3.10178
   D44        3.14033   0.00000   0.00002  -0.00011  -0.00009   3.14024
   D45       -1.04864   0.00000   0.00004  -0.00009  -0.00004  -1.04869
   D46        1.04417   0.00000   0.00002  -0.00012  -0.00010   1.04407
   D47        1.02223   0.00001  -0.00002   0.00001  -0.00001   1.02222
   D48        3.11645   0.00001   0.00000   0.00003   0.00003   3.11648
   D49       -1.07393   0.00001  -0.00002  -0.00001  -0.00002  -1.07396
   D50       -1.01984  -0.00001  -0.00001  -0.00014  -0.00015  -1.01999
   D51        1.07438  -0.00001   0.00001  -0.00012  -0.00011   1.07427
   D52       -3.11600  -0.00001  -0.00001  -0.00016  -0.00017  -3.11616
         Item               Value     Threshold  Converged?
 Maximum Force            0.000073     0.000450     YES
 RMS     Force            0.000022     0.000300     YES
 Maximum Displacement     0.000992     0.001800     YES
 RMS     Displacement     0.000222     0.001200     YES
 Predicted change in Energy=-1.309212D-07
 Optimization completed.
    -- Stationary point found.
                           ----------------------------
                           !   Optimized Parameters   !
                           ! (Angstroms and Degrees)  !
 --------------------------                            --------------------------
 ! Name  Definition              Value          Derivative Info.                !
 --------------------------------------------------------------------------------
 ! R1    R(1,2)                  1.53           -DE/DX =   -0.0001              !
 ! R2    R(1,5)                  1.5142         -DE/DX =    0.0                 !
 ! R3    R(1,10)                 1.1044         -DE/DX =    0.0                 !
 ! R4    R(1,11)                 1.1047         -DE/DX =    0.0                 !
 ! R5    R(2,3)                  1.4014         -DE/DX =    0.0                 !
 ! R6    R(2,9)                  1.3476         -DE/DX =   -0.0001              !
 ! R7    R(3,4)                  1.401          -DE/DX =   -0.0001              !
 ! R8    R(3,6)                  1.4476         -DE/DX =   -0.0001              !
 ! R9    R(4,5)                  1.3431         -DE/DX =    0.0                 !
 ! R10   R(4,12)                 1.0899         -DE/DX =    0.0                 !
 ! R11   R(5,13)                 1.0869         -DE/DX =    0.0                 !
 ! R12   R(6,7)                  1.5367         -DE/DX =    0.0                 !
 ! R13   R(6,14)                 1.1048         -DE/DX =    0.0                 !
 ! R14   R(6,15)                 1.1034         -DE/DX =    0.0                 !
 ! R15   R(7,8)                  1.5296         -DE/DX =    0.0                 !
 ! R16   R(7,16)                 1.1044         -DE/DX =    0.0                 !
 ! R17   R(7,17)                 1.1029         -DE/DX =    0.0                 !
 ! R18   R(8,18)                 1.1014         -DE/DX =    0.0                 !
 ! R19   R(8,19)                 1.1036         -DE/DX =    0.0                 !
 ! R20   R(8,20)                 1.1038         -DE/DX =    0.0                 !
 ! R21   R(9,21)                 1.0901         -DE/DX =    0.0                 !
 ! R22   R(9,22)                 1.09           -DE/DX =    0.0                 !
 ! A1    A(2,1,5)              103.2968         -DE/DX =    0.0                 !
 ! A2    A(2,1,10)             110.9668         -DE/DX =    0.0                 !
 ! A3    A(2,1,11)             110.9485         -DE/DX =    0.0                 !
 ! A4    A(5,1,10)             112.7665         -DE/DX =    0.0                 !
 ! A5    A(5,1,11)             112.5354         -DE/DX =    0.0                 !
 ! A6    A(10,1,11)            106.43           -DE/DX =    0.0                 !
[...]
    19  H    5.525748   4.756661   4.220391   5.032894   5.740714
    20  H    5.616137   5.099558   4.202241   4.555239   5.365000
    21  H    3.528574   2.117688   2.694431   3.932010   4.321247
    22  H    2.815006   2.116177   3.437732   4.289045   4.077434
                    6          7          8          9         10
     6  C    0.000000
     7  C    1.534603   0.000000
     8  C    2.539838   1.530706   0.000000
     9  C    3.347663   4.054037   5.338988   0.000000
    10  H    3.675427   3.277377   4.704783   3.178591   0.000000
    11  H    4.435244   4.588800   6.100386   2.721277   1.775626
    12  H    2.782825   3.520196   4.649904   4.421302   4.008628
    13  H    4.337877   4.426040   5.827163   4.554684   2.774581
    14  H    1.103387   2.167763   2.781649   3.236353   4.297795
    15  H    1.104351   2.172269   2.755921   4.263163   4.532179
    16  H    2.169330   1.103547   2.170230   4.526909   3.017681
    17  H    2.163713   1.104191   2.167156   3.611994   2.737786
    18  H    3.503340   2.187450   1.101604   6.024404   4.919628
    19  H    2.805902   2.189924   1.103477   5.324847   5.247655
    20  H    2.815044   2.189315   1.103624   5.989831   5.399530
    21  H    3.392755   4.361500   5.463345   1.092172   4.168528
    22  H    4.333582   4.822386   6.110366   1.091974   3.312753
                   11         12         13         14         15
    11  H    0.000000
    12  H    4.202091   0.000000
    13  H    2.713822   2.648008   0.000000
    14  H    4.946455   3.738526   5.288139   0.000000
    15  H    5.229044   2.515038   4.628728   1.765556   0.000000
    16  H    4.417147   3.118086   3.719878   3.079600   2.542652
    17  H    4.148207   4.190930   4.573189   2.500375   3.079308
    18  H    6.498897   5.395028   6.213345   3.789495   3.777535
    19  H    6.531191   5.308147   6.601956   2.593946   3.103549
    20  H    6.707828   4.510452   6.041576   3.163443   2.575954
    21  H    3.770274   4.726001   5.355483   2.984469   4.195749
    22  H    2.615669   5.303879   4.964705   4.220850   5.297437
                   16         17         18         19         20
    16  H    0.000000
    17  H    1.771097   0.000000
    18  H    2.519111   2.512549   0.000000
    19  H    3.097850   2.537536   1.778645   0.000000
    20  H    2.537564   3.095430   1.778609   1.778593   0.000000
    21  H    4.999041   4.052439   6.267740   5.273587   6.039389
    22  H    5.240378   4.192364   6.674797   6.086415   6.856694
                   21         22
    21  H    0.000000
    22  H    1.873582   0.000000
 Stoichiometry    C8H13N
 Framework group  C1[X(C8H13N)]
 Deg. of freedom    60
 Full point group                 C1      NOp   1
 Largest Abelian subgroup         C1      NOp   1
 Largest concise Abelian subgroup C1      NOp   1
                         Standard orientation:                         
 ---------------------------------------------------------------------
 Center     Atomic      Atomic             Coordinates (Angstroms)
 Number     Number       Type             X           Y           Z
 ---------------------------------------------------------------------
      1          6           0        1.711389   -0.360682    1.044281
      2          6           0        1.187162    0.723531    0.109336
      3          7           0        0.368529    0.111729   -0.924760
      4          6           0        0.723766   -1.272651   -0.857311
      5          6           0        1.499092   -1.592710    0.187942
      6          6           0       -1.098896    0.302022   -0.818894
      7          6           0       -1.755175   -0.091195    0.511401
      8          6           0       -3.274324    0.093011    0.475171
      9          6           0        1.706364    1.948866   -0.028154
     10          1           0        1.146323   -0.437456    1.995521
     11          1           0        2.762799   -0.171842    1.310463
     12          1           0        0.338788   -1.937184   -1.633226
     13          1           0        1.902603   -2.580982    0.404408
     14          1           0       -1.313161    1.362701   -1.034564
     15          1           0       -1.550857   -0.277499   -1.643198
     16          1           0       -1.509909   -1.140790    0.748063
     17          1           0       -1.326459    0.524921    1.321242
     18          1           0       -3.734849   -0.181505    1.437506
     19          1           0       -3.548737    1.140369    0.262095
     20          1           0       -3.737308   -0.534574   -0.305706
     21          1           0        1.395549    2.601532   -0.846848
     22          1           0        2.399244    2.349050    0.714934
 ---------------------------------------------------------------------
 Rotational constants (GHZ):      2.5330865      1.1538235      1.0016213

 **********************************************************************

            Population analysis using the SCF density.

 **********************************************************************

 Orbital symmetries:
       Occupied  (A) (A) (A) (A) (A) (A) (A) (A) (A) (A) (A) (A)
                 (A) (A) (A) (A) (A) (A) (A) (A) (A) (A) (A) (A)
                 (A) (A) (A) (A) (A) (A) (A) (A) (A) (A)
       Virtual   (A) (A) (A) (A) (A) (A) (A) (A) (A) (A) (A) (A)
                 (A) (A) (A) (A) (A) (A) (A) (A) (A) (A) (A) (A)
                 (A) (A) (A) (A) (A) (A) (A) (A) (A) (A) (A) (A)
                 (A) (A) (A) (A) (A) (A) (A) (A) (A) (A) (A) (A)
                 (A) (A) (A) (A) (A) (A) (A) (A) (A) (A) (A) (A)
                 (A) (A) (A) (A) (A) (A) (A) (A) (A) (A) (A) (A)
                 (A) (A) (A) (A) (A) (A) (A) (A) (A) (A) (A) (A)
                 (A) (A) (A) (A) (A) (A) (A) (A) (A) (A) (A) (A)
                 (A) (A) (A) (A) (A) (A) (A) (A) (A) (A) (A) (A)
                 (A) (A) (A) (A) (A) (A) (A) (A) (A) (A) (A) (A)
                 (A) (A) (A) (A) (A) (A) (A) (A) (A) (A) (A) (A)
                 (A) (A) (A) (A) (A) (A) (A) (A) (A) (A) (A) (A)
                 (A) (A) (A) (A) (A) (A) (A) (A) (A) (A) (A) (A)
                 (A)
 The electronic state is 1-A.
 Alpha  occ. eigenvalues --  -14.33423 -10.21552 -10.21404 -10.20717 -10.19276
 Alpha  occ. eigenvalues --  -10.18365 -10.18237 -10.17749 -10.17207  -0.94780
 Alpha  occ. eigenvalues --   -0.79957  -0.76046  -0.75432  -0.67739  -0.65010
 Alpha  occ. eigenvalues --   -0.59698  -0.56662  -0.52111  -0.48978  -0.46455
 Alpha  occ. eigenvalues --   -0.45414  -0.44021  -0.42140  -0.40737  -0.39674
 Alpha  occ. eigenvalues --   -0.38238  -0.36897  -0.36504  -0.35065  -0.34545
 Alpha  occ. eigenvalues --   -0.32828  -0.29218  -0.25951  -0.19630
 Alpha virt. eigenvalues --    0.00857   0.02611   0.06279   0.07531   0.08394
 Alpha virt. eigenvalues --    0.08943   0.10981   0.11336   0.12745   0.13100
 Alpha virt. eigenvalues --    0.13991   0.14734   0.15223   0.16269   0.17739
 Alpha virt. eigenvalues --    0.19376   0.19629   0.22282   0.23923   0.24755
 Alpha virt. eigenvalues --    0.27803   0.32851   0.33414   0.37748   0.40784
 Alpha virt. eigenvalues --    0.41140   0.41608   0.43388   0.44463   0.46026
 Alpha virt. eigenvalues --    0.47388   0.50440   0.51509   0.52407   0.53047
 Alpha virt. eigenvalues --    0.53729   0.56259   0.58419   0.59282   0.59978
 Alpha virt. eigenvalues --    0.61422   0.62330   0.63209   0.64222   0.64789
 Alpha virt. eigenvalues --    0.65363   0.65714   0.66759   0.67404   0.67810
 Alpha virt. eigenvalues --    0.69315   0.70095   0.70359   0.71545   0.72008
 Alpha virt. eigenvalues --    0.74032   0.77151   0.77862   0.81275   0.83378
 Alpha virt. eigenvalues --    0.85582   0.86902   0.89492   0.92566   0.95501
 Alpha virt. eigenvalues --    0.99040   0.99414   1.02745   1.06390   1.07979
 Alpha virt. eigenvalues --    1.11774   1.13169   1.16957   1.18046   1.20348
 Alpha virt. eigenvalues --    1.20899   1.23363   1.26997   1.28908   1.31667
 Alpha virt. eigenvalues --    1.34081   1.36794   1.39222   1.41400   1.42137
 Alpha virt. eigenvalues --    1.45899   1.47615   1.50053   1.52666   1.54737
 Alpha virt. eigenvalues --    1.55720   1.56042   1.58993   1.60732   1.61166
 Alpha virt. eigenvalues --    1.62446   1.63633   1.64591   1.65742   1.66551
 Alpha virt. eigenvalues --    1.67566   1.68192   1.68459   1.68906   1.70545
 Alpha virt. eigenvalues --    1.71645   1.71785   1.73021   1.75384   1.78077
 Alpha virt. eigenvalues --    1.78241   1.80123   1.82679   1.83801   1.84622
 Alpha virt. eigenvalues --    1.86361   1.89014   1.90836   1.91460   1.96008
 Alpha virt. eigenvalues --    1.96837   1.99149   2.00459   2.04031   2.06890
 Alpha virt. eigenvalues --    2.07576   2.08139   2.14017   2.14961   2.16540
 Alpha virt. eigenvalues --    2.17591   2.20771   2.22364   2.24817   2.26288
 Alpha virt. eigenvalues --    2.27781   2.30680   2.32363   2.37786   2.39801
 Alpha virt. eigenvalues --    2.40209   2.43481   2.45236   2.48031   2.51612
 Alpha virt. eigenvalues --    2.53036   2.53981   2.55472   2.60247   2.63842
 Alpha virt. eigenvalues --    2.66535   2.69770   2.72107   2.74959   2.81951
 Alpha virt. eigenvalues --    2.94481   3.13355
          Condensed to atoms (all electrons):
              1          2          3          4          5          6
     1  C    4.664260   0.386758  -0.085324  -0.044810   0.373809   0.004173
     2  C    0.386758   4.796515   0.344921  -0.086953  -0.040991  -0.062451
     3  N   -0.085324   0.344921   6.426017   0.376459  -0.048911   0.381628
     4  C   -0.044810  -0.086953   0.376459   4.735233   0.615640  -0.067721
     5  C    0.373809  -0.040991  -0.048911   0.615640   4.874025  -0.000344
     6  C    0.004173  -0.062451   0.381628  -0.067721  -0.000344   4.580329
     7  C    0.000266  -0.009182  -0.049189  -0.009024  -0.000798   0.426244
     8  C    0.000026  -0.000222   0.003864  -0.000050  -0.000145  -0.033082
     9  C   -0.060256   0.729059  -0.043652   0.002835   0.003834  -0.004308
    10  H    0.335601  -0.008424   0.004071  -0.003949  -0.027803   0.001415
    11  H    0.360250  -0.011017   0.004121   0.001167  -0.014577  -0.000249
    12  H    0.010446   0.003239  -0.036078   0.397242  -0.052199  -0.000094
    13  H   -0.043808   0.005557   0.005420  -0.034534   0.391299  -0.000133
    14  H    0.000063   0.001987  -0.023310   0.007228  -0.000859   0.368091
    15  H   -0.000891   0.006682  -0.020335  -0.004891   0.000516   0.368248
    16  H    0.000912  -0.001790  -0.005912   0.013675   0.000647  -0.026687
    17  H   -0.003273   0.011641  -0.004450  -0.001783   0.001139  -0.025002
    18  H   -0.000003  -0.000003  -0.000195  -0.000006   0.000026   0.003989
    19  H    0.000004  -0.000016   0.000162   0.000019  -0.000020  -0.003714
    20  H   -0.000009   0.000047   0.000128   0.000012   0.000004  -0.004234
    21  H    0.010774   0.016680  -0.003998   0.000132  -0.000646  -0.000730
    22  H   -0.015134   0.006211   0.005634  -0.000435   0.000462  -0.000021
              7          8          9         10         11         12
     1  C    0.000266   0.000026  -0.060256   0.335601   0.360250   0.010446
     2  C   -0.009182  -0.000222   0.729059  -0.008424  -0.011017   0.003239
     3  N   -0.049189   0.003864  -0.043652   0.004071   0.004121  -0.036078
     4  C   -0.009024  -0.000050   0.002835  -0.003949   0.001167   0.397242
     5  C   -0.000798  -0.000145   0.003834  -0.027803  -0.014577  -0.052199
     6  C    0.426244  -0.033082  -0.004308   0.001415  -0.000249  -0.000094
     7  C    4.654090   0.435735   0.000383   0.002496  -0.000042  -0.001493
     8  C    0.435735   4.507976  -0.000100   0.000076   0.000000  -0.000019
     9  C    0.000383  -0.000100   4.644038   0.001068  -0.009705  -0.000598
    10  H    0.002496   0.000076   0.001068   0.708334  -0.041110  -0.000118
    11  H   -0.000042   0.000000  -0.009705  -0.041110   0.681740  -0.000236
    12  H   -0.001493  -0.000019  -0.000598  -0.000118  -0.000236   0.701454
    13  H   -0.000025   0.000007  -0.000169   0.001540  -0.001308  -0.007997
    14  H   -0.038519  -0.002987  -0.000389  -0.000016   0.000028   0.000128
    15  H   -0.037517  -0.003631  -0.000091  -0.000043   0.000037   0.003001
    16  H    0.372438  -0.024849   0.000106  -0.000615   0.000078   0.001030
    17  H    0.369236  -0.024244   0.002341  -0.000080   0.000155  -0.000127
    18  H   -0.008266   0.375649   0.000005  -0.000024   0.000000  -0.000003
    19  H   -0.027087   0.389097  -0.000011   0.000013   0.000000   0.000008
    20  H   -0.025928   0.387913  -0.000001   0.000007   0.000000  -0.000020
    21  H    0.000559  -0.000018   0.337766  -0.000489   0.000050  -0.000045
    22  H    0.000054   0.000000   0.354130  -0.000183   0.004247   0.000016
             13         14         15         16         17         18
     1  C   -0.043808   0.000063  -0.000891   0.000912  -0.003273  -0.000003
     2  C    0.005557   0.001987   0.006682  -0.001790   0.011641  -0.000003
     3  N    0.005420  -0.023310  -0.020335  -0.005912  -0.004450  -0.000195
     4  C   -0.034534   0.007228  -0.004891   0.013675  -0.001783  -0.000006
     5  C    0.391299  -0.000859   0.000516   0.000647   0.001139   0.000026
     6  C   -0.000133   0.368091   0.368248  -0.026687  -0.025002   0.003989
     7  C   -0.000025  -0.038519  -0.037517   0.372438   0.369236  -0.008266
     8  C    0.000007  -0.002987  -0.003631  -0.024849  -0.024244   0.375649
     9  C   -0.000169  -0.000389  -0.000091   0.000106   0.002341   0.000005
    10  H    0.001540  -0.000016  -0.000043  -0.000615  -0.000080  -0.000024
    11  H   -0.001308   0.000028   0.000037   0.000078   0.000155   0.000000
    12  H   -0.007997   0.000128   0.003001   0.001030  -0.000127  -0.000003
    13  H    0.716129   0.000029  -0.000012   0.000013  -0.000016   0.000000
    14  H    0.000029   0.710567  -0.035189   0.009842  -0.011606  -0.000222
    15  H   -0.000012  -0.035189   0.712747  -0.010276   0.010083  -0.000157
    16  H    0.000013   0.009842  -0.010276   0.704983  -0.043574  -0.004315
    17  H   -0.000016  -0.011606   0.010083  -0.043574   0.703784  -0.004831
    18  H    0.000000  -0.000222  -0.000157  -0.004315  -0.004831   0.683758
    19  H    0.000000   0.007404  -0.001682   0.008389  -0.008827  -0.030660
    20  H    0.000000  -0.001616   0.007551  -0.008661   0.008451  -0.030442
    21  H    0.000010   0.001058  -0.000327   0.000014  -0.000002   0.000000
    22  H   -0.000022  -0.000267   0.000031  -0.000001   0.000100   0.000000
             19         20         21         22
     1  C    0.000004  -0.000009   0.010774  -0.015134
     2  C   -0.000016   0.000047   0.016680   0.006211
     3  N    0.000162   0.000128  -0.003998   0.005634
     4  C    0.000019   0.000012   0.000132  -0.000435
     5  C   -0.000020   0.000004  -0.000646   0.000462
     6  C   -0.003714  -0.004234  -0.000730  -0.000021
     7  C   -0.027087  -0.025928   0.000559   0.000054
     8  C    0.389097   0.387913  -0.000018   0.000000
     9  C   -0.000011  -0.000001   0.337766   0.354130
    10  H    0.000013   0.000007  -0.000489  -0.000183
    11  H    0.000000   0.000000   0.000050   0.004247
    12  H    0.000008  -0.000020  -0.000045   0.000016
    13  H    0.000000   0.000000   0.000010  -0.000022
    14  H    0.007404  -0.001616   0.001058  -0.000267
    15  H   -0.001682   0.007551  -0.000327   0.000031
    16  H    0.008389  -0.008661   0.000014  -0.000001
    17  H   -0.008827   0.008451  -0.000002   0.000100
    18  H   -0.030660  -0.030442   0.000000   0.000000
    19  H    0.680644  -0.032528  -0.000005   0.000000
    20  H   -0.032528   0.681818   0.000000   0.000000
    21  H   -0.000005   0.000000   0.692211  -0.054465
    22  H    0.000000   0.000000  -0.054465   0.698549
 Mulliken atomic charges:
              1
     1  C    0.106164
     2  C   -0.088247
     3  N   -0.231071
     4  C    0.104514
     5  C   -0.074105
     6  C    0.094652
     7  C   -0.054431
     8  C   -0.010997
     9  C    0.043715
    10  H    0.028233
    11  H    0.026373
    12  H   -0.017537
    13  H   -0.031980
    14  H    0.008553
    15  H    0.006146
    16  H    0.014553
    17  H    0.020882
    18  H    0.015700
    19  H    0.018811
    20  H    0.017509
    21  H    0.001470
    22  H    0.001094
 Sum of Mulliken atomic charges =   0.00000
 Mulliken charges with hydrogens summed into heavy atoms:
              1
     1  C    0.160770
     2  C   -0.088247
     3  N   -0.231071
     4  C    0.086976
     5  C   -0.106085
     6  C    0.109352
     7  C   -0.018996
     8  C    0.041023
     9  C    0.046279
 Sum of Mulliken charges with hydrogens summed into heavy atoms =   0.00000
 Electronic spatial extent (au):  <R**2>=           1349.0813
 Charge=              0.0000 electrons
 Dipole moment (field-independent basis, Debye):
    X=             -0.7718    Y=             -0.5130    Z=              0.6617  Tot=              1.1388
 Quadrupole moment (field-independent basis, Debye-Ang):
   XX=            -56.2213   YY=            -54.8921   ZZ=            -56.5641
   XY=             -0.2120   XZ=              2.9951   YZ=              0.6820
 Traceless Quadrupole moment (field-independent basis, Debye-Ang):
   XX=             -0.3288   YY=              1.0004   ZZ=             -0.6716
   XY=             -0.2120   XZ=              2.9951   YZ=              0.6820
 Octapole moment (field-independent basis, Debye-Ang**2):
  XXX=             -0.5484  YYY=             -1.8906  ZZZ=              0.5731  XYY=              2.4849
  XXY=              0.3963  XXZ=              5.6446  XZZ=             -2.5215  YZZ=             -2.5510
  YYZ=             -3.9990  XYZ=             -0.2776
 Hexadecapole moment (field-independent basis, Debye-Ang**3):
 XXXX=          -1175.9981 YYYY=           -443.7583 ZZZZ=           -263.6731 XXXY=              3.8703
 XXXZ=             16.7998 YYYX=             -4.7033 YYYZ=             -3.0058 ZZZX=              2.6578
 ZZZY=              4.1573 XXYY=           -261.6504 XXZZ=           -234.7768 YYZZ=           -115.6325
 XXYZ=              0.9818 YYXZ=              4.3999 ZZXY=              2.3134
 N-N= 4.483949950586D+02 E-N=-1.747772531701D+03  KE= 3.645292074538D+02
 1\1\GINC-NODE109\Scan\RB3LYP\CC-pVDZ\C8H13N1\CHS2057\23-Mar-2015\0\\# 
 opt=modredundant B3LYP/cc-pVDZ Geom=PrintInputOrient\\PRL Dihedral Sca
 n at MP2/6-31G*\\0,1\C,0.0852029217,0.4558428759,-0.6754710561\C,-0.44
 83334446,-0.5364298212,0.3517525142\N,-1.3908473138,0.1395419278,1.228
 4188493\C,-1.1197020579,1.5265996846,1.0052508458\C,-0.2784330267,1.76
 76716383,-0.0097730377\C,-2.8284854575,-0.1711467423,1.0349678338\C,-3
 .3904103444,-0.0003418969,-0.382802328\C,-4.8921981329,-0.2907610394,-
 0.4406883278\C,0.1337083944,-1.6923106712,0.6909974725\H,-0.3988623146
 ,0.3686977455,-1.6695219361\H,1.1656135023,0.3132716995,-0.8315531163\
 H,-1.6120066479,2.2540662476,1.6535440261\H,0.0787926204,2.7475606616,
 -0.3237293587\H,-2.9928976615,-1.2086961154,1.3724920601\H,-3.38619016
 48,0.4734217992,1.7371697462\H,-3.1926516987,1.025875247,-0.7371818723
 \H,-2.8547493136,-0.6809912183,-1.0676545693\H,-5.2839193236,-0.175972
 0075,-1.4638740563\H,-5.1170287706,-1.3199328585,-0.1121788107\H,-5.46
 014113,0.3949996495,0.2113533687\H,-0.2049560181,-2.2567001133,1.56255
 36163\H,0.9124957884,-2.1312667805,0.063928136\\Version=EM64L-G09RevB.
 01\State=1-A\HF=-367.4078414,-367.4074471,-367.4059019,-367.4030857,-3
 67.3992976,-367.3946982,-367.3892057\RMSD=9.849e-09,9.930e-09,4.585e-0
 9,4.633e-09,5.788e-09,5.143e-09,3.446e-09\PG=C01 [X(C8H13N1)]\\@


 DO YOU KNOW THAT THE LETTERS IN "EPISCOPAL", WHEN
 REARRANGED, SPELL "PEPSI COLA"?
 Job cpu time:  0 days  1 hours 40 minutes 37.6 seconds.
 File lengths (MBytes):  RWF=     94 Int=      0 D2E=      0 Chk=      5 Scr=      2
 Normal termination of Gaussian 09 at Mon Mar 23 15:49:56 2015.
