    -----------------------------------------------------------------------
          Psi4: An Open-Source Ab Initio Electronic Structure Package
                              Psi4 1.0.0 Driver

                          Git: Rev {master} 6a9a71b 

    J. M. Turney, A. C. Simmonett, R. M. Parrish, E. G. Hohenstein,
    F. A. Evangelista, J. T. Fermann, B. J. Mintz, L. A. Burns, J. J. Wilke,
    M. L. Abrams, N. J. Russ, M. L. Leininger, C. L. Janssen, E. T. Seidl,
    W. D. Allen, H. F. Schaefer, R. A. King, E. F. Valeev, C. D. Sherrill,
    and T. D. Crawford, WIREs Comput. Mol. Sci. 2, 556-565 (2012)
    (doi: 10.1002/wcms.93)

                         Additional Contributions by
    A. E. DePrince, U. Bozkaya, A. Yu. Sokolov, D. G. A. Smith, R. Di Remigio,
    R. M. Richard, J. F. Gonthier, H. R. McAlexander, M. Saitow, and
    B. P. Pritchard
    -----------------------------------------------------------------------


    Psi4 started on: Tue Feb 21 18:15:42 2017

    Process ID:  36400
    PSI4DATADIR: /Users/sternc1/anaconda/share/psi4
    Memory level set to 256.000 MB

  ==> Input File <==

--------------------------------------------------------------------------

memory 1000 mb

molecule butane {
  symmetry C1
  0 1 
  H      1.604   0.760   -8.260
  H      1.745   2.388   -8.880
  H      2.043   1.024   -9.930
  C      2.142   1.395   -8.932
  H      4.169   2.051   -9.210
  H      3.731   1.788   -7.539
  C      3.631   1.416   -8.537
  H      3.492   -0.656   -9.084
  H      5.109   -0.004   -9.180
  C      4.203   -0.012   -8.612
  H      4.892   -1.516   -7.242
  H      3.589   -0.533   -6.621
  H      5.206   0.120   -6.717
  C      4.495   -0.524   -7.190
  units Angstrom
}

dih_string = "4 7 10 14 250"
set optking fixed_dihedral = $dih_string

optimize('B3LYP/cc-PVDZ')
--------------------------------------------------------------------------

  Memory set to 1000.000 MiB by Python script.
gradient() will perform analytic gradient computation.

*** tstart() called on lski1497
*** at Tue Feb 21 18:15:44 2017


         ---------------------------------------------------------
                                   SCF
            by Justin Turney, Rob Parrish, and Andy Simmonett
                              RKS Reference
                        1 Threads,   1000 MiB Core
         ---------------------------------------------------------

  ==> Geometry <==

    Molecular point group: c1
    Full point group: C1

    Geometry (in Angstrom), charge = 0, multiplicity = 1:

       Center              X                  Y                   Z               Mass       
    ------------   -----------------  -----------------  -----------------  -----------------
           H         -2.003381652928     0.195857190205     0.048821942145     1.007825032070
           H         -1.862381652928     1.823857190205    -0.571178057855     1.007825032070
           H         -1.564381652928     0.459857190205    -1.621178057855     1.007825032070
           C         -1.465381652928     0.830857190205    -0.623178057855    12.000000000000
           H          0.561618347072     1.486857190205    -0.901178057855     1.007825032070
           H          0.123618347072     1.223857190205     0.769821942145     1.007825032070
           C          0.023618347072     0.851857190205    -0.228178057855    12.000000000000
           H         -0.115381652928    -1.220142809795    -0.775178057855     1.007825032070
           H          1.501618347072    -0.568142809795    -0.871178057855     1.007825032070
           C          0.595618347072    -0.576142809795    -0.303178057855    12.000000000000
           H          1.284618347072    -2.080142809795     1.066821942145     1.007825032070
           H         -0.018381652928    -1.097142809795     1.687821942145     1.007825032070
           H          1.598618347072    -0.444142809795     1.591821942145     1.007825032070
           C          0.887618347072    -1.088142809795     1.118821942145    12.000000000000

  Running in c1 symmetry.

  Rotational constants: A =      0.55090  B =      0.13658  C =      0.13335 [cm^-1]
  Rotational constants: A =  16515.49145  B =   4094.47632  C =   3997.74572 [MHz]
  Nuclear repulsion =  132.841119091007272

  Charge       = 0
  Multiplicity = 1
  Electrons    = 34
  Nalpha       = 17
  Nbeta        = 17

  ==> Algorithm <==

  SCF Algorithm Type is DF.
  DIIS enabled.
  MOM disabled.
  Fractional occupation disabled.
  Guess Type is SAD.
  Energy threshold   = 1.00e-08
  Density threshold  = 1.00e-08
  Integral threshold = 0.00e+00

  ==> Primary Basis <==

  Basis Set: CC-PVDZ
    Number of shells: 54
    Number of basis function: 106
    Number of Cartesian functions: 110
    Spherical Harmonics?: true
    Max angular momentum: 2

  ==> DFT Potential <==

   => B3LYP Composite Functional <= 

    B3LYP Hybrid-GGA Exchange-Correlation Functional (VWN1-RPA)

    P.J. Stephens et. al., J. Phys. Chem., 98, 11623-11627, 1994

    Points   =           5000
    Deriv    =              1
    GGA      =           TRUE
    Meta     =          FALSE

    X_LRC        =          FALSE
    X_Hybrid     =           TRUE
    X_Alpha      =   2.000000E-01
    X_Omega      =   0.000000E+00
    C_LRC        =          FALSE
    C_Hybrid     =          FALSE
    C_Alpha      =   0.000000E+00
    C_Omega      =   0.000000E+00

   => Exchange Functionals <=

    0.8000    B3_X
    0.2000      HF 

   => Correlation Functionals <=

    0.1900 VWN3RPA_C
    0.8100   LYP_C

   => Molecular Quadrature <=

    Radial Scheme    =       TREUTLER
    Pruning Scheme   =           FLAT
    Nuclear Scheme   =       TREUTLER

    BS radius alpha  =              1
    Pruning alpha    =              1
    Radial Points    =             75
    Spherical Points =            302
    Total Points     =         312733
    Total Blocks     =            270
    Max Points       =           4931
    Max Functions    =            106

  ==> Pre-Iterations <==

   -------------------------------------------------------
    Irrep   Nso     Nmo     Nalpha   Nbeta   Ndocc  Nsocc
   -------------------------------------------------------
     A        106     106       0       0       0       0
   -------------------------------------------------------
    Total     106     106      17      17      17       0
   -------------------------------------------------------

  ==> Integral Setup <==

  ==> DFJK: Density-Fitted J/K Matrices <==

    J tasked:                  Yes
    K tasked:                  Yes
    wK tasked:                  No
    OpenMP threads:              1
    Integrals threads:           1
    Memory (MB):               715
    Algorithm:                Core
    Integral Cache:           NONE
    Schwarz Cutoff:          1E-12
    Fitting Condition:       1E-12

   => Auxiliary Basis Set <=

  Basis Set: 
    Number of shells: 186
    Number of basis function: 510
    Number of Cartesian functions: 574
    Spherical Harmonics?: true
    Max angular momentum: 3

  Minimum eigenvalue in the overlap matrix is 4.7919181595E-03.
  Using Symmetric Orthogonalization.
  SCF Guess: Superposition of Atomic Densities via on-the-fly atomic UHF.

  ==> Iterations <==

                           Total Energy        Delta E     RMS |[F,P]|

   @DF-RKS iter   0:  -159.05175106080398   -1.59052e+02   3.39575e-02 
   @DF-RKS iter   1:  -158.29596788729282    7.55783e-01   4.77270e-03 
   @DF-RKS iter   2:  -158.24988120546010    4.60867e-02   5.59608e-03 DIIS
   @DF-RKS iter   3:  -158.44306610387270   -1.93185e-01   3.62175e-04 DIIS
   @DF-RKS iter   4:  -158.44378463568316   -7.18532e-04   1.20509e-04 DIIS
   @DF-RKS iter   5:  -158.44385615060941   -7.15149e-05   4.68188e-05 DIIS
   @DF-RKS iter   6:  -158.44386813985739   -1.19892e-05   5.93756e-06 DIIS
   @DF-RKS iter   7:  -158.44386835462359   -2.14766e-07   9.95968e-07 DIIS
   @DF-RKS iter   8:  -158.44386836120978   -6.58619e-09   1.32845e-07 DIIS
   @DF-RKS iter   9:  -158.44386836131599   -1.06212e-10   4.17988e-08 DIIS
   @DF-RKS iter  10:  -158.44386836132557   -9.57812e-12   1.75774e-08 DIIS
   @DF-RKS iter  11:  -158.44386836132682   -1.25056e-12   2.42050e-09 DIIS

  ==> Post-Iterations <==

    Orbital Energies (a.u.)
    -----------------------

    Doubly Occupied:                                                      

       1A    -10.168703     2A    -10.168427     3A    -10.164884  
       4A    -10.164723     5A     -0.795270     6A     -0.722181  
       7A     -0.633744     8A     -0.577630     9A     -0.464977  
      10A     -0.443840    11A     -0.422549    12A     -0.394404  
      13A     -0.368562    14A     -0.362934    15A     -0.332191  
      16A     -0.320782    17A     -0.310760  

    Virtual:                                                              

      18A      0.064253    19A      0.093658    20A      0.100677  
      21A      0.108131    22A      0.138689    23A      0.147649  
      24A      0.149453    25A      0.156734    26A      0.159073  
      27A      0.182804    28A      0.220735    29A      0.253568  
      30A      0.257331    31A      0.404857    32A      0.425119  
      33A      0.433090    34A      0.452486    35A      0.467394  
      36A      0.478008    37A      0.518022    38A      0.593795  
      39A      0.595348    40A      0.635130    41A      0.644107  
      42A      0.663410    43A      0.667454    44A      0.668325  
      45A      0.672882    46A      0.696537    47A      0.698048  
      48A      0.701166    49A      0.706357    50A      0.742854  
      51A      0.745825    52A      0.765644    53A      0.870453  
      54A      0.884641    55A      0.972311    56A      1.122693  
      57A      1.131666    58A      1.193293    59A      1.205893  
      60A      1.247909    61A      1.382014    62A      1.414118  
      63A      1.434043    64A      1.456004    65A      1.456548  
      66A      1.477896    67A      1.577737    68A      1.593291  
      69A      1.628159    70A      1.641593    71A      1.659798  
      72A      1.665693    73A      1.667171    74A      1.700151  
      75A      1.703904    76A      1.715436    77A      1.725181  
      78A      1.735615    79A      1.746047    80A      1.771436  
      81A      1.780416    82A      1.835391    83A      1.850229  
      84A      1.928635    85A      1.989322    86A      2.016654  
      87A      2.037105    88A      2.087727    89A      2.115618  
      90A      2.177903    91A      2.229337    92A      2.253296  
      93A      2.276879    94A      2.303504    95A      2.343659  
      96A      2.365016    97A      2.499732    98A      2.514343  
      99A      2.521916   100A      2.539174   101A      2.551504  
     102A      2.624006   103A      2.630177   104A      2.632264  
     105A      2.684572   106A      2.747226  

    Final Occupation by Irrep:
              A 
    DOCC [    17 ]

  Energy converged.

  @DF-RKS Final Energy:  -158.44386836132682

   => Energetics <=

    Nuclear Repulsion Energy =            132.8411190910072719
    One-Electron Energy =                -474.0700181424045923
    Two-Electron Energy =                 203.4674156489800794
    DFT Exchange-Correlation Energy =     -20.6823849589095907
    Empirical Dispersion Energy =           0.0000000000000000
    PCM Polarization Energy =               0.0000000000000000
    EFP Energy =                            0.0000000000000000
    Total Energy =                       -158.4438683613268211


  Saving occupied orbitals to File 180.

*** tstop() called on lski1497 at Tue Feb 21 18:17:48 2017
Module time:
	user time   =     113.83 seconds =       1.90 minutes
	system time =       1.43 seconds =       0.02 minutes
	total time  =        124 seconds =       2.07 minutes
Total time:
	user time   =     113.83 seconds =       1.90 minutes
	system time =       1.43 seconds =       0.02 minutes
	total time  =        124 seconds =       2.07 minutes


Properties will be evaluated at   0.000000,   0.000000,   0.000000 Bohr

Properties computed using the SCF density matrix

  Nuclear Dipole Moment: (a.u.)
     X:    -0.4629      Y:    -0.2057      Z:     0.3986

  Electronic Dipole Moment: (a.u.)
     X:     0.4862      Y:     0.2154      Z:    -0.4188

  Dipole Moment: (a.u.)
     X:     0.0232      Y:     0.0097      Z:    -0.0202     Total:     0.0323

  Dipole Moment: (Debye)
     X:     0.0590      Y:     0.0248      Z:    -0.0512     Total:     0.0820


*** tstart() called on lski1497
*** at Tue Feb 21 18:17:48 2017


         ------------------------------------------------------------
                                   SCF GRAD                          
                          Rob Parrish, Justin Turney,                
                       Andy Simmonett, and Alex Sokolov              
         ------------------------------------------------------------

  ==> Geometry <==

    Molecular point group: c1
    Full point group: C1

    Geometry (in Angstrom), charge = 0, multiplicity = 1:

       Center              X                  Y                   Z               Mass       
    ------------   -----------------  -----------------  -----------------  -----------------
           H         -2.003381652928     0.195857190205     0.048821942145     1.007825032070
           H         -1.862381652928     1.823857190205    -0.571178057855     1.007825032070
           H         -1.564381652928     0.459857190205    -1.621178057855     1.007825032070
           C         -1.465381652928     0.830857190205    -0.623178057855    12.000000000000
           H          0.561618347072     1.486857190205    -0.901178057855     1.007825032070
           H          0.123618347072     1.223857190205     0.769821942145     1.007825032070
           C          0.023618347072     0.851857190205    -0.228178057855    12.000000000000
           H         -0.115381652928    -1.220142809795    -0.775178057855     1.007825032070
           H          1.501618347072    -0.568142809795    -0.871178057855     1.007825032070
           C          0.595618347072    -0.576142809795    -0.303178057855    12.000000000000
           H          1.284618347072    -2.080142809795     1.066821942145     1.007825032070
           H         -0.018381652928    -1.097142809795     1.687821942145     1.007825032070
           H          1.598618347072    -0.444142809795     1.591821942145     1.007825032070
           C          0.887618347072    -1.088142809795     1.118821942145    12.000000000000

  Nuclear repulsion =  132.841119091007272

  ==> Basis Set <==

  Basis Set: CC-PVDZ
    Number of shells: 54
    Number of basis function: 106
    Number of Cartesian functions: 110
    Spherical Harmonics?: true
    Max angular momentum: 2

  ==> DFJKGrad: Density-Fitted SCF Gradients <==

    Gradient:                    1
    J tasked:                  Yes
    K tasked:                  Yes
    wK tasked:                  No
    OpenMP threads:              1
    Integrals threads:           1
    Memory (MB):               715
    Schwarz Cutoff:          0E+00
    Fitting Condition:       1E-12

   => Auxiliary Basis Set <=

  Basis Set: 
    Number of shells: 186
    Number of basis function: 510
    Number of Cartesian functions: 574
    Spherical Harmonics?: true
    Max angular momentum: 3

  ==> DFT Potential <==

   => B3LYP Composite Functional <= 

    B3LYP Hybrid-GGA Exchange-Correlation Functional (VWN1-RPA)

    P.J. Stephens et. al., J. Phys. Chem., 98, 11623-11627, 1994

    Points   =           5000
    Deriv    =              1
    GGA      =           TRUE
    Meta     =          FALSE

    X_LRC        =          FALSE
    X_Hybrid     =           TRUE
    X_Alpha      =   2.000000E-01
    X_Omega      =   0.000000E+00
    C_LRC        =          FALSE
    C_Hybrid     =          FALSE
    C_Alpha      =   0.000000E+00
    C_Omega      =   0.000000E+00

   => Exchange Functionals <=

    0.8000    B3_X
    0.2000      HF 

   => Correlation Functionals <=

    0.1900 VWN3RPA_C
    0.8100   LYP_C

   => Molecular Quadrature <=

    Radial Scheme    =       TREUTLER
    Pruning Scheme   =           FLAT
    Nuclear Scheme   =       TREUTLER

    BS radius alpha  =              1
    Pruning alpha    =              1
    Radial Points    =             75
    Spherical Points =            302
    Total Points     =         312733
    Total Blocks     =            270
    Max Points       =           4931
    Max Functions    =            106


  -Total Gradient:
     Atom            X                  Y                   Z
    ------   -----------------  -----------------  -----------------
       1        0.014329666632     0.013133248895    -0.012761478489
       2        0.013051968030    -0.018950904260     0.000041697455
       3        0.005086789472     0.007508321013     0.021095629676
       4       -0.029053413097    -0.009647079215    -0.009762087137
       5       -0.010499944206    -0.016661462426     0.011484643906
       6       -0.003890793506    -0.011393247022    -0.019470656849
       7        0.021944629173     0.026063014445     0.017098179968
       8        0.012238988751     0.015232776196     0.012856230744
       9       -0.018782199947     0.003784607763     0.013618697489
      10       -0.001992187000    -0.017734908678    -0.034001762526
      11       -0.008673188449     0.021695513706    -0.004033140369
      12        0.017765591947     0.001156771782    -0.014790131246
      13       -0.015015701266    -0.011844738630    -0.012386039642
      14        0.003490742229    -0.002342181083     0.031009913335


*** tstop() called on lski1497 at Tue Feb 21 18:18:31 2017
Module time:
	user time   =      38.38 seconds =       0.64 minutes
	system time =       0.67 seconds =       0.01 minutes
	total time  =         43 seconds =       0.72 minutes
Total time:
	user time   =     152.23 seconds =       2.54 minutes
	system time =       2.10 seconds =       0.04 minutes
	total time  =        167 seconds =       2.78 minutes

			-----------------------------------------
			 OPTKING 2.0: for geometry optimizations 
			  - R.A. King,  Bethel University        
			-----------------------------------------

	Internal coordinates to be generated automatically.
	Detected frag 1 with atoms:  1 2 3 4 5 6 7 8 9 10 11 12 13 14
	---Fragment 1 Bond Connectivity---
	 1 : 4
	 2 : 4
	 3 : 4
	 4 : 1 2 3 7
	 5 : 7
	 6 : 7
	 7 : 4 5 6 10
	 8 : 10
	 9 : 10
	 10 : 7 8 9 14
	 11 : 14
	 12 : 14
	 13 : 14
	 14 : 10 11 12 13

	Assuming in current code that numbering for constraints corresponds to unified fragment.
	Fixed dihedral atom list: 
	     4     7    10    14
	---Fragment 1 Geometry and Gradient---
	 H          -3.7858426637        0.3701164506        0.0922600999
	 H          -3.5193912789        3.4465905950       -1.0793701025
	 H          -2.9562528913        0.8690041497       -3.0635825420
	 C          -2.7691700042        1.5700925450       -1.1776358614
	 H           1.0613048672        2.8097528882       -1.7029797263
	 H           0.2336048210        2.3127549153        1.4547526417
	 C           0.0446322077        1.6097767938       -0.4311940389
	 H          -0.2180397248       -2.3057357535       -1.4648742336
	 H           2.8376474321       -1.0736343149       -1.6462879423
	 C           1.1255555557       -1.0887521239       -0.5729234988
	 H           2.4275768612       -3.9309002278        2.0160013032
	 H          -0.0347362899       -2.0732994392        3.1895212317
	 H           3.0209508670       -0.8393082744        3.0081075230
	 C           1.6773555865       -2.0562919040        2.1142670621
	             0.0143296666        0.0131332489       -0.0127614785
	             0.0130519680       -0.0189509043        0.0000416975
	             0.0050867895        0.0075083210        0.0210956297
	            -0.0290534131       -0.0096470792       -0.0097620871
	            -0.0104999442       -0.0166614624        0.0114846439
	            -0.0038907935       -0.0113932470       -0.0194706568
	             0.0219446292        0.0260630144        0.0170981800
	             0.0122389888        0.0152327762        0.0128562307
	            -0.0187821999        0.0037846078        0.0136186975
	            -0.0019921870       -0.0177349087       -0.0340017625
	            -0.0086731884        0.0216955137       -0.0040331404
	             0.0177655919        0.0011567718       -0.0147901312
	            -0.0150157013       -0.0118447386       -0.0123860396
	             0.0034907422       -0.0023421811        0.0310099133

	Previous optimization step data not found.  Starting new optimization.

	---Fragment 1 Intrafragment Coordinates---
	 - Coordinate -           - BOHR/RAD -       - ANG/DEG -
	 R(1,4)           =         2.021436	       1.069698
	 R(2,4)           =         2.023298	       1.070683
	 R(3,4)           =         2.020723	       1.069320
	 R(4,7)           =         2.911397	       1.540645
	 R(5,7)           =         2.022623	       1.070326
	 R(6,7)           =         2.021555	       1.069761
	 R(7,10)          =         2.910419	       1.540128
	 R(8,10)          =         2.020365	       1.069131
	 R(9,10)          =         2.020792	       1.069357
	 R(10,14)         =         2.908885	       1.539315
	 R(11,14)         =         2.021545	       1.069756
	 R(12,14)         =         2.021811	       1.069896
	 R(13,14)         =         2.021200	       1.069573
	 B(1,4,2)         =         1.910870	     109.484805
	 B(1,4,3)         =         1.911121	     109.499161
	 B(1,4,7)         =         1.910399	     109.457783
	 B(2,4,3)         =         1.910042	     109.437340
	 B(2,4,7)         =         1.910564	     109.467262
	 B(3,4,7)         =         1.910803	     109.480971
	 B(4,7,5)         =         1.909937	     109.431343
	 B(4,7,6)         =         1.911630	     109.528316
	 B(4,7,10)        =         1.911154	     109.501062
	 B(5,7,6)         =         1.910605	     109.469614
	 B(5,7,10)        =         1.910047	     109.437654
	 B(6,7,10)        =         1.910425	     109.459295
	 B(7,10,8)        =         1.910294	     109.451808
	 B(7,10,9)        =         1.910908	     109.486941
	 B(7,10,14)       =         1.911198	     109.503589
	 B(8,10,9)        =         1.910752	     109.478016
	 B(8,10,14)       =         1.910950	     109.489368
	 B(9,10,14)       =         1.909697	     109.417605
	 B(10,14,11)      =         1.911269	     109.507647
	 B(10,14,12)      =         1.910765	     109.478775
	 B(10,14,13)      =         1.911720	     109.533491
	 B(11,14,12)      =         1.909552	     109.409259
	 B(11,14,13)      =         1.910432	     109.459705
	 B(12,14,13)      =         1.910060	     109.438352
	 D(1,4,7,5)       =         3.140997	     179.965873
	 D(1,4,7,6)       =        -1.047644	     -60.025575
	 D(1,4,7,10)      =         1.047427	      60.013132
	 D(2,4,7,5)       =        -1.047689	     -60.028143
	 D(2,4,7,6)       =         1.046856	      59.980409
	 D(2,4,7,10)      =        -3.141259	    -179.980883
	 D(3,4,7,5)       =         1.046044	      59.933911
	 D(3,4,7,6)       =         3.140588	     179.942463
	 D(3,4,7,10)      =        -1.047526	     -60.018830
	 D(4,7,10,8)      =         0.174706	      10.009940
	 D(4,7,10,9)      =         2.269207	     130.015999
	 D(4,7,10,14)     =        -1.920215	    -110.020218
	 D(5,7,10,8)      =        -1.918796	    -109.938935
	 D(5,7,10,9)      =         0.175704	      10.067123
	 D(5,7,10,14)     =         2.269467	     130.030906
	 D(6,7,10,8)      =         2.270514	     130.090866
	 D(6,7,10,9)      =        -1.918171	    -109.903076
	 D(6,7,10,14)     =         0.175592	      10.060708
	 D(7,10,14,11)    =         3.141260	     179.980967
	 D(7,10,14,12)    =         1.047720	      60.029926
	 D(7,10,14,13)    =        -1.046719	     -59.972597
	 D(8,10,14,11)    =         1.046740	      59.973791
	 D(8,10,14,12)    =        -1.046800	     -59.977249
	 D(8,10,14,13)    =        -3.141240	    -179.979773
	 D(9,10,14,11)    =        -1.047421	     -60.012810
	 D(9,10,14,12)    =        -3.140962	    -179.963850
	 D(9,10,14,13)    =         1.047784	      60.033626

	Current energy   :      -158.4438683613

	Generating empirical Hessian (Schlegel '84) for each fragment.
	Adding user-defined constraint: Fragment 1; Coordinate 49:
		Value =    -1.920215; Fixed value    =    -1.919862
		Force =     0.000176; Force constant =     0.500000
	Removing off-diagonal coupling between coordinate 49 and others.
	Taking RFO optimization step.
	Going to follow RFO solution 1.
	Using RFO vector 1.

	Determining step-restricting scale parameter for RS-RFO.
	Maximum step size allowed    0.10000

	 Iter      |step|        alpha        rfo_root  
	------------------------------------------------
	    0     0.26572       1.00000           1
	    1     0.19429       6.17067           1
	    2     0.14362      19.42393           1
	    3     0.11456      38.95932           1
	    4     0.10251      53.23397           1
	    5     0.10010      56.79991           1
	    6     0.10000      56.94948           1
	------------------------------------------------
	Norm of target step-size    0.10000
	Projected energy change by RFO approximation:        -0.0078312808

	Back-transformation to cartesian coordinates...
	Successfully converged to displaced geometry.

	--- Internal Coordinate Step in ANG or DEG, aJ/ANG or AJ/DEG ---
	 ---------------------------------------------------------------------------
	   Coordinate                Previous        Force       Change         New 
	   ----------                --------       ------       ------       ------
	    1 R(1,4)          =      1.069698     0.189656     0.015003     1.084701
	    2 R(2,4)          =      1.070683     0.184665     0.014631     1.085314
	    3 R(3,4)          =      1.069320     0.187543     0.014828     1.084148
	    4 R(4,7)          =      1.540645     0.023356     0.002072     1.542717
	    5 R(5,7)          =      1.070326     0.184415     0.014603     1.084929
	    6 R(6,7)          =      1.069761     0.185294     0.014660     1.084421
	    7 R(7,10)         =      1.540128     0.106481     0.009442     1.549570
	    8 R(8,10)         =      1.069131     0.189416     0.014971     1.084102
	    9 R(9,10)         =      1.069357     0.190467     0.015060     1.084416
	   10 R(10,14)        =      1.539315     0.029051     0.002574     1.541889
	   11 R(11,14)        =      1.069756     0.190662     0.015084     1.084840
	   12 R(12,14)        =      1.069896     0.188826     0.014942     1.084839
	   13 R(13,14)        =      1.069573     0.186113     0.014720     1.084293
	   14 B(1,4,2)        =    109.484805    -0.000332    -0.419428   109.065376
	   15 B(1,4,3)        =    109.499161    -0.000241    -0.308315   109.190846
	   16 B(1,4,7)        =    109.457783     0.000217     0.268523   109.726306
	   17 B(2,4,3)        =    109.437340    -0.000310    -0.385778   109.051563
	   18 B(2,4,7)        =    109.467262     0.000479     0.606788   110.074051
	   19 B(3,4,7)        =    109.480971     0.000187     0.230891   109.711862
	   20 B(4,7,5)        =    109.431343    -0.000294    -0.346244   109.085099
	   21 B(4,7,6)        =    109.528316    -0.000262    -0.297926   109.230390
	   22 B(4,7,10)       =    109.501062     0.000891     1.050926   110.551989
	   23 B(5,7,6)        =    109.469614    -0.000022    -0.123801   109.345812
	   24 B(5,7,10)       =    109.437654    -0.000106    -0.074685   109.362969
	   25 B(6,7,10)       =    109.459295    -0.000207    -0.212979   109.246316
	   26 B(7,10,8)       =    109.451808    -0.000209    -0.214777   109.237031
	   27 B(7,10,9)       =    109.486941    -0.000114    -0.085090   109.401851
	   28 B(7,10,14)      =    109.503589     0.000894     1.054255   110.557845
	   29 B(8,10,9)       =    109.478016    -0.000022    -0.124289   109.353727
	   30 B(8,10,14)      =    109.489368    -0.000260    -0.293832   109.195535
	   31 B(9,10,14)      =    109.417605    -0.000290    -0.341037   109.076568
	   32 B(10,14,11)     =    109.507647     0.000474     0.601594   110.109240
	   33 B(10,14,12)     =    109.478775     0.000214     0.264880   109.743655
	   34 B(10,14,13)     =    109.533491     0.000183     0.225007   109.758498
	   35 B(11,14,12)     =    109.409259    -0.000326    -0.410452   108.998807
	   36 B(11,14,13)     =    109.459705    -0.000310    -0.387072   109.072632
	   37 B(12,14,13)     =    109.438352    -0.000236    -0.302672   109.135680
	   38 D(1,4,7,5)      =    179.965873     0.000039     0.244277   180.210150
	   39 D(1,4,7,6)      =    -60.025575    -0.000045    -0.295846   -60.321421
	   40 D(1,4,7,10)     =     60.013132    -0.000015    -0.094563    59.918570
	   41 D(2,4,7,5)      =    -60.028143     0.000043     0.270666   -59.757477
	   42 D(2,4,7,6)      =     59.980409    -0.000041    -0.269457    59.710952
	   43 D(2,4,7,10)     =   -179.980883    -0.000011    -0.068174  -180.049057
	   44 D(3,4,7,5)      =     59.933911     0.000050     0.314843    60.248754
	   45 D(3,4,7,6)      =    179.942463    -0.000035    -0.225280   179.717183
	   46 D(3,4,7,10)     =    -60.018830    -0.000004    -0.023996   -60.042826
	   47 D(4,7,10,8)     =     10.009940     0.000034     0.216496    10.226437
	   48 D(4,7,10,9)     =    130.015999    -0.000018    -0.117718   129.898280
	   49 D(4,7,10,14)    =   -110.020218     0.000010     0.061554  -109.958664
	   50 D(5,7,10,8)     =   -109.938935     0.000006     0.040219  -109.898716
	   51 D(5,7,10,9)     =     10.067123    -0.000045    -0.293995     9.773128
	   52 D(5,7,10,14)    =    130.030906    -0.000017    -0.114723   129.916183
	   53 D(6,7,10,8)     =    130.090866     0.000056     0.366025   130.456891
	   54 D(6,7,10,9)     =   -109.903076     0.000005     0.031811  -109.871265
	   55 D(6,7,10,14)    =     10.060708     0.000033     0.211082    10.271790
	   56 D(7,10,14,11)   =    179.980967    -0.000010    -0.061295   179.919672
	   57 D(7,10,14,12)   =     60.029926    -0.000015    -0.093354    59.936573
	   58 D(7,10,14,13)   =    -59.972597    -0.000004    -0.024063   -59.996661
	   59 D(8,10,14,11)   =     59.973791    -0.000040    -0.264074    59.709717
	   60 D(8,10,14,12)   =    -59.977249    -0.000045    -0.296132   -60.273382
	   61 D(8,10,14,13)   =   -179.979773    -0.000035    -0.226842  -180.206615
	   62 D(9,10,14,11)   =    -60.012810     0.000043     0.270276   -59.742533
	   63 D(9,10,14,12)   =   -179.963850     0.000038     0.238218  -179.725632
	   64 D(9,10,14,13)   =     60.033626     0.000048     0.307508    60.341134
	 ---------------------------------------------------------------------------
	 Forces used to impose fixed constraints are not included.
	  Forces zeroed: 49 

  ==> Convergence Check <==

  Measures of convergence in internal coordinates in au.
  Criteria marked as inactive (o), active & met (*), and active & unmet ( ).
  --------------------------------------------------------------------------------------------- ~
   Step     Total Energy     Delta E     MAX Force     RMS Force      MAX Disp      RMS Disp    ~
  --------------------------------------------------------------------------------------------- ~
    Convergence Criteria    1.00e-06 *    3.00e-04 *             o    1.20e-03 *             o  ~
  --------------------------------------------------------------------------------------------- ~
      1    -158.44386836   -1.58e+02      2.31e-02      9.70e-03 o    2.85e-02      1.25e-02 o  ~
  ---------------------------------------------------------------------------------------------

	Writing optimization data to binary file.
	Structure for next step:
	Cartesian Geometry (in Angstrom)
	    H    -2.0339028757   0.1942871640   0.0386593724
	    H    -1.8910403979   1.8317666698  -0.6108157445
	    H    -1.5800597621   0.4388969795  -1.6522780057
	    C    -1.4797286846   0.8280055293  -0.6453496109
	    H     0.5526967545   1.4908992801  -0.9306551540
	    H     0.1010565228   1.2466761999   0.7631288381
	    C     0.0093154481   0.8517824675  -0.2426596116
	    H    -0.1002240857  -1.2460562527  -0.7627460864
	    H     1.5294534749  -0.5637962219  -0.8581748265
	    C     0.6077244154  -0.5768899434  -0.2870330400
	    H     1.3224069328  -2.0844493297   1.0989614256
	    H    -0.0112456538  -1.1058034805   1.7183451130
	    H     1.6158901738  -0.4225459632   1.6216990651
	    C     0.9053145965  -1.0837724359   1.1384254554
			--------------------------
			 OPTKING Finished Execution 
			--------------------------

    Structure for next step:
    Molecular point group: c1
    Full point group: C1

    Geometry (in Angstrom), charge = 0, multiplicity = 1:

    H           -2.034120982119     0.194155273511     0.038830576838
    H           -1.891258504317     1.831634779237    -0.610644540120
    H           -1.580277868551     0.438765088936    -1.652106801298
    C           -1.479946791047     0.827873638782    -0.645178406451
    H            0.552478648109     1.490767389546    -0.930483949580
    H            0.100838416367     1.246544309378     0.763300042546
    C            0.009097341704     0.851650576977    -0.242488407183
    H           -0.100442192174    -1.246188143179    -0.762574881978
    H            1.529235368511    -0.563928112384    -0.858003622049
    C            0.607506308934    -0.577021833948    -0.286861835543
    H            1.322188826359    -2.084581220203     1.099132630024
    H           -0.011463760256    -1.105935370987     1.718516317375
    H            1.615672067327    -0.422677853738     1.621870269559
    C            0.905096490016    -1.083904326378     1.138596659838

gradient() will perform analytic gradient computation.

*** tstart() called on lski1497
*** at Tue Feb 21 18:18:32 2017


         ---------------------------------------------------------
                                   SCF
            by Justin Turney, Rob Parrish, and Andy Simmonett
                              RKS Reference
                        1 Threads,   1000 MiB Core
         ---------------------------------------------------------

  ==> Geometry <==

    Molecular point group: c1
    Full point group: C1

    Geometry (in Angstrom), charge = 0, multiplicity = 1:

       Center              X                  Y                   Z               Mass       
    ------------   -----------------  -----------------  -----------------  -----------------
           H         -2.034120982119     0.194155273511     0.038830576838     1.007825032070
           H         -1.891258504317     1.831634779237    -0.610644540120     1.007825032070
           H         -1.580277868551     0.438765088936    -1.652106801298     1.007825032070
           C         -1.479946791047     0.827873638782    -0.645178406451    12.000000000000
           H          0.552478648109     1.490767389546    -0.930483949580     1.007825032070
           H          0.100838416367     1.246544309378     0.763300042546     1.007825032070
           C          0.009097341704     0.851650576977    -0.242488407183    12.000000000000
           H         -0.100442192174    -1.246188143179    -0.762574881978     1.007825032070
           H          1.529235368511    -0.563928112384    -0.858003622049     1.007825032070
           C          0.607506308934    -0.577021833948    -0.286861835543    12.000000000000
           H          1.322188826359    -2.084581220203     1.099132630024     1.007825032070
           H         -0.011463760256    -1.105935370987     1.718516317375     1.007825032070
           H          1.615672067327    -0.422677853738     1.621870269559     1.007825032070
           C          0.905096490016    -1.083904326378     1.138596659838    12.000000000000

  Running in c1 symmetry.

  Rotational constants: A =      0.54953  B =      0.13363  C =      0.13044 [cm^-1]
  Rotational constants: A =  16474.34891  B =   4005.98098  C =   3910.35720 [MHz]
  Nuclear repulsion =  131.662337118268823

  Charge       = 0
  Multiplicity = 1
  Electrons    = 34
  Nalpha       = 17
  Nbeta        = 17

  ==> Algorithm <==

  SCF Algorithm Type is DF.
  DIIS enabled.
  MOM disabled.
  Fractional occupation disabled.
  Guess Type is READ.
  Energy threshold   = 1.00e-08
  Density threshold  = 1.00e-08
  Integral threshold = 0.00e+00

  ==> Primary Basis <==

  Basis Set: CC-PVDZ
    Number of shells: 54
    Number of basis function: 106
    Number of Cartesian functions: 110
    Spherical Harmonics?: true
    Max angular momentum: 2

  ==> DFT Potential <==

   => B3LYP Composite Functional <= 

    B3LYP Hybrid-GGA Exchange-Correlation Functional (VWN1-RPA)

    P.J. Stephens et. al., J. Phys. Chem., 98, 11623-11627, 1994

    Points   =           5000
    Deriv    =              1
    GGA      =           TRUE
    Meta     =          FALSE

    X_LRC        =          FALSE
    X_Hybrid     =           TRUE
    X_Alpha      =   2.000000E-01
    X_Omega      =   0.000000E+00
    C_LRC        =          FALSE
    C_Hybrid     =          FALSE
    C_Alpha      =   0.000000E+00
    C_Omega      =   0.000000E+00

   => Exchange Functionals <=

    0.8000    B3_X
    0.2000      HF 

   => Correlation Functionals <=

    0.1900 VWN3RPA_C
    0.8100   LYP_C

   => Molecular Quadrature <=

    Radial Scheme    =       TREUTLER
    Pruning Scheme   =           FLAT
    Nuclear Scheme   =       TREUTLER

    BS radius alpha  =              1
    Pruning alpha    =              1
    Radial Points    =             75
    Spherical Points =            302
    Total Points     =         312758
    Total Blocks     =            275
    Max Points       =           4994
    Max Functions    =            106

  ==> Pre-Iterations <==

   -------------------------------------------------------
    Irrep   Nso     Nmo     Nalpha   Nbeta   Ndocc  Nsocc
   -------------------------------------------------------
     A        106     106       0       0       0       0
   -------------------------------------------------------
    Total     106     106      17      17      17       0
   -------------------------------------------------------

  ==> Integral Setup <==

  ==> DFJK: Density-Fitted J/K Matrices <==

    J tasked:                  Yes
    K tasked:                  Yes
    wK tasked:                  No
    OpenMP threads:              1
    Integrals threads:           1
    Memory (MB):               715
    Algorithm:                Core
    Integral Cache:           NONE
    Schwarz Cutoff:          1E-12
    Fitting Condition:       1E-12

   => Auxiliary Basis Set <=

  Basis Set: 
    Number of shells: 186
    Number of basis function: 510
    Number of Cartesian functions: 574
    Spherical Harmonics?: true
    Max angular momentum: 3

  Minimum eigenvalue in the overlap matrix is 4.9080364572E-03.
  Using Symmetric Orthogonalization.
  SCF Guess was Projection but file not found.
  Switching over to SAD guess.

  SCF Guess: Superposition of Atomic Densities via on-the-fly atomic UHF.

  ==> Iterations <==

                           Total Energy        Delta E     RMS |[F,P]|

   @DF-RKS iter   0:  -158.97887620682451   -1.58979e+02   3.31066e-02 
   @DF-RKS iter   1:  -158.30976667648946    6.69110e-01   4.62416e-03 
   @DF-RKS iter   2:  -158.26201840528242    4.77483e-02   5.48393e-03 DIIS
   @DF-RKS iter   3:  -158.44904108005136   -1.87023e-01   3.53480e-04 DIIS
   @DF-RKS iter   4:  -158.44973565936141   -6.94579e-04   1.16431e-04 DIIS
   @DF-RKS iter   5:  -158.44980218334430   -6.65240e-05   4.69058e-05 DIIS
   @DF-RKS iter   6:  -158.44981427357200   -1.20902e-05   5.91508e-06 DIIS
   @DF-RKS iter   7:  -158.44981448750093   -2.13929e-07   9.91589e-07 DIIS
   @DF-RKS iter   8:  -158.44981449409585   -6.59492e-09   1.36216e-07 DIIS
   @DF-RKS iter   9:  -158.44981449420979   -1.13943e-10   4.22782e-08 DIIS
   @DF-RKS iter  10:  -158.44981449421857   -8.78231e-12   1.82591e-08 DIIS
   @DF-RKS iter  11:  -158.44981449422050   -1.93268e-12   2.49943e-09 DIIS

  ==> Post-Iterations <==

    Orbital Energies (a.u.)
    -----------------------

    Doubly Occupied:                                                      

       1A    -10.173803     2A    -10.173606     3A    -10.170135  
       4A    -10.170041     5A     -0.791222     6A     -0.719734  
       7A     -0.630657     8A     -0.573532     9A     -0.461358  
      10A     -0.441305    11A     -0.419847    12A     -0.392730  
      13A     -0.366469    14A     -0.361020    15A     -0.329620  
      16A     -0.319525    17A     -0.313175  

    Virtual:                                                              

      18A      0.061954    19A      0.091255    20A      0.098215  
      21A      0.105700    22A      0.136043    23A      0.145209  
      24A      0.146102    25A      0.152825    26A      0.155524  
      27A      0.177787    28A      0.217161    29A      0.252617  
      30A      0.256645    31A      0.401862    32A      0.424023  
      33A      0.429488    34A      0.448717    35A      0.466904  
      36A      0.478181    37A      0.518370    38A      0.586666  
      39A      0.592416    40A      0.627805    41A      0.637191  
      42A      0.655780    43A      0.660133    44A      0.661215  
      45A      0.668437    46A      0.687683    47A      0.690469  
      48A      0.696858    49A      0.698207    50A      0.732803  
      51A      0.733440    52A      0.760815    53A      0.868799  
      54A      0.883397    55A      0.969315    56A      1.121158  
      57A      1.125801    58A      1.183332    59A      1.201510  
      60A      1.241698    61A      1.370143    62A      1.405174  
      63A      1.426218    64A      1.444798    65A      1.449948  
      66A      1.465520    67A      1.574933    68A      1.579344  
      69A      1.615955    70A      1.633597    71A      1.650627  
      72A      1.652451    73A      1.659091    74A      1.688318  
      75A      1.691427    76A      1.701050    77A      1.716813  
      78A      1.725401    79A      1.735356    80A      1.755267  
      81A      1.765740    82A      1.818664    83A      1.844933  
      84A      1.912188    85A      1.968629    86A      2.008793  
      87A      2.030454    88A      2.069009    89A      2.092872  
      90A      2.158714    91A      2.206689    92A      2.228944  
      93A      2.253611    94A      2.282274    95A      2.314682  
      96A      2.333117    97A      2.456605    98A      2.471943  
      99A      2.490871   100A      2.506022   101A      2.526253  
     102A      2.592511   103A      2.596847   104A      2.600665  
     105A      2.655272   106A      2.717616  

    Final Occupation by Irrep:
              A 
    DOCC [    17 ]

  Energy converged.

  @DF-RKS Final Energy:  -158.44981449422050

   => Energetics <=

    Nuclear Repulsion Energy =            131.6623371182688231
    One-Electron Energy =                -471.7759136085923046
    Two-Electron Energy =                 202.2970818288739281
    DFT Exchange-Correlation Energy =     -20.6333198327709795
    Empirical Dispersion Energy =           0.0000000000000000
    PCM Polarization Energy =               0.0000000000000000
    EFP Energy =                            0.0000000000000000
    Total Energy =                       -158.4498144942205045


  Saving occupied orbitals to File 180.

*** tstop() called on lski1497 at Tue Feb 21 18:20:42 2017
Module time:
	user time   =     115.27 seconds =       1.92 minutes
	system time =       1.54 seconds =       0.03 minutes
	total time  =        130 seconds =       2.17 minutes
Total time:
	user time   =     268.16 seconds =       4.47 minutes
	system time =       3.67 seconds =       0.06 minutes
	total time  =        298 seconds =       4.97 minutes


Properties will be evaluated at   0.000000,   0.000000,   0.000000 Bohr

Properties computed using the SCF density matrix

  Nuclear Dipole Moment: (a.u.)
     X:    -0.4661      Y:    -0.2076      Z:     0.4011

  Electronic Dipole Moment: (a.u.)
     X:     0.4876      Y:     0.2169      Z:    -0.4198

  Dipole Moment: (a.u.)
     X:     0.0215      Y:     0.0093      Z:    -0.0187     Total:     0.0300

  Dipole Moment: (Debye)
     X:     0.0547      Y:     0.0237      Z:    -0.0475     Total:     0.0762


*** tstart() called on lski1497
*** at Tue Feb 21 18:20:42 2017


         ------------------------------------------------------------
                                   SCF GRAD                          
                          Rob Parrish, Justin Turney,                
                       Andy Simmonett, and Alex Sokolov              
         ------------------------------------------------------------

  ==> Geometry <==

    Molecular point group: c1
    Full point group: C1

    Geometry (in Angstrom), charge = 0, multiplicity = 1:

       Center              X                  Y                   Z               Mass       
    ------------   -----------------  -----------------  -----------------  -----------------
           H         -2.034120982119     0.194155273511     0.038830576838     1.007825032070
           H         -1.891258504317     1.831634779237    -0.610644540120     1.007825032070
           H         -1.580277868551     0.438765088936    -1.652106801298     1.007825032070
           C         -1.479946791047     0.827873638782    -0.645178406451    12.000000000000
           H          0.552478648109     1.490767389546    -0.930483949580     1.007825032070
           H          0.100838416367     1.246544309378     0.763300042546     1.007825032070
           C          0.009097341704     0.851650576977    -0.242488407183    12.000000000000
           H         -0.100442192174    -1.246188143179    -0.762574881978     1.007825032070
           H          1.529235368511    -0.563928112384    -0.858003622049     1.007825032070
           C          0.607506308934    -0.577021833948    -0.286861835543    12.000000000000
           H          1.322188826359    -2.084581220203     1.099132630024     1.007825032070
           H         -0.011463760256    -1.105935370987     1.718516317375     1.007825032070
           H          1.615672067327    -0.422677853738     1.621870269559     1.007825032070
           C          0.905096490016    -1.083904326378     1.138596659838    12.000000000000

  Nuclear repulsion =  131.662337118268823

  ==> Basis Set <==

  Basis Set: CC-PVDZ
    Number of shells: 54
    Number of basis function: 106
    Number of Cartesian functions: 110
    Spherical Harmonics?: true
    Max angular momentum: 2

  ==> DFJKGrad: Density-Fitted SCF Gradients <==

    Gradient:                    1
    J tasked:                  Yes
    K tasked:                  Yes
    wK tasked:                  No
    OpenMP threads:              1
    Integrals threads:           1
    Memory (MB):               715
    Schwarz Cutoff:          0E+00
    Fitting Condition:       1E-12

   => Auxiliary Basis Set <=

  Basis Set: 
    Number of shells: 186
    Number of basis function: 510
    Number of Cartesian functions: 574
    Spherical Harmonics?: true
    Max angular momentum: 3

  ==> DFT Potential <==

   => B3LYP Composite Functional <= 

    B3LYP Hybrid-GGA Exchange-Correlation Functional (VWN1-RPA)

    P.J. Stephens et. al., J. Phys. Chem., 98, 11623-11627, 1994

    Points   =           5000
    Deriv    =              1
    GGA      =           TRUE
    Meta     =          FALSE

    X_LRC        =          FALSE
    X_Hybrid     =           TRUE
    X_Alpha      =   2.000000E-01
    X_Omega      =   0.000000E+00
    C_LRC        =          FALSE
    C_Hybrid     =          FALSE
    C_Alpha      =   0.000000E+00
    C_Omega      =   0.000000E+00

   => Exchange Functionals <=

    0.8000    B3_X
    0.2000      HF 

   => Correlation Functionals <=

    0.1900 VWN3RPA_C
    0.8100   LYP_C

   => Molecular Quadrature <=

    Radial Scheme    =       TREUTLER
    Pruning Scheme   =           FLAT
    Nuclear Scheme   =       TREUTLER

    BS radius alpha  =              1
    Pruning alpha    =              1
    Radial Points    =             75
    Spherical Points =            302
    Total Points     =         312758
    Total Blocks     =            275
    Max Points       =           4994
    Max Functions    =            106


  -Total Gradient:
     Atom            X                  Y                   Z
    ------   -----------------  -----------------  -----------------
       1        0.008562147551     0.006740700946    -0.006038812095
       2        0.007770224593    -0.009312962154     0.000412854082
       3        0.003754948841     0.004085381388     0.010990274391
       4       -0.019775133550    -0.006643744591    -0.007019883428
       5       -0.005647551529    -0.009961239792     0.004672831618
       6       -0.003150630538    -0.007885120256    -0.009604353883
       7        0.014881990892     0.019235419536     0.012173602703
       8        0.004936628255     0.008742496862     0.008345792847
       9       -0.009187911875     0.003408223035     0.008063739092
      10       -0.001200189732    -0.013399669141    -0.023752774217
      11       -0.004595911383     0.011102525216    -0.003256360762
      12        0.008717172671     0.000929541816    -0.008759353921
      13       -0.007734469273    -0.005796872920    -0.007470280388
      14        0.002668747229    -0.001245075371     0.021242921331


*** tstop() called on lski1497 at Tue Feb 21 18:21:24 2017
Module time:
	user time   =      38.13 seconds =       0.64 minutes
	system time =       0.64 seconds =       0.01 minutes
	total time  =         42 seconds =       0.70 minutes
Total time:
	user time   =     306.31 seconds =       5.11 minutes
	system time =       4.31 seconds =       0.07 minutes
	total time  =        340 seconds =       5.67 minutes

			-----------------------------------------
			 OPTKING 2.0: for geometry optimizations 
			  - R.A. King,  Bethel University        
			-----------------------------------------

	Previous internal coordinate definitions found.
	---Fragment 1 Geometry and Gradient---
	 H          -3.8439315774        0.3669002942        0.0733791558
	 H          -3.5739606197        3.4612881082       -1.1539509454
	 H          -2.9862923854        0.8291458548       -3.1220293967
	 C          -2.7966941263        1.5644544499       -1.2192104950
	 H           1.0440333392        2.8171420941       -1.7583598358
	 H           0.1905569906        2.3556273572        1.4424280376
	 C           0.0171914844        1.6093863514       -0.4582366800
	 H          -0.1898082354       -2.3549543007       -1.4410576828
	 H           2.8898360392       -1.0656696910       -1.6213918667
	 C           1.1480205479       -1.0904132389       -0.5420903072
	 H           2.4985747778       -3.9392876079        2.0770596545
	 H          -0.0216633673       -2.0899149718        3.2475251947
	 H           3.0531777278       -0.7987453860        3.0648906325
	 C           1.7103844900       -2.0482823311        2.1516358629
	             0.0085621476        0.0067407009       -0.0060388121
	             0.0077702246       -0.0093129622        0.0004128541
	             0.0037549488        0.0040853814        0.0109902744
	            -0.0197751336       -0.0066437446       -0.0070198834
	            -0.0056475515       -0.0099612398        0.0046728316
	            -0.0031506305       -0.0078851203       -0.0096043539
	             0.0148819909        0.0192354195        0.0121736027
	             0.0049366283        0.0087424969        0.0083457928
	            -0.0091879119        0.0034082230        0.0080637391
	            -0.0012001897       -0.0133996691       -0.0237527742
	            -0.0045959114        0.0111025252       -0.0032563608
	             0.0087171727        0.0009295418       -0.0087593539
	            -0.0077344693       -0.0057968729       -0.0074702804
	             0.0026687472       -0.0012450754        0.0212429213

	---Fragment 1 Intrafragment Coordinates---
	 - Coordinate -           - BOHR/RAD -       - ANG/DEG -
	 R(1,4)           =         2.049788	       1.084701
	 R(2,4)           =         2.050946	       1.085314
	 R(3,4)           =         2.048743	       1.084148
	 R(4,7)           =         2.915313	       1.542717
	 R(5,7)           =         2.050219	       1.084929
	 R(6,7)           =         2.049258	       1.084421
	 R(7,10)          =         2.928263	       1.549570
	 R(8,10)          =         2.048656	       1.084102
	 R(9,10)          =         2.049250	       1.084416
	 R(10,14)         =         2.913748	       1.541889
	 R(11,14)         =         2.050050	       1.084840
	 R(12,14)         =         2.050048	       1.084839
	 R(13,14)         =         2.049017	       1.084293
	 B(1,4,2)         =         1.903550	     109.065376
	 B(1,4,3)         =         1.905740	     109.190846
	 B(1,4,7)         =         1.915085	     109.726306
	 B(2,4,3)         =         1.903309	     109.051563
	 B(2,4,7)         =         1.921155	     110.074051
	 B(3,4,7)         =         1.914833	     109.711862
	 B(4,7,5)         =         1.903894	     109.085099
	 B(4,7,6)         =         1.906430	     109.230390
	 B(4,7,10)        =         1.929496	     110.551989
	 B(5,7,6)         =         1.908444	     109.345812
	 B(5,7,10)        =         1.908744	     109.362969
	 B(6,7,10)        =         1.906708	     109.246316
	 B(7,10,8)        =         1.906546	     109.237031
	 B(7,10,9)        =         1.909423	     109.401851
	 B(7,10,14)       =         1.929598	     110.557845
	 B(8,10,9)        =         1.908583	     109.353727
	 B(8,10,14)       =         1.905822	     109.195535
	 B(9,10,14)       =         1.903745	     109.076568
	 B(10,14,11)      =         1.921769	     110.109240
	 B(10,14,12)      =         1.915388	     109.743655
	 B(10,14,13)      =         1.915647	     109.758498
	 B(11,14,12)      =         1.902388	     108.998807
	 B(11,14,13)      =         1.903677	     109.072632
	 B(12,14,13)      =         1.904777	     109.135680
	 D(1,4,7,5)       =        -3.137925	    -179.789850
	 D(1,4,7,6)       =        -1.052807	     -60.321421
	 D(1,4,7,10)      =         1.045776	      59.918570
	 D(2,4,7,5)       =        -1.042965	     -59.757477
	 D(2,4,7,6)       =         1.042153	      59.710952
	 D(2,4,7,10)      =         3.140736	     179.950943
	 D(3,4,7,5)       =         1.051539	      60.248754
	 D(3,4,7,6)       =         3.136657	     179.717183
	 D(3,4,7,10)      =        -1.047945	     -60.042826
	 D(4,7,10,8)      =         0.178485	      10.226437
	 D(4,7,10,9)      =         2.267153	     129.898280
	 D(4,7,10,14)     =        -1.919141	    -109.958664
	 D(5,7,10,8)      =        -1.918094	    -109.898716
	 D(5,7,10,9)      =         0.170573	       9.773128
	 D(5,7,10,14)     =         2.267465	     129.916183
	 D(6,7,10,8)      =         2.276902	     130.456891
	 D(6,7,10,9)      =        -1.917615	    -109.871265
	 D(6,7,10,14)     =         0.179277	      10.271790
	 D(7,10,14,11)    =         3.140191	     179.919672
	 D(7,10,14,12)    =         1.046091	      59.936573
	 D(7,10,14,13)    =        -1.047139	     -59.996661
	 D(8,10,14,11)    =         1.042131	      59.709717
	 D(8,10,14,12)    =        -1.051969	     -60.273382
	 D(8,10,14,13)    =         3.137987	     179.793385
	 D(9,10,14,11)    =        -1.042704	     -59.742533
	 D(9,10,14,12)    =        -3.136804	    -179.725632
	 D(9,10,14,13)    =         1.053151	      60.341134

	Current energy   :      -158.4498144942

	Energy change for the previous step:
		Projected    :        -0.0078312808
		Actual       :        -0.0059461329

	Performing BFGS update.
	Previous computed or guess Hessian on step 1.
	Steps to be used in Hessian update: 1
	Adding user-defined constraint: Fragment 1; Coordinate 49:
		Value =    -1.919141; Fixed value    =    -1.919860
		Force =    -0.000378; Force constant =     0.525000
	Removing off-diagonal coupling between coordinate 49 and others.
	Taking RFO optimization step.
	Going to follow RFO solution 1.
	Using RFO vector 1.

	Determining step-restricting scale parameter for RS-RFO.
	Maximum step size allowed    0.10000

	 Iter      |step|        alpha        rfo_root  
	------------------------------------------------
	    0     0.20647       1.00000           1
	    1     0.15795       5.98132           1
	    2     0.12383      16.49067           1
	    3     0.10636      28.33991           1
	    4     0.10064      34.10276           1
	    5     0.10001      34.82293           1
	------------------------------------------------
	Norm of target step-size    0.10001
	Projected energy change by RFO approximation:        -0.0043474879

	Back-transformation to cartesian coordinates...
	Successfully converged to displaced geometry.

	--- Internal Coordinate Step in ANG or DEG, aJ/ANG or AJ/DEG ---
	 ---------------------------------------------------------------------------
	   Coordinate                Previous        Force       Change         New 
	   ----------                --------       ------       ------       ------
	    1 R(1,4)          =      1.084701     0.099857     0.012421     1.097122
	    2 R(2,4)          =      1.085314     0.095119     0.011620     1.096934
	    3 R(3,4)          =      1.084148     0.099034     0.012344     1.096492
	    4 R(4,7)          =      1.542717    -0.001739    -0.002258     1.540459
	    5 R(5,7)          =      1.084929     0.096061     0.011847     1.096776
	    6 R(6,7)          =      1.084421     0.099245     0.012525     1.096945
	    7 R(7,10)         =      1.549570     0.047470     0.005123     1.554693
	    8 R(8,10)         =      1.084102     0.101193     0.012734     1.096837
	    9 R(9,10)         =      1.084416     0.098991     0.012172     1.096588
	   10 R(10,14)        =      1.541889     0.001626    -0.001746     1.540143
	   11 R(11,14)        =      1.084840     0.097961     0.011929     1.096769
	   12 R(12,14)        =      1.084839     0.099410     0.012367     1.097206
	   13 R(13,14)        =      1.084293     0.098309     0.012261     1.096554
	   14 B(1,4,2)        =    109.065376    -0.000260    -0.695971   108.369405
	   15 B(1,4,3)        =    109.190846    -0.000220    -0.661901   108.528945
	   16 B(1,4,7)        =    109.726306     0.000204     0.610480   110.336785
	   17 B(2,4,3)        =    109.051563    -0.000242    -0.637507   108.414055
	   18 B(2,4,7)        =    110.074051     0.000328     0.795102   110.869153
	   19 B(3,4,7)        =    109.711862     0.000180     0.540653   110.252516
	   20 B(4,7,5)        =    109.085099    -0.000182    -0.338251   108.746847
	   21 B(4,7,6)        =    109.230390    -0.000152    -0.250716   108.979674
	   22 B(4,7,10)       =    110.551989     0.000578     1.292054   111.844042
	   23 B(5,7,6)        =    109.345812    -0.000080    -0.586119   108.759694
	   24 B(5,7,10)       =    109.362969    -0.000048     0.021540   109.384509
	   25 B(6,7,10)       =    109.246316    -0.000122    -0.172196   109.074120
	   26 B(7,10,8)       =    109.237031    -0.000122    -0.170642   109.066389
	   27 B(7,10,9)       =    109.401851    -0.000053     0.007758   109.409609
	   28 B(7,10,14)      =    110.557845     0.000578     1.289249   111.847094
	   29 B(8,10,9)       =    109.353727    -0.000081    -0.588892   108.764835
	   30 B(8,10,14)      =    109.195535    -0.000149    -0.241143   108.954392
	   31 B(9,10,14)      =    109.076568    -0.000179    -0.330041   108.746528
	   32 B(10,14,11)     =    110.109240     0.000324     0.781487   110.890727
	   33 B(10,14,12)     =    109.743655     0.000201     0.600222   110.343878
	   34 B(10,14,13)     =    109.758498     0.000175     0.525634   110.284131
	   35 B(11,14,12)     =    108.998807    -0.000253    -0.674723   108.324084
	   36 B(11,14,13)     =    109.072632    -0.000241    -0.638275   108.434357
	   37 B(12,14,13)     =    109.135680    -0.000215    -0.644343   108.491337
	   38 D(1,4,7,5)      =   -179.789850     0.000031     0.475301  -179.314549
	   39 D(1,4,7,6)      =    -60.321421    -0.000037    -0.577124   -60.898545
	   40 D(1,4,7,10)     =     59.918570    -0.000011    -0.141299    59.777270
	   41 D(2,4,7,5)      =    -59.757477     0.000034     0.508761   -59.248716
	   42 D(2,4,7,6)      =     59.710952    -0.000034    -0.543664    59.167288
	   43 D(2,4,7,10)     =    179.950943    -0.000008    -0.107839   179.843104
	   44 D(3,4,7,5)      =     60.248754     0.000039     0.569063    60.817817
	   45 D(3,4,7,6)      =    179.717183    -0.000029    -0.483362   179.233821
	   46 D(3,4,7,10)     =    -60.042826    -0.000003    -0.047538   -60.090364
	   47 D(4,7,10,8)     =     10.226437     0.000029     0.501048    10.727485
	   48 D(4,7,10,9)     =    129.898280    -0.000017    -0.312561   129.585720
	   49 D(4,7,10,14)    =   -109.958664     0.000007     0.100199  -109.858466
	   50 D(5,7,10,8)     =   -109.898716     0.000005     0.088854  -109.809862
	   51 D(5,7,10,9)     =      9.773128    -0.000042    -0.724755     9.048373
	   52 D(5,7,10,14)    =    129.916183    -0.000017    -0.311995   129.604187
	   53 D(6,7,10,8)     =    130.456891     0.000051     0.891442   131.348333
	   54 D(6,7,10,9)     =   -109.871265     0.000004     0.077833  -109.793432
	   55 D(6,7,10,14)    =     10.271790     0.000029     0.490593    10.762383
	   56 D(7,10,14,11)   =    179.919672    -0.000007    -0.092880   179.826791
	   57 D(7,10,14,12)   =     59.936573    -0.000011    -0.137535    59.799038
	   58 D(7,10,14,13)   =    -59.996661    -0.000003    -0.049931   -60.046591
	   59 D(8,10,14,11)   =     59.709717    -0.000033    -0.534075    59.175643
	   60 D(8,10,14,12)   =    -60.273382    -0.000037    -0.578729   -60.852111
	   61 D(8,10,14,13)   =    179.793385    -0.000029    -0.491125   179.302260
	   62 D(9,10,14,11)   =    -59.742533     0.000034     0.510630   -59.231903
	   63 D(9,10,14,12)   =   -179.725632     0.000031     0.465976  -179.259657
	   64 D(9,10,14,13)   =     60.341134     0.000038     0.553580    60.894714
	 ---------------------------------------------------------------------------
	 Forces used to impose fixed constraints are not included.
	  Forces zeroed: 49 

  ==> Convergence Check <==

  Measures of convergence in internal coordinates in au.
  Criteria marked as inactive (o), active & met (*), and active & unmet ( ).
  ---------------------------------------------------------------------------------------------
   Step     Total Energy     Delta E     MAX Force     RMS Force      MAX Disp      RMS Disp   
  ---------------------------------------------------------------------------------------------
    Convergence Criteria    1.00e-06 *    3.00e-04 *             o    1.20e-03 *             o
  ---------------------------------------------------------------------------------------------
      2    -158.44981449   -5.95e-03      1.23e-02      5.30e-03 o    2.41e-02      1.25e-02 o  ~
  ---------------------------------------------------------------------------------------------

	Writing optimization data to binary file.
	Structure for next step:
	Cartesian Geometry (in Angstrom)
	    H    -2.0675669019   0.1975196622   0.0241116402
	    H    -1.9162599098   1.8368942551  -0.6504453871
	    H    -1.5997605177   0.4203978809  -1.6794240807
	    C    -1.4912412658   0.8257722192  -0.6664135035
	    H     0.5421304311   1.4918096641  -0.9557554321
	    H     0.0793867094   1.2692973488   0.7519913792
	    C    -0.0062798365   0.8481668245  -0.2572654794
	    H    -0.0808995441  -1.2697838477  -0.7501347815
	    H     1.5518639204  -0.5593390844  -0.8436159437
	    C     0.6183623851  -0.5754791579  -0.2684459700
	    H     1.3594142673  -2.0847546405   1.1288912163
	    H     0.0020173388  -1.1181188294   1.7505960064
	    H     1.6308378280  -0.4061661547   1.6529243424
	    C     0.9225984647  -1.0790619446   1.1548900455
			--------------------------
			 OPTKING Finished Execution 
			--------------------------

    Structure for next step:
    Molecular point group: c1
    Full point group: C1

    Geometry (in Angstrom), charge = 0, multiplicity = 1:

    H           -2.067886077845     0.197368271879     0.024358236904
    H           -1.916579085730     1.836742864746    -0.650198790471
    H           -1.600079693698     0.420246490550    -1.679177483981
    C           -1.491560441746     0.825620828892    -0.666166906870
    H            0.541811255115     1.491658273788    -0.955508835453
    H            0.079067533446     1.269145958475     0.752237975877
    C           -0.006599012415     0.848015434150    -0.257018882725
    H           -0.081218720076    -1.269935238011    -0.749888184811
    H            1.551544744391    -0.559490474726    -0.843369347045
    C            0.618043209121    -0.575630548175    -0.268199373314
    H            1.359095091292    -2.084906030775     1.129137812930
    H            0.001698162797    -1.118270219713     1.750842603021
    H            1.630518651995    -0.406317544994     1.653170939102
    C            0.922279288756    -1.079213334903     1.155136642203

gradient() will perform analytic gradient computation.

*** tstart() called on lski1497
*** at Tue Feb 21 18:21:25 2017


         ---------------------------------------------------------
                                   SCF
            by Justin Turney, Rob Parrish, and Andy Simmonett
                              RKS Reference
                        1 Threads,   1000 MiB Core
         ---------------------------------------------------------

  ==> Geometry <==

    Molecular point group: c1
    Full point group: C1

    Geometry (in Angstrom), charge = 0, multiplicity = 1:

       Center              X                  Y                   Z               Mass       
    ------------   -----------------  -----------------  -----------------  -----------------
           H         -2.067886077845     0.197368271879     0.024358236904     1.007825032070
           H         -1.916579085730     1.836742864746    -0.650198790471     1.007825032070
           H         -1.600079693698     0.420246490550    -1.679177483981     1.007825032070
           C         -1.491560441746     0.825620828892    -0.666166906870    12.000000000000
           H          0.541811255115     1.491658273788    -0.955508835453     1.007825032070
           H          0.079067533446     1.269145958475     0.752237975877     1.007825032070
           C         -0.006599012415     0.848015434150    -0.257018882725    12.000000000000
           H         -0.081218720076    -1.269935238011    -0.749888184811     1.007825032070
           H          1.551544744391    -0.559490474726    -0.843369347045     1.007825032070
           C          0.618043209121    -0.575630548175    -0.268199373314    12.000000000000
           H          1.359095091292    -2.084906030775     1.129137812930     1.007825032070
           H          0.001698162797    -1.118270219713     1.750842603021     1.007825032070
           H          1.630518651995    -0.406317544994     1.653170939102     1.007825032070
           C          0.922279288756    -1.079213334903     1.155136642203    12.000000000000

  Running in c1 symmetry.

  Rotational constants: A =      0.55199  B =      0.13103  C =      0.12787 [cm^-1]
  Rotational constants: A =  16548.16079  B =   3928.07173  C =   3833.56325 [MHz]
  Nuclear repulsion =  130.761150640674458

  Charge       = 0
  Multiplicity = 1
  Electrons    = 34
  Nalpha       = 17
  Nbeta        = 17

  ==> Algorithm <==

  SCF Algorithm Type is DF.
  DIIS enabled.
  MOM disabled.
  Fractional occupation disabled.
  Guess Type is READ.
  Energy threshold   = 1.00e-08
  Density threshold  = 1.00e-08
  Integral threshold = 0.00e+00

  ==> Primary Basis <==

  Basis Set: CC-PVDZ
    Number of shells: 54
    Number of basis function: 106
    Number of Cartesian functions: 110
    Spherical Harmonics?: true
    Max angular momentum: 2

  ==> DFT Potential <==

   => B3LYP Composite Functional <= 

    B3LYP Hybrid-GGA Exchange-Correlation Functional (VWN1-RPA)

    P.J. Stephens et. al., J. Phys. Chem., 98, 11623-11627, 1994

    Points   =           5000
    Deriv    =              1
    GGA      =           TRUE
    Meta     =          FALSE

    X_LRC        =          FALSE
    X_Hybrid     =           TRUE
    X_Alpha      =   2.000000E-01
    X_Omega      =   0.000000E+00
    C_LRC        =          FALSE
    C_Hybrid     =          FALSE
    C_Alpha      =   0.000000E+00
    C_Omega      =   0.000000E+00

   => Exchange Functionals <=

    0.8000    B3_X
    0.2000      HF 

   => Correlation Functionals <=

    0.1900 VWN3RPA_C
    0.8100   LYP_C

   => Molecular Quadrature <=

    Radial Scheme    =       TREUTLER
    Pruning Scheme   =           FLAT
    Nuclear Scheme   =       TREUTLER

    BS radius alpha  =              1
    Pruning alpha    =              1
    Radial Points    =             75
    Spherical Points =            302
    Total Points     =         312786
    Total Blocks     =            270
    Max Points       =           4995
    Max Functions    =            106

  ==> Pre-Iterations <==

   -------------------------------------------------------
    Irrep   Nso     Nmo     Nalpha   Nbeta   Ndocc  Nsocc
   -------------------------------------------------------
     A        106     106       0       0       0       0
   -------------------------------------------------------
    Total     106     106      17      17      17       0
   -------------------------------------------------------

  ==> Integral Setup <==

  ==> DFJK: Density-Fitted J/K Matrices <==

    J tasked:                  Yes
    K tasked:                  Yes
    wK tasked:                  No
    OpenMP threads:              1
    Integrals threads:           1
    Memory (MB):               715
    Algorithm:                Core
    Integral Cache:           NONE
    Schwarz Cutoff:          1E-12
    Fitting Condition:       1E-12

   => Auxiliary Basis Set <=

  Basis Set: 
    Number of shells: 186
    Number of basis function: 510
    Number of Cartesian functions: 574
    Spherical Harmonics?: true
    Max angular momentum: 3

  Minimum eigenvalue in the overlap matrix is 4.9768900654E-03.
  Using Symmetric Orthogonalization.
  SCF Guess was Projection but file not found.
  Switching over to SAD guess.

  SCF Guess: Superposition of Atomic Densities via on-the-fly atomic UHF.

  ==> Iterations <==

                           Total Energy        Delta E     RMS |[F,P]|

   @DF-RKS iter   0:  -158.92940749070877   -1.58929e+02   3.25266e-02 
   @DF-RKS iter   1:  -158.31852195968105    6.10886e-01   4.50887e-03 
   @DF-RKS iter   2:  -158.26891977056206    4.96022e-02   5.40584e-03 DIIS
   @DF-RKS iter   3:  -158.45185298890789   -1.82933e-01   3.48350e-04 DIIS
   @DF-RKS iter   4:  -158.45253660771431   -6.83619e-04   1.12448e-04 DIIS
   @DF-RKS iter   5:  -158.45259832146726   -6.17138e-05   4.68798e-05 DIIS
   @DF-RKS iter   6:  -158.45261043065415   -1.21092e-05   5.87311e-06 DIIS
   @DF-RKS iter   7:  -158.45261064167161   -2.11017e-07   9.89697e-07 DIIS
   @DF-RKS iter   8:  -158.45261064828694   -6.61532e-09   1.39898e-07 DIIS
   @DF-RKS iter   9:  -158.45261064840821   -1.21275e-10   4.37868e-08 DIIS
   @DF-RKS iter  10:  -158.45261064841799   -9.77707e-12   1.91366e-08 DIIS
   @DF-RKS iter  11:  -158.45261064841975   -1.76215e-12   2.51712e-09 DIIS

  ==> Post-Iterations <==

    Orbital Energies (a.u.)
    -----------------------

    Doubly Occupied:                                                      

       1A    -10.177899     2A    -10.177743     3A    -10.174197  
       4A    -10.174161     5A     -0.788634     6A     -0.718529  
       7A     -0.628760     8A     -0.570481     9A     -0.458275  
      10A     -0.439366    11A     -0.417846    12A     -0.391407  
      13A     -0.364917    14A     -0.359815    15A     -0.327607  
      16A     -0.317935    17A     -0.315857  

    Virtual:                                                              

      18A      0.060183    19A      0.089292    20A      0.096100  
      21A      0.103409    22A      0.133882    23A      0.143310  
      24A      0.143445    25A      0.149197    26A      0.152121  
      27A      0.173526    28A      0.215142    29A      0.254111  
      30A      0.258080    31A      0.398558    32A      0.421840  
      33A      0.425998    34A      0.446158    35A      0.466699  
      36A      0.478473    37A      0.519782    38A      0.582051  
      39A      0.592462    40A      0.622761    41A      0.630985  
      42A      0.649269    43A      0.653189    44A      0.656687  
      45A      0.664712    46A      0.676265    47A      0.685026  
      48A      0.693013    49A      0.697340    50A      0.723500  
      51A      0.725629    52A      0.757157    53A      0.868621  
      54A      0.882871    55A      0.967196    56A      1.120812  
      57A      1.120994    58A      1.171759    59A      1.199205  
      60A      1.236320    61A      1.359948    62A      1.398668  
      63A      1.421907    64A      1.436333    65A      1.444459  
      66A      1.454596    67A      1.566085    68A      1.575119  
      69A      1.606091    70A      1.628270    71A      1.641947  
      72A      1.646631    73A      1.655062    74A      1.676022  
      75A      1.685551    76A      1.689062    77A      1.712704  
      78A      1.717552    79A      1.728438    80A      1.741801  
      81A      1.756028    82A      1.805096    83A      1.839451  
      84A      1.897086    85A      1.952901    86A      2.004086  
      87A      2.031491    88A      2.054772    89A      2.073501  
      90A      2.144812    91A      2.188508    92A      2.209280  
      93A      2.236401    94A      2.267261    95A      2.290381  
      96A      2.305938    97A      2.421424    98A      2.437165  
      99A      2.469608   100A      2.484758   101A      2.511615  
     102A      2.561982   103A      2.572906   104A      2.586291  
     105A      2.637373   106A      2.699665  

    Final Occupation by Irrep:
              A 
    DOCC [    17 ]

  Energy converged.

  @DF-RKS Final Energy:  -158.45261064841975

   => Energetics <=

    Nuclear Repulsion Energy =            130.7611506406744581
    One-Electron Energy =                -470.0133594717842698
    Two-Electron Energy =                 201.3961191500195866
    DFT Exchange-Correlation Energy =     -20.5965209673295639
    Empirical Dispersion Energy =           0.0000000000000000
    PCM Polarization Energy =               0.0000000000000000
    EFP Energy =                            0.0000000000000000
    Total Energy =                       -158.4526106484197499


  Saving occupied orbitals to File 180.

*** tstop() called on lski1497 at Tue Feb 21 18:23:36 2017
Module time:
	user time   =     115.92 seconds =       1.93 minutes
	system time =       1.57 seconds =       0.03 minutes
	total time  =        131 seconds =       2.18 minutes
Total time:
	user time   =     422.89 seconds =       7.05 minutes
	system time =       5.90 seconds =       0.10 minutes
	total time  =        472 seconds =       7.87 minutes


Properties will be evaluated at   0.000000,   0.000000,   0.000000 Bohr

Properties computed using the SCF density matrix

  Nuclear Dipole Moment: (a.u.)
     X:    -0.4706      Y:    -0.2098      Z:     0.4046

  Electronic Dipole Moment: (a.u.)
     X:     0.4906      Y:     0.2186      Z:    -0.4219

  Dipole Moment: (a.u.)
     X:     0.0199      Y:     0.0088      Z:    -0.0173     Total:     0.0278

  Dipole Moment: (Debye)
     X:     0.0507      Y:     0.0224      Z:    -0.0439     Total:     0.0707


*** tstart() called on lski1497
*** at Tue Feb 21 18:23:36 2017


         ------------------------------------------------------------
                                   SCF GRAD                          
                          Rob Parrish, Justin Turney,                
                       Andy Simmonett, and Alex Sokolov              
         ------------------------------------------------------------

  ==> Geometry <==

    Molecular point group: c1
    Full point group: C1

    Geometry (in Angstrom), charge = 0, multiplicity = 1:

       Center              X                  Y                   Z               Mass       
    ------------   -----------------  -----------------  -----------------  -----------------
           H         -2.067886077845     0.197368271879     0.024358236904     1.007825032070
           H         -1.916579085730     1.836742864746    -0.650198790471     1.007825032070
           H         -1.600079693698     0.420246490550    -1.679177483981     1.007825032070
           C         -1.491560441746     0.825620828892    -0.666166906870    12.000000000000
           H          0.541811255115     1.491658273788    -0.955508835453     1.007825032070
           H          0.079067533446     1.269145958475     0.752237975877     1.007825032070
           C         -0.006599012415     0.848015434150    -0.257018882725    12.000000000000
           H         -0.081218720076    -1.269935238011    -0.749888184811     1.007825032070
           H          1.551544744391    -0.559490474726    -0.843369347045     1.007825032070
           C          0.618043209121    -0.575630548175    -0.268199373314    12.000000000000
           H          1.359095091292    -2.084906030775     1.129137812930     1.007825032070
           H          0.001698162797    -1.118270219713     1.750842603021     1.007825032070
           H          1.630518651995    -0.406317544994     1.653170939102     1.007825032070
           C          0.922279288756    -1.079213334903     1.155136642203    12.000000000000

  Nuclear repulsion =  130.761150640674458

  ==> Basis Set <==

  Basis Set: CC-PVDZ
    Number of shells: 54
    Number of basis function: 106
    Number of Cartesian functions: 110
    Spherical Harmonics?: true
    Max angular momentum: 2

  ==> DFJKGrad: Density-Fitted SCF Gradients <==

    Gradient:                    1
    J tasked:                  Yes
    K tasked:                  Yes
    wK tasked:                  No
    OpenMP threads:              1
    Integrals threads:           1
    Memory (MB):               715
    Schwarz Cutoff:          0E+00
    Fitting Condition:       1E-12

   => Auxiliary Basis Set <=

  Basis Set: 
    Number of shells: 186
    Number of basis function: 510
    Number of Cartesian functions: 574
    Spherical Harmonics?: true
    Max angular momentum: 3

  ==> DFT Potential <==

   => B3LYP Composite Functional <= 

    B3LYP Hybrid-GGA Exchange-Correlation Functional (VWN1-RPA)

    P.J. Stephens et. al., J. Phys. Chem., 98, 11623-11627, 1994

    Points   =           5000
    Deriv    =              1
    GGA      =           TRUE
    Meta     =          FALSE

    X_LRC        =          FALSE
    X_Hybrid     =           TRUE
    X_Alpha      =   2.000000E-01
    X_Omega      =   0.000000E+00
    C_LRC        =          FALSE
    C_Hybrid     =          FALSE
    C_Alpha      =   0.000000E+00
    C_Omega      =   0.000000E+00

   => Exchange Functionals <=

    0.8000    B3_X
    0.2000      HF 

   => Correlation Functionals <=

    0.1900 VWN3RPA_C
    0.8100   LYP_C

   => Molecular Quadrature <=

    Radial Scheme    =       TREUTLER
    Pruning Scheme   =           FLAT
    Nuclear Scheme   =       TREUTLER

    BS radius alpha  =              1
    Pruning alpha    =              1
    Radial Points    =             75
[...]

  ==> Basis Set <==

  Basis Set: CC-PVDZ
    Number of shells: 54
    Number of basis function: 106
    Number of Cartesian functions: 110
    Spherical Harmonics?: true
    Max angular momentum: 2

  ==> DFJKGrad: Density-Fitted SCF Gradients <==

    Gradient:                    1
    J tasked:                  Yes
    K tasked:                  Yes
    wK tasked:                  No
    OpenMP threads:              1
    Integrals threads:           1
    Memory (MB):               715
    Schwarz Cutoff:          0E+00
    Fitting Condition:       1E-12

   => Auxiliary Basis Set <=

  Basis Set: 
    Number of shells: 186
    Number of basis function: 510
    Number of Cartesian functions: 574
    Spherical Harmonics?: true
    Max angular momentum: 3

  ==> DFT Potential <==

   => B3LYP Composite Functional <= 

    B3LYP Hybrid-GGA Exchange-Correlation Functional (VWN1-RPA)

    P.J. Stephens et. al., J. Phys. Chem., 98, 11623-11627, 1994

    Points   =           5000
    Deriv    =              1
    GGA      =           TRUE
    Meta     =          FALSE

    X_LRC        =          FALSE
    X_Hybrid     =           TRUE
    X_Alpha      =   2.000000E-01
    X_Omega      =   0.000000E+00
    C_LRC        =          FALSE
    C_Hybrid     =          FALSE
    C_Alpha      =   0.000000E+00
    C_Omega      =   0.000000E+00

   => Exchange Functionals <=

    0.8000    B3_X
    0.2000      HF 

   => Correlation Functionals <=

    0.1900 VWN3RPA_C
    0.8100   LYP_C

   => Molecular Quadrature <=

    Radial Scheme    =       TREUTLER
    Pruning Scheme   =           FLAT
    Nuclear Scheme   =       TREUTLER

    BS radius alpha  =              1
    Pruning alpha    =              1
    Radial Points    =             75
    Spherical Points =            302
    Total Points     =         312788
    Total Blocks     =            270
    Max Points       =           4887
    Max Functions    =            106


  -Total Gradient:
     Atom            X                  Y                   Z
    ------   -----------------  -----------------  -----------------
       1       -0.000002415902    -0.000001975365     0.000009401771
       2       -0.000009862481     0.000011752089    -0.000004352588
       3       -0.000015453661    -0.000005316653    -0.000010526272
       4        0.000439165217     0.000156293326    -0.001427263593
       5       -0.000006497537    -0.000004659649     0.000008802725
       6        0.000009320856     0.000001835234     0.000007999795
       7       -0.000045197177     0.000055038911     0.001953390720
       8       -0.000006245854    -0.000000562447    -0.000011144549
       9       -0.000010224234    -0.000002627201     0.000005513129
      10       -0.001710720039    -0.000835828172    -0.000443551576
      11        0.000009409577    -0.000012520020     0.000005241084
      12       -0.000009296154    -0.000003229357     0.000000249147
      13        0.000006357592     0.000001051266     0.000018211015
      14        0.001352943527     0.000641322428    -0.000113075508


*** tstop() called on lski1497 at Tue Feb 21 18:36:20 2017
Module time:
	user time   =      38.62 seconds =       0.64 minutes
	system time =       0.64 seconds =       0.01 minutes
	total time  =         43 seconds =       0.72 minutes
Total time:
	user time   =    1092.19 seconds =      18.20 minutes
	system time =      15.20 seconds =       0.25 minutes
	total time  =       1236 seconds =      20.60 minutes

			-----------------------------------------
			 OPTKING 2.0: for geometry optimizations 
			  - R.A. King,  Bethel University        
			-----------------------------------------

	Previous internal coordinate definitions found.
	---Fragment 1 Geometry and Gradient---
	 H          -3.9688964679        0.3868265082       -0.0032727285
	 H          -3.6404212410        3.5010619436       -1.2302879568
	 H          -3.0692216694        0.8409358084       -3.2096453238
	 C          -2.8278328066        1.5829641891       -1.2760659193
	 H           1.0143502208        2.8252818985       -1.8078874448
	 H           0.1603733927        2.4589451431        1.3837531654
	 C          -0.0383097426        1.5849087582       -0.5019703970
	 H          -0.0943779758       -2.4295923760       -1.4405232048
	 H           2.9347499772       -1.0685663550       -1.5890211908
	 C           1.1720822876       -1.0805643348       -0.4732721118
	 H           2.5828010495       -3.9715336925        2.1400608732
	 H           0.0530569599       -2.1287702750        3.3715476314
	 H           3.1370120772       -0.8107455240        3.1513232502
	 C           1.7688554653       -2.0540372075        2.1869716436
	            -0.0000024159       -0.0000019754        0.0000094018
	            -0.0000098625        0.0000117521       -0.0000043526
	            -0.0000154537       -0.0000053167       -0.0000105263
	             0.0004391652        0.0001562933       -0.0014272636
	            -0.0000064975       -0.0000046596        0.0000088027
	             0.0000093209        0.0000018352        0.0000079998
	            -0.0000451972        0.0000550389        0.0019533907
	            -0.0000062459       -0.0000005624       -0.0000111445
	            -0.0000102242       -0.0000026272        0.0000055131
	            -0.0017107200       -0.0008358282       -0.0004435516
	             0.0000094096       -0.0000125200        0.0000052411
	            -0.0000092962       -0.0000032294        0.0000002491
	             0.0000063576        0.0000010513        0.0000182110
	             0.0013529435        0.0006413224       -0.0001130755

	---Fragment 1 Intrafragment Coordinates---
	 - Coordinate -           - BOHR/RAD -       - ANG/DEG -
	 R(1,4)           =         2.086330	       1.104038
	 R(2,4)           =         2.083625	       1.102607
	 R(3,4)           =         2.085091	       1.103383
	 R(4,7)           =         2.894938	       1.531935
	 R(5,7)           =         2.086154	       1.103945
	 R(6,7)           =         2.087910	       1.104874
	 R(7,10)          =         2.927562	       1.549199
	 R(8,10)          =         2.087911	       1.104875
	 R(9,10)          =         2.086154	       1.103945
	 R(10,14)         =         2.894941	       1.531937
	 R(11,14)         =         2.083627	       1.102608
	 R(12,14)         =         2.086329	       1.104038
	 R(13,14)         =         2.085090	       1.103382
	 B(1,4,2)         =         1.876620	     107.522397
	 B(1,4,3)         =         1.873798	     107.360733
	 B(1,4,7)         =         1.943640	     111.362348
	 B(2,4,3)         =         1.878454	     107.627506
	 B(2,4,7)         =         1.949045	     111.672071
	 B(3,4,7)         =         1.938805	     111.085369
	 B(4,7,5)         =         1.895714	     108.616419
	 B(4,7,6)         =         1.910786	     109.479978
	 B(4,7,10)        =         1.982751	     113.603291
	 B(5,7,6)         =         1.842588	     105.572511
	 B(5,7,10)        =         1.916500	     109.807362
	 B(6,7,10)        =         1.910221	     109.447597
	 B(7,10,8)        =         1.910222	     109.447656
	 B(7,10,9)        =         1.916498	     109.807273
	 B(7,10,14)       =         1.982750	     113.603199
	 B(8,10,9)        =         1.842589	     105.572546
	 B(8,10,14)       =         1.910787	     109.480045
	 B(9,10,14)       =         1.895715	     108.616446
	 B(10,14,11)      =         1.949046	     111.672131
	 B(10,14,12)      =         1.943636	     111.362163
	 B(10,14,13)      =         1.938805	     111.085363
	 B(11,14,12)      =         1.876622	     107.522498
	 B(11,14,13)      =         1.878452	     107.627395
	 B(12,14,13)      =         1.873801	     107.360884
	 D(1,4,7,5)       =        -3.126507	    -179.135634
	 D(1,4,7,6)       =        -1.122668	     -64.324128
	 D(1,4,7,10)      =         1.018525	      58.357200
	 D(2,4,7,5)       =        -1.028282	     -58.916224
	 D(2,4,7,6)       =         0.975557	      55.895282
	 D(2,4,7,10)      =         3.116750	     178.576610
	 D(3,4,7,5)       =         1.068963	      61.247086
	 D(3,4,7,6)       =         3.072802	     176.058591
	 D(3,4,7,10)      =        -1.069190	     -61.260081
	 D(4,7,10,8)      =         0.225922	      12.944396
	 D(4,7,10,9)      =         2.240963	     128.397710
	 D(4,7,10,14)     =        -1.915583	    -109.754832
	 D(5,7,10,8)      =        -1.900719	    -108.903155
	 D(5,7,10,9)      =         0.114322	       6.550159
	 D(5,7,10,14)     =         2.240961	     128.397617
	 D(6,7,10,8)      =         2.367427	     135.643556
	 D(6,7,10,9)      =        -1.900718	    -108.903129
	 D(6,7,10,14)     =         0.225921	      12.944329
	 D(7,10,14,11)    =         3.116770	     178.577762
	 D(7,10,14,12)    =         1.018545	      58.358309
	 D(7,10,14,13)    =        -1.069172	     -61.259034
	 D(8,10,14,11)    =         0.975576	      55.896371
	 D(8,10,14,12)    =        -1.122650	     -64.323082
	 D(8,10,14,13)    =         3.072819	     176.059575
	 D(9,10,14,11)    =        -1.028265	     -58.915227
	 D(9,10,14,12)    =        -3.126490	    -179.134680
	 D(9,10,14,13)    =         1.068979	      61.247976

	Current energy   :      -158.4537066151

	Energy change for the previous step:
		Projected    :        -0.0000026062
		Actual       :         0.0000007175

	Performing BFGS update.
	Previous computed or guess Hessian on step 1.
	Steps to be used in Hessian update: 6 5
	Adding user-defined constraint: Fragment 1; Coordinate 49:
		Value =    -1.915583; Fixed value    =    -1.919860
		Force =    -0.002780; Force constant =     0.650000
	Removing off-diagonal coupling between coordinate 49 and others.
	Taking RFO optimization step.
	Going to follow RFO solution 1.
	Using RFO vector 1.
	Norm of target step-size    0.00837
	Projected energy change by RFO approximation:         0.0000016173

	Back-transformation to cartesian coordinates...
	Successfully converged to displaced geometry.

	--- Internal Coordinate Step in ANG or DEG, aJ/ANG or AJ/DEG ---
	 ---------------------------------------------------------------------------
	   Coordinate                Previous        Force       Change         New 
	   ----------                --------       ------       ------       ------
	    1 R(1,4)          =      1.104038    -0.000069     0.000033     1.104071
	    2 R(2,4)          =      1.102607    -0.000120     0.000030     1.102637
	    3 R(3,4)          =      1.103383    -0.000111     0.000027     1.103410
	    4 R(4,7)          =      1.531935     0.000108     0.000019     1.531954
	    5 R(5,7)          =      1.103945     0.000096    -0.000008     1.103937
	    6 R(6,7)          =      1.104874    -0.000073    -0.000008     1.104866
	    7 R(7,10)         =      1.549199    -0.000296     0.000058     1.549257
	    8 R(8,10)         =      1.104875    -0.000077    -0.000007     1.104868
	    9 R(9,10)         =      1.103945     0.000097    -0.000007     1.103938
	   10 R(10,14)        =      1.531937     0.000101     0.000018     1.531955
	   11 R(11,14)        =      1.102608    -0.000124     0.000031     1.102639
	   12 R(12,14)        =      1.104038    -0.000066     0.000034     1.104072
	   13 R(13,14)        =      1.103382    -0.000109     0.000028     1.103410
	   14 B(1,4,2)        =    107.522397     0.000000     0.000296   107.522693
	   15 B(1,4,3)        =    107.360733     0.000000     0.002688   107.363421
	   16 B(1,4,7)        =    111.362348     0.000001     0.004507   111.366855
	   17 B(2,4,3)        =    107.627506     0.000001     0.000237   107.627743
	   18 B(2,4,7)        =    111.672071    -0.000000    -0.002955   111.669116
	   19 B(3,4,7)        =    111.085369    -0.000002    -0.004549   111.080820
	   20 B(4,7,5)        =    108.616419    -0.000002     0.005775   108.622193
	   21 B(4,7,6)        =    109.479978     0.000001    -0.011224   109.468754
	   22 B(4,7,10)       =    113.603291     0.000001     0.000995   113.604287
	   23 B(5,7,6)        =    105.572511     0.000000     0.014246   105.586757
	   24 B(5,7,10)       =    109.807362    -0.000000     0.000004   109.807366
	   25 B(6,7,10)       =    109.447597    -0.000000    -0.008721   109.438876
	   26 B(7,10,8)       =    109.447656    -0.000000    -0.008880   109.438775
	   27 B(7,10,9)       =    109.807273    -0.000000     0.000281   109.807555
	   28 B(7,10,14)      =    113.603199     0.000001     0.001004   113.604203
	   29 B(8,10,9)       =    105.572546     0.000000     0.014275   105.586821
	   30 B(8,10,14)      =    109.480045     0.000001    -0.011452   109.468593
	   31 B(9,10,14)      =    108.616446    -0.000002     0.005851   108.622297
	   32 B(10,14,11)     =    111.672131    -0.000000    -0.003230   111.668900
	   33 B(10,14,12)     =    111.362163     0.000001     0.004495   111.366658
	   34 B(10,14,13)     =    111.085363    -0.000002    -0.004768   111.080595
	   35 B(11,14,12)     =    107.522498     0.000000     0.000415   107.522914
	   36 B(11,14,13)     =    107.627395     0.000001     0.000535   107.627930
	   37 B(12,14,13)     =    107.360884     0.000000     0.002812   107.363696
	   38 D(1,4,7,5)      =   -179.135634    -0.000000    -0.111412  -179.247046
	   39 D(1,4,7,6)      =    -64.324128    -0.000000    -0.097341   -64.421470
	   40 D(1,4,7,10)     =     58.357200     0.000000    -0.116324    58.240876
	   41 D(2,4,7,5)      =    -58.916224    -0.000000    -0.109956   -59.026180
	   42 D(2,4,7,6)      =     55.895282    -0.000000    -0.095886    55.799396
	   43 D(2,4,7,10)     =    178.576610     0.000000    -0.114869   178.461741
	   44 D(3,4,7,5)      =     61.247086    -0.000000    -0.114765    61.132321
	   45 D(3,4,7,6)      =    176.058591    -0.000000    -0.100694   175.957897
	   46 D(3,4,7,10)     =    -61.260081     0.000000    -0.119677   -61.379758
	   47 D(4,7,10,8)     =     12.944396    -0.000001    -0.028791    12.915605
	   48 D(4,7,10,9)     =    128.397710    -0.000001    -0.016502   128.381208
	   49 D(4,7,10,14)    =   -109.754832    -0.000001    -0.008025  -109.762857
	   50 D(5,7,10,8)     =   -108.903155    -0.000000    -0.036960  -108.940115
	   51 D(5,7,10,9)     =      6.550159     0.000000    -0.024671     6.525488
	   52 D(5,7,10,14)    =    128.397617    -0.000001    -0.016193   128.381424
	   53 D(6,7,10,8)     =    135.643556    -0.000000    -0.049149   135.594407
	   54 D(6,7,10,9)     =   -108.903129    -0.000000    -0.036860  -108.939989
	   55 D(6,7,10,14)    =     12.944329    -0.000001    -0.028383    12.915946
	   56 D(7,10,14,11)   =    178.577762     0.000000    -0.118036   178.459726
	   57 D(7,10,14,12)   =     58.358309     0.000000    -0.119447    58.238862
	   58 D(7,10,14,13)   =    -61.259034     0.000000    -0.122802   -61.381837
	   59 D(8,10,14,11)   =     55.896371    -0.000000    -0.098683    55.797688
	   60 D(8,10,14,12)   =    -64.323082    -0.000000    -0.100093   -64.423175
	   61 D(8,10,14,13)   =    176.059575    -0.000000    -0.103449   175.956126
	   62 D(9,10,14,11)   =    -58.915227    -0.000000    -0.112706   -59.027934
	   63 D(9,10,14,12)   =   -179.134680    -0.000000    -0.114117  -179.248797
	   64 D(9,10,14,13)   =     61.247976    -0.000000    -0.117472    61.130504
	 ---------------------------------------------------------------------------
	 Forces used to impose fixed constraints are not included.
	  Forces zeroed: 49 

  ==> Convergence Check <==

  Measures of convergence in internal coordinates in au.
  Criteria marked as inactive (o), active & met (*), and active & unmet ( ).
  ---------------------------------------------------------------------------------------------
   Step     Total Energy     Delta E     MAX Force     RMS Force      MAX Disp      RMS Disp   
  ---------------------------------------------------------------------------------------------
    Convergence Criteria    1.00e-06 *    3.00e-04 *             o    1.20e-03 *             o
  ---------------------------------------------------------------------------------------------
      7    -158.45370662    7.18e-07 *    3.59e-05 *    1.40e-05 o    2.14e-03      1.05e-03 o  ~
  ---------------------------------------------------------------------------------------------


  **** Optimization is complete! (in 7 steps) ****

  ==> Optimization Summary <==

  Measures of convergence in internal coordinates in au.
  --------------------------------------------------------------------------------------------------------------- ~
   Step         Total Energy             Delta E       MAX Force       RMS Force        MAX Disp        RMS Disp  ~
  --------------------------------------------------------------------------------------------------------------- ~
      1    -158.443868361327   -158.443868361327      0.02314215      0.00970045      0.02850529      0.01250356  ~
      2    -158.449814494221     -0.005946132894      0.01228260      0.00529699      0.02406443      0.01251651  ~
      3    -158.452610648420     -0.002796154199      0.00408807      0.00201649      0.03139022      0.01250556  ~
      4    -158.453486210573     -0.000875562153      0.00139466      0.00061891      0.03309880      0.01251328  ~
      5    -158.453695247681     -0.000209037108      0.00079143      0.00016662      0.01442919      0.00607676  ~
      6    -158.453707332572     -0.000012084891      0.00012616      0.00003782      0.00297351      0.00140080  ~
      7    -158.453706615055      0.000000717517      0.00006318      0.00001609      0.00214330      0.00104607  ~
  --------------------------------------------------------------------------------------------------------------- ~

	Writing optimization data to binary file.
	Final energy is   -158.4537066150551
	Final (previous) structure:
	Cartesian Geometry (in Angstrom)
	    H    -2.1002495541   0.2046997718  -0.0017318534
	    H    -1.9264279504   1.8526821864  -0.6510403468
	    H    -1.6241621555   0.4450040637  -1.6984711530
	    C    -1.4964246710   0.8376685709  -0.6752650011
	    H     0.5367710184   1.4950747885  -0.9566928315
	    H     0.0848659443   1.3012177269   0.7322506374
	    C    -0.0202726426   0.8386975926  -0.2656312935
	    H    -0.0499426738  -1.2856849115  -0.7622920484
	    H     1.5530028008  -0.5654609609  -0.8408737981
	    C     0.6202392332  -0.5718100184  -0.2504448150
	    H     1.3667594497  -2.1016451132   1.1324714391
	    H     0.0280765339  -1.1264967119   1.7841461642
	    H     1.6600352943  -0.4290280533   1.6676084409
	    C     0.9360379975  -1.0869496758   1.1572955496
	Saving final (previous) structure.
			--------------------------
			 OPTKING Finished Execution 
			--------------------------

    Final optimized geometry and variables:
    Molecular point group: c1
    Full point group: C1

    Geometry (in Angstrom), charge = 0, multiplicity = 1:

    H           -2.100249554069     0.204699771809    -0.001731853352
    H           -1.926427950398     1.852682186402    -0.651040346767
    H           -1.624162155537     0.445004063678    -1.698471153015
    C           -1.496424670969     0.837668570906    -0.675265001146
    H            0.536771018361     1.495074788520    -0.956692831470
    H            0.084865944289     1.301217726876     0.732250637437
    C           -0.020272642636     0.838697592554    -0.265631293471
    H           -0.049942673795    -1.285684911535    -0.762292048409
    H            1.553002800843    -0.565460960919    -0.840873798121
    C            0.620239233209    -0.571810018392    -0.250444815033
    H            1.366759449730    -2.101645113223     1.132471439068
    H            0.028076533933    -1.126496711854     1.784146164205
    H            1.660035294332    -0.429028053282     1.667608440927
    C            0.936037997503    -1.086949675780     1.157295549639

	Cleaning optimization helper files.

*** Psi4 exiting successfully. Buy a developer a beer!
