    -----------------------------------------------------------------------
          Psi4: An Open-Source Ab Initio Electronic Structure Package
                              Psi4 1.0.0 Driver

                          Git: Rev {master} 6a9a71b 

    J. M. Turney, A. C. Simmonett, R. M. Parrish, E. G. Hohenstein,
    F. A. Evangelista, J. T. Fermann, B. J. Mintz, L. A. Burns, J. J. Wilke,
    M. L. Abrams, N. J. Russ, M. L. Leininger, C. L. Janssen, E. T. Seidl,
    W. D. Allen, H. F. Schaefer, R. A. King, E. F. Valeev, C. D. Sherrill,
    and T. D. Crawford, WIREs Comput. Mol. Sci. 2, 556-565 (2012)
    (doi: 10.1002/wcms.93)

                         Additional Contributions by
    A. E. DePrince, U. Bozkaya, A. Yu. Sokolov, D. G. A. Smith, R. Di Remigio,
    R. M. Richard, J. F. Gonthier, H. R. McAlexander, M. Saitow, and
    B. P. Pritchard
    -----------------------------------------------------------------------


    Psi4 started on: Tue Feb 21 19:48:55 2017

    Process ID:  49569
    PSI4DATADIR: /Users/sternc1/anaconda/share/psi4
    Memory level set to 256.000 MB

  ==> Input File <==

--------------------------------------------------------------------------

memory 1000 mb

molecule butane {
  symmetry C1
  0 1 
  H      1.604   0.760   -8.260
  H      1.745   2.388   -8.880
  H      2.043   1.024   -9.930
  C      2.142   1.395   -8.932
  H      4.169   2.051   -9.210
  H      3.731   1.788   -7.539
  C      3.631   1.416   -8.537
  H      5.269   0.035   -8.685
  H      3.929   -0.553   -7.731
  C      4.203   -0.012   -8.612
  H      4.033   -1.721   -9.902
  H      3.908   -0.189   -10.732
  H      2.568   -0.776   -9.778
  C      3.635   -0.729   -9.850
  units Angstrom
}

dih_string = "4 7 10 14 40"
set optking fixed_dihedral = $dih_string

optimize('B3LYP/cc-PVDZ')
--------------------------------------------------------------------------

  Memory set to 1000.000 MiB by Python script.
gradient() will perform analytic gradient computation.

*** tstart() called on lski1497
*** at Tue Feb 21 19:48:59 2017


         ---------------------------------------------------------
                                   SCF
            by Justin Turney, Rob Parrish, and Andy Simmonett
                              RKS Reference
                        1 Threads,   1000 MiB Core
         ---------------------------------------------------------

  ==> Geometry <==

    Molecular point group: c1
    Full point group: C1

    Geometry (in Angstrom), charge = 0, multiplicity = 1:

       Center              X                  Y                   Z               Mass       
    ------------   -----------------  -----------------  -----------------  -----------------
           H         -1.780902560730     0.248885860623     0.736970686905     1.007825032070
           H         -1.639902560730     1.876885860623     0.116970686905     1.007825032070
           H         -1.341902560730     0.512885860623    -0.933029313095     1.007825032070
           C         -1.242902560730     0.883885860623     0.064970686905    12.000000000000
           H          0.784097439270     1.539885860623    -0.213029313095     1.007825032070
           H          0.346097439270     1.276885860623     1.457970686905     1.007825032070
           C          0.246097439270     0.904885860623     0.459970686905    12.000000000000
           H          1.884097439270    -0.476114139377     0.311970686905     1.007825032070
           H          0.544097439270    -1.064114139377     1.265970686905     1.007825032070
           C          0.818097439270    -0.523114139377     0.384970686905    12.000000000000
           H          0.648097439270    -2.232114139377    -0.905029313095     1.007825032070
           H          0.523097439270    -0.700114139377    -1.735029313095     1.007825032070
           H         -0.816902560730    -1.287114139377    -0.781029313095     1.007825032070
           C          0.250097439270    -1.240114139377    -0.853029313095    12.000000000000

  Running in c1 symmetry.

  Rotational constants: A =      0.39416  B =      0.19300  C =      0.14783 [cm^-1]
  Rotational constants: A =  11816.74930  B =   5786.00979  C =   4431.75235 [MHz]
  Nuclear repulsion =  135.628873068029321

  Charge       = 0
  Multiplicity = 1
  Electrons    = 34
  Nalpha       = 17
  Nbeta        = 17

  ==> Algorithm <==

  SCF Algorithm Type is DF.
  DIIS enabled.
  MOM disabled.
  Fractional occupation disabled.
  Guess Type is SAD.
  Energy threshold   = 1.00e-08
  Density threshold  = 1.00e-08
  Integral threshold = 0.00e+00

  ==> Primary Basis <==

  Basis Set: CC-PVDZ
    Number of shells: 54
    Number of basis function: 106
    Number of Cartesian functions: 110
    Spherical Harmonics?: true
    Max angular momentum: 2

  ==> DFT Potential <==

   => B3LYP Composite Functional <= 

    B3LYP Hybrid-GGA Exchange-Correlation Functional (VWN1-RPA)

    P.J. Stephens et. al., J. Phys. Chem., 98, 11623-11627, 1994

    Points   =           5000
    Deriv    =              1
    GGA      =           TRUE
    Meta     =          FALSE

    X_LRC        =          FALSE
    X_Hybrid     =           TRUE
    X_Alpha      =   2.000000E-01
    X_Omega      =   0.000000E+00
    C_LRC        =          FALSE
    C_Hybrid     =          FALSE
    C_Alpha      =   0.000000E+00
    C_Omega      =   0.000000E+00

   => Exchange Functionals <=

    0.8000    B3_X
    0.2000      HF 

   => Correlation Functionals <=

    0.1900 VWN3RPA_C
    0.8100   LYP_C

   => Molecular Quadrature <=

    Radial Scheme    =       TREUTLER
    Pruning Scheme   =           FLAT
    Nuclear Scheme   =       TREUTLER

    BS radius alpha  =              1
    Pruning alpha    =              1
    Radial Points    =             75
    Spherical Points =            302
    Total Points     =         312718
    Total Blocks     =            271
    Max Points       =           4951
    Max Functions    =            106

  ==> Pre-Iterations <==

   -------------------------------------------------------
    Irrep   Nso     Nmo     Nalpha   Nbeta   Ndocc  Nsocc
   -------------------------------------------------------
     A        106     106       0       0       0       0
   -------------------------------------------------------
    Total     106     106      17      17      17       0
   -------------------------------------------------------

  ==> Integral Setup <==

  ==> DFJK: Density-Fitted J/K Matrices <==

    J tasked:                  Yes
    K tasked:                  Yes
    wK tasked:                  No
    OpenMP threads:              1
    Integrals threads:           1
    Memory (MB):               715
    Algorithm:                Core
    Integral Cache:           NONE
    Schwarz Cutoff:          1E-12
    Fitting Condition:       1E-12

   => Auxiliary Basis Set <=

  Basis Set: 
    Number of shells: 186
    Number of basis function: 510
    Number of Cartesian functions: 574
    Spherical Harmonics?: true
    Max angular momentum: 3

  Minimum eigenvalue in the overlap matrix is 4.1697613026E-03.
  Using Symmetric Orthogonalization.
  SCF Guess: Superposition of Atomic Densities via on-the-fly atomic UHF.

  ==> Iterations <==

                           Total Energy        Delta E     RMS |[F,P]|

   @DF-RKS iter   0:  -159.05751078137368   -1.59058e+02   3.39071e-02 
   @DF-RKS iter   1:  -158.27840822908223    7.79103e-01   5.04115e-03 
   @DF-RKS iter   2:  -158.21525352436885    6.31547e-02   6.07077e-03 DIIS
   @DF-RKS iter   3:  -158.44037811233329   -2.25125e-01   3.92635e-04 DIIS
   @DF-RKS iter   4:  -158.44124713996175   -8.69028e-04   1.02782e-04 DIIS
   @DF-RKS iter   5:  -158.44129812349161   -5.09835e-05   4.29842e-05 DIIS
   @DF-RKS iter   6:  -158.44130802423842   -9.90075e-06   7.10099e-06 DIIS
   @DF-RKS iter   7:  -158.44130833337988   -3.09141e-07   9.88940e-07 DIIS
   @DF-RKS iter   8:  -158.44130834006020   -6.68032e-09   1.21445e-07 DIIS
   @DF-RKS iter   9:  -158.44130834014015   -7.99503e-11   5.92635e-08 DIIS
   @DF-RKS iter  10:  -158.44130834015900   -1.88436e-11   1.48265e-08 DIIS
   @DF-RKS iter  11:  -158.44130834016045   -1.44951e-12   1.42384e-09 DIIS

  ==> Post-Iterations <==

    Orbital Energies (a.u.)
    -----------------------

    Doubly Occupied:                                                      

       1A    -10.170041     2A    -10.169805     3A    -10.162558  
       4A    -10.162490     5A     -0.798546     6A     -0.714270  
       7A     -0.648135     8A     -0.564207     9A     -0.467389  
      10A     -0.459129    11A     -0.414147    12A     -0.388721  
      13A     -0.374725    14A     -0.358487    15A     -0.325239  
      16A     -0.319231    17A     -0.318420  

    Virtual:                                                              

      18A      0.063264    19A      0.098373    20A      0.102299  
      21A      0.110056    22A      0.135405    23A      0.139544  
      24A      0.165434    25A      0.166620    26A      0.171727  
      27A      0.180375    28A      0.209054    29A      0.237270  
      30A      0.260881    31A      0.416648    32A      0.426643  
      33A      0.440769    34A      0.448279    35A      0.451551  
      36A      0.482479    37A      0.500156    38A      0.595438  
      39A      0.602493    40A      0.626591    41A      0.632780  
      42A      0.649839    43A      0.668799    44A      0.674362  
      45A      0.682777    46A      0.685671    47A      0.700361  
      48A      0.707700    49A      0.736599    50A      0.737794  
      51A      0.779961    52A      0.828589    53A      0.883693  
      54A      0.918976    55A      0.973205    56A      1.082994  
      57A      1.159880    58A      1.198201    59A      1.216607  
      60A      1.300515    61A      1.313500    62A      1.378522  
      63A      1.419820    64A      1.422861    65A      1.497018  
      66A      1.572897    67A      1.574982    68A      1.586653  
      69A      1.595275    70A      1.635149    71A      1.652398  
      72A      1.675829    73A      1.690034    74A      1.695823  
      75A      1.700995    76A      1.704247    77A      1.716685  
      78A      1.771726    79A      1.781212    80A      1.786163  
      81A      1.822030    82A      1.825172    83A      1.891620  
      84A      1.907510    85A      1.980130    86A      1.996371  
      87A      2.018625    88A      2.113724    89A      2.130713  
      90A      2.140926    91A      2.231183    92A      2.269789  
      93A      2.284787    94A      2.327516    95A      2.354734  
      96A      2.375492    97A      2.502093    98A      2.503389  
      99A      2.527016   100A      2.552414   101A      2.559617  
     102A      2.584608   103A      2.652437   104A      2.680974  
     105A      2.746593   106A      2.765610  

    Final Occupation by Irrep:
              A 
    DOCC [    17 ]

  Energy converged.

  @DF-RKS Final Energy:  -158.44130834016045

   => Energetics <=

    Nuclear Repulsion Energy =            135.6288730680293213
    One-Electron Energy =                -479.6385513595889734
    Two-Electron Energy =                 206.2571541979588687
    DFT Exchange-Correlation Energy =     -20.6887842465596314
    Empirical Dispersion Energy =           0.0000000000000000
    PCM Polarization Energy =               0.0000000000000000
    EFP Energy =                            0.0000000000000000
    Total Energy =                       -158.4413083401604467


  Saving occupied orbitals to File 180.

*** tstop() called on lski1497 at Tue Feb 21 19:53:53 2017
Module time:
	user time   =     247.35 seconds =       4.12 minutes
	system time =       3.33 seconds =       0.06 minutes
	total time  =        294 seconds =       4.90 minutes
Total time:
	user time   =     247.35 seconds =       4.12 minutes
	system time =       3.33 seconds =       0.06 minutes
	total time  =        294 seconds =       4.90 minutes


Properties will be evaluated at   0.000000,   0.000000,   0.000000 Bohr

Properties computed using the SCF density matrix

  Nuclear Dipole Moment: (a.u.)
     X:    -0.7969      Y:    -0.2851      Z:    -0.6349

  Electronic Dipole Moment: (a.u.)
     X:     0.8119      Y:     0.2902      Z:     0.6466

  Dipole Moment: (a.u.)
     X:     0.0150      Y:     0.0051      Z:     0.0117     Total:     0.0197

  Dipole Moment: (Debye)
     X:     0.0382      Y:     0.0129      Z:     0.0297     Total:     0.0501


*** tstart() called on lski1497
*** at Tue Feb 21 19:53:53 2017


         ------------------------------------------------------------
                                   SCF GRAD                          
                          Rob Parrish, Justin Turney,                
                       Andy Simmonett, and Alex Sokolov              
         ------------------------------------------------------------

  ==> Geometry <==

    Molecular point group: c1
    Full point group: C1

    Geometry (in Angstrom), charge = 0, multiplicity = 1:

       Center              X                  Y                   Z               Mass       
    ------------   -----------------  -----------------  -----------------  -----------------
           H         -1.780902560730     0.248885860623     0.736970686905     1.007825032070
           H         -1.639902560730     1.876885860623     0.116970686905     1.007825032070
           H         -1.341902560730     0.512885860623    -0.933029313095     1.007825032070
           C         -1.242902560730     0.883885860623     0.064970686905    12.000000000000
           H          0.784097439270     1.539885860623    -0.213029313095     1.007825032070
           H          0.346097439270     1.276885860623     1.457970686905     1.007825032070
           C          0.246097439270     0.904885860623     0.459970686905    12.000000000000
           H          1.884097439270    -0.476114139377     0.311970686905     1.007825032070
           H          0.544097439270    -1.064114139377     1.265970686905     1.007825032070
           C          0.818097439270    -0.523114139377     0.384970686905    12.000000000000
           H          0.648097439270    -2.232114139377    -0.905029313095     1.007825032070
           H          0.523097439270    -0.700114139377    -1.735029313095     1.007825032070
           H         -0.816902560730    -1.287114139377    -0.781029313095     1.007825032070
           C          0.250097439270    -1.240114139377    -0.853029313095    12.000000000000

  Nuclear repulsion =  135.628873068029321

  ==> Basis Set <==

  Basis Set: CC-PVDZ
    Number of shells: 54
    Number of basis function: 106
    Number of Cartesian functions: 110
    Spherical Harmonics?: true
    Max angular momentum: 2

  ==> DFJKGrad: Density-Fitted SCF Gradients <==

    Gradient:                    1
    J tasked:                  Yes
    K tasked:                  Yes
    wK tasked:                  No
    OpenMP threads:              1
    Integrals threads:           1
    Memory (MB):               715
    Schwarz Cutoff:          0E+00
    Fitting Condition:       1E-12

   => Auxiliary Basis Set <=

  Basis Set: 
    Number of shells: 186
    Number of basis function: 510
    Number of Cartesian functions: 574
    Spherical Harmonics?: true
    Max angular momentum: 3

  ==> DFT Potential <==

   => B3LYP Composite Functional <= 

    B3LYP Hybrid-GGA Exchange-Correlation Functional (VWN1-RPA)

    P.J. Stephens et. al., J. Phys. Chem., 98, 11623-11627, 1994

    Points   =           5000
    Deriv    =              1
    GGA      =           TRUE
    Meta     =          FALSE

    X_LRC        =          FALSE
    X_Hybrid     =           TRUE
    X_Alpha      =   2.000000E-01
    X_Omega      =   0.000000E+00
    C_LRC        =          FALSE
    C_Hybrid     =          FALSE
    C_Alpha      =   0.000000E+00
    C_Omega      =   0.000000E+00

   => Exchange Functionals <=

    0.8000    B3_X
    0.2000      HF 

   => Correlation Functionals <=

    0.1900 VWN3RPA_C
    0.8100   LYP_C

   => Molecular Quadrature <=

    Radial Scheme    =       TREUTLER
    Pruning Scheme   =           FLAT
    Nuclear Scheme   =       TREUTLER

    BS radius alpha  =              1
    Pruning alpha    =              1
    Radial Points    =             75
    Spherical Points =            302
    Total Points     =         312718
    Total Blocks     =            271
    Max Points       =           4951
    Max Functions    =            106


  -Total Gradient:
     Atom            X                  Y                   Z
    ------   -----------------  -----------------  -----------------
       1        0.014878512954     0.013069028586    -0.012769042736
       2        0.011772766223    -0.019048270848    -0.000949799270
       3        0.007624434117     0.002019225744     0.017537656369
       4       -0.026989336649    -0.013748461478    -0.009355470160
       5       -0.011813667793    -0.015506692977     0.012905412493
       6       -0.004509253576    -0.011623031289    -0.019861756977
       7        0.019731125098     0.027826760612     0.006702133980
       8       -0.023492921373     0.001615313753    -0.002288143746
       9        0.003822653281     0.012821261544    -0.019889460397
      10        0.019924113015    -0.014030023150     0.025011489661
      11       -0.007116289821     0.021172001766     0.004729976723
      12       -0.004245285264    -0.009308924013     0.021341425030
      13        0.016848918447     0.007129085255     0.002551323384
      14       -0.016429643236    -0.002385040662    -0.025660847763


*** tstop() called on lski1497 at Tue Feb 21 19:55:31 2017
Module time:
	user time   =      80.12 seconds =       1.34 minutes
	system time =       1.24 seconds =       0.02 minutes
	total time  =         98 seconds =       1.63 minutes
Total time:
	user time   =     327.54 seconds =       5.46 minutes
	system time =       4.57 seconds =       0.08 minutes
	total time  =        392 seconds =       6.53 minutes

			-----------------------------------------
			 OPTKING 2.0: for geometry optimizations 
			  - R.A. King,  Bethel University        
			-----------------------------------------

	Previous internal coordinate definitions found.
	---Fragment 1 Geometry and Gradient---
	 H          -3.3654181091        0.4703261149        1.3926727662
	 H          -3.0989667244        3.5468002593        0.2210425638
	 H          -2.5358283368        0.9692138140       -1.7631698757
	 C          -2.3487454496        1.6703022093        0.1227768049
	 H           1.4817294217        2.9099625525       -0.4025670600
	 H           0.6540293755        2.4129645795        2.7551653080
	 C           0.4650567622        1.7099864581        0.8692186274
	 H           3.5604281679       -0.8997253314        0.5895391597
	 H           1.0281951498       -2.0108842976        2.3923378905
	 C           1.5459801102       -0.9885424597        0.7274891674
	 H           1.2247266676       -4.2180844208       -1.7102575440
	 H           0.9885109010       -1.3230239852       -3.2787302343
	 H          -1.5437221170       -2.4322932252       -1.4759315035
	 C           0.4726156668       -2.3434760969       -1.6119917851
	             0.0148785130        0.0130690286       -0.0127690427
	             0.0117727662       -0.0190482708       -0.0009497993
	             0.0076244341        0.0020192257        0.0175376564
	            -0.0269893366       -0.0137484615       -0.0093554702
	            -0.0118136678       -0.0155066930        0.0129054125
	            -0.0045092536       -0.0116230313       -0.0198617570
	             0.0197311251        0.0278267606        0.0067021340
	            -0.0234929214        0.0016153138       -0.0022881437
	             0.0038226533        0.0128212615       -0.0198894604
	             0.0199241130       -0.0140300231        0.0250114897
	            -0.0071162898        0.0211720018        0.0047299767
	            -0.0042452853       -0.0093089240        0.0213414250
	             0.0168489184        0.0071290853        0.0025513234
	            -0.0164296432       -0.0023850407       -0.0256608478

	Previous optimization step data not found.  Starting new optimization.

	---Fragment 1 Intrafragment Coordinates---
	 - Coordinate -           - BOHR/RAD -       - ANG/DEG -
	 R(1,4)           =         2.021436	       1.069698
	 R(2,4)           =         2.023298	       1.070683
	 R(3,4)           =         2.020723	       1.069320
	 R(4,7)           =         2.911397	       1.540645
	 R(5,7)           =         2.022623	       1.070326
	 R(6,7)           =         2.021555	       1.069761
	 R(7,10)          =         2.910419	       1.540128
	 R(8,10)          =         2.021118	       1.069530
	 R(9,10)          =         2.021140	       1.069541
	 R(10,14)         =         2.908802	       1.539272
	 R(11,14)         =         2.022247	       1.070127
	 R(12,14)         =         2.021259	       1.069604
	 R(13,14)         =         2.022874	       1.070459
	 B(1,4,2)         =         1.910870	     109.484805
	 B(1,4,3)         =         1.911121	     109.499161
	 B(1,4,7)         =         1.910399	     109.457783
	 B(2,4,3)         =         1.910042	     109.437340
	 B(2,4,7)         =         1.910564	     109.467262
	 B(3,4,7)         =         1.910803	     109.480971
	 B(4,7,5)         =         1.909937	     109.431343
	 B(4,7,6)         =         1.911630	     109.528316
	 B(4,7,10)        =         1.911154	     109.501062
	 B(5,7,6)         =         1.910605	     109.469614
	 B(5,7,10)        =         1.910047	     109.437654
	 B(6,7,10)        =         1.910425	     109.459295
	 B(7,10,8)        =         1.910015	     109.435815
	 B(7,10,9)        =         1.911064	     109.495884
	 B(7,10,14)       =         1.911351	     109.512373
	 B(8,10,9)        =         1.911117	     109.498955
	 B(8,10,14)       =         1.910664	     109.472970
	 B(9,10,14)       =         1.909588	     109.411344
	 B(10,14,11)      =         1.910958	     109.489813
	 B(10,14,12)      =         1.911193	     109.503272
	 B(10,14,13)      =         1.911520	     109.522005
	 B(11,14,12)      =         1.910285	     109.451288
	 B(11,14,13)      =         1.910581	     109.468233
	 B(12,14,13)      =         1.909262	     109.392648
	 D(1,4,7,5)       =         3.140997	     179.965873
	 D(1,4,7,6)       =        -1.047644	     -60.025575
	 D(1,4,7,10)      =         1.047427	      60.013132
	 D(2,4,7,5)       =        -1.047689	     -60.028143
	 D(2,4,7,6)       =         1.046856	      59.980409
	 D(2,4,7,10)      =        -3.141259	    -179.980883
	 D(3,4,7,5)       =         1.046044	      59.933911
	 D(3,4,7,6)       =         3.140588	     179.942463
	 D(3,4,7,10)      =        -1.047526	     -60.018830
	 D(4,7,10,8)      =         2.792518	     159.999472
	 D(4,7,10,9)      =        -1.395795	     -79.973150
	 D(4,7,10,14)     =         0.698024	      39.993827
	 D(5,7,10,8)      =         0.699015	      40.050596
	 D(5,7,10,9)      =         2.793888	     160.077974
	 D(5,7,10,14)     =        -1.395479	     -79.955049
	 D(6,7,10,8)      =        -1.394860	     -79.919602
	 D(6,7,10,9)      =         0.700013	      40.107776
	 D(6,7,10,14)     =         2.793831	     160.074752
	 D(7,10,14,11)    =         3.141157	     179.975061
	 D(7,10,14,12)    =         1.046647	      59.968444
	 D(7,10,14,13)    =        -1.046954	     -59.986060
	 D(8,10,14,11)    =         1.047061	      59.992153
	 D(8,10,14,12)    =        -1.047450	     -60.014464
	 D(8,10,14,13)    =        -3.141051	    -179.968968
	 D(9,10,14,11)    =        -1.047306	     -60.006228
	 D(9,10,14,12)    =         3.141368	     179.987154
	 D(9,10,14,13)    =         1.047767	      60.032651

	Current energy   :      -158.4413083402

	Generating empirical Hessian (Schlegel '84) for each fragment.
	Adding user-defined constraint: Fragment 1; Coordinate 49:
		Value =     0.698024; Fixed value    =     0.698130
		Force =     0.000053; Force constant =     0.500000
	Removing off-diagonal coupling between coordinate 49 and others.
	Taking RFO optimization step.
	Going to follow RFO solution 1.
	Using RFO vector 1.

	Determining step-restricting scale parameter for RS-RFO.
	Maximum step size allowed    0.10000

	 Iter      |step|        alpha        rfo_root  
	------------------------------------------------
	    0     0.40526       1.00000           1
	    1     0.28055       4.27728           1
	    2     0.19240      13.87124           1
	    3     0.13942      32.69669           1
	    4     0.11196      56.04361           1
	    5     0.10171      70.39057           1
	    6     0.10004      73.17303           1
	    7     0.10000      73.24881           1
	------------------------------------------------
	Norm of target step-size    0.10000
	Projected energy change by RFO approximation:        -0.0098853900

	Back-transformation to cartesian coordinates...
	Could not converge backtransformation.
	Using first guess instead.

	--- Internal Coordinate Step in ANG or DEG, aJ/ANG or AJ/DEG ---
	 ---------------------------------------------------------------------------
	   Coordinate                Previous        Force       Change         New 
	   ----------                --------       ------       ------       ------
	    1 R(1,4)          =      1.069698     0.191646     0.011211     1.080908
	    2 R(2,4)          =      1.070683     0.181895     0.011261     1.081944
	    3 R(3,4)          =      1.069320     0.146440     0.009318     1.078638
	    4 R(4,7)          =      1.540645     0.044310     0.003874     1.544519
	    5 R(5,7)          =      1.070326     0.191578     0.011077     1.081404
	    6 R(6,7)          =      1.069761     0.189431     0.011159     1.080920
	    7 R(7,10)         =      1.540128     0.165011     0.010474     1.550601
	    8 R(8,10)         =      1.069530     0.191041     0.011250     1.080780
	    9 R(9,10)         =      1.069541     0.196482     0.011351     1.080892
	   10 R(10,14)        =      1.539272     0.050067     0.004232     1.543504
	   11 R(11,14)        =      1.070127     0.185398     0.011456     1.081583
	   12 R(12,14)        =      1.069604     0.192622     0.011265     1.080869
	   13 R(13,14)        =      1.070459     0.139531     0.008932     1.079391
	   14 B(1,4,2)        =    109.484805    -0.000306    -0.241074   109.243730
	   15 B(1,4,3)        =    109.499161    -0.000312    -0.301153   109.198008
	   16 B(1,4,7)        =    109.457783     0.000268     0.203466   109.661249
	   17 B(2,4,3)        =    109.437340    -0.000444    -0.361008   109.076333
	   18 B(2,4,7)        =    109.467262     0.000199     0.179590   109.646852
	   19 B(3,4,7)        =    109.480971     0.000595     0.515305   109.996276
	   20 B(4,7,5)        =    109.431343    -0.000789    -0.639164   108.792178
	   21 B(4,7,6)        =    109.528316    -0.000939    -0.704097   108.824220
	   22 B(4,7,10)       =    109.501062     0.003044     2.405630   111.906692
	   23 B(5,7,6)        =    109.469614     0.000337     0.183484   109.653097
	   24 B(5,7,10)       =    109.437654    -0.000759    -0.563610   108.874044
	   25 B(6,7,10)       =    109.459295    -0.000894    -0.689655   108.769640
	   26 B(7,10,8)       =    109.435815    -0.000892    -0.688279   108.747536
	   27 B(7,10,9)       =    109.495884    -0.000764    -0.568374   108.927509
	   28 B(7,10,14)      =    109.512373     0.003042     2.403869   111.916242
	   29 B(8,10,9)       =    109.498955     0.000334     0.180862   109.679817
	   30 B(8,10,14)      =    109.472970    -0.000933    -0.698634   108.774336
	   31 B(9,10,14)      =    109.411344    -0.000786    -0.636199   108.775145
	   32 B(10,14,11)     =    109.489813     0.000201     0.180293   109.670106
	   33 B(10,14,12)     =    109.503272     0.000260     0.197837   109.701109
	   34 B(10,14,13)     =    109.522005     0.000592     0.513974   110.035980
	   35 B(11,14,12)     =    109.451288    -0.000302    -0.238162   109.213126
	   36 B(11,14,13)     =    109.468233    -0.000448    -0.365950   109.102283
	   37 B(12,14,13)     =    109.392648    -0.000304    -0.293947   109.098701
	   38 D(1,4,7,5)      =    179.965873     0.000084     0.288874   180.254747
	   39 D(1,4,7,6)      =    -60.025575    -0.000064    -0.291129   -60.316704
	   40 D(1,4,7,10)     =     60.013132    -0.000019    -0.098616    59.914517
	   41 D(2,4,7,5)      =    -60.028143     0.000064     0.228771   -59.799372
	   42 D(2,4,7,6)      =     59.980409    -0.000084    -0.351232    59.629177
	   43 D(2,4,7,10)     =   -179.980883    -0.000039    -0.158719  -180.139602
	   44 D(3,4,7,5)      =     59.933911     0.000051     0.214251    60.148161
	   45 D(3,4,7,6)      =    179.942463    -0.000098    -0.365752   179.576711
	   46 D(3,4,7,10)     =    -60.018830    -0.000052    -0.173239   -60.192069
	   47 D(4,7,10,8)     =    159.999472     0.000102     0.352209   160.351681
	   48 D(4,7,10,9)     =    -79.973150    -0.000037    -0.180200   -80.153350
	   49 D(4,7,10,14)    =     39.993827     0.000063     0.165661    40.159488
	   50 D(5,7,10,8)     =     40.050596     0.000003     0.008606    40.059202
	   51 D(5,7,10,9)     =    160.077974    -0.000136    -0.523803   159.554172
	   52 D(5,7,10,14)    =    -79.955049    -0.000036    -0.177942   -80.132991
	   53 D(6,7,10,8)     =    -79.919602     0.000141     0.534362   -79.385240
	   54 D(6,7,10,9)     =     40.107776     0.000002     0.001953    40.109729
	   55 D(6,7,10,14)    =    160.074752     0.000101     0.347814   160.422567
	   56 D(7,10,14,11)   =    179.975061    -0.000038    -0.155000   179.820062
	   57 D(7,10,14,12)   =     59.968444    -0.000018    -0.095685    59.872759
	   58 D(7,10,14,13)   =    -59.986060    -0.000052    -0.175055   -60.161115
	   59 D(8,10,14,11)   =     59.992153    -0.000084    -0.348634    59.643519
	   60 D(8,10,14,12)   =    -60.014464    -0.000064    -0.289319   -60.303784
	   61 D(8,10,14,13)   =   -179.968968    -0.000098    -0.368690  -180.337657
	   62 D(9,10,14,11)   =    -60.006228     0.000064     0.227947   -59.778281
	   63 D(9,10,14,12)   =    179.987154     0.000084     0.287262   180.274416
	   64 D(9,10,14,13)   =     60.032651     0.000049     0.207892    60.240543
	 ---------------------------------------------------------------------------
	 Forces used to impose fixed constraints are not included.
	  Forces zeroed: 49 

  ==> Convergence Check <==

  Measures of convergence in internal coordinates in au.
  Criteria marked as inactive (o), active & met (*), and active & unmet ( ).
  --------------------------------------------------------------------------------------------- ~
   Step     Total Energy     Delta E     MAX Force     RMS Force      MAX Disp      RMS Disp    ~
  --------------------------------------------------------------------------------------------- ~
    Convergence Criteria    1.00e-06 *    3.00e-04 *             o    1.20e-03 *             o  ~
  --------------------------------------------------------------------------------------------- ~
      1    -158.44130834   -1.58e+02      4.00e-02      1.27e-02 o    4.20e-02      1.27e-02 o  ~
  ---------------------------------------------------------------------------------------------

	Writing optimization data to binary file.
	Structure for next step:
	Cartesian Geometry (in Angstrom)
	    H    -1.8276082390   0.2995984803   0.7520298420
	    H    -1.6405068354   1.9507067368   0.1615282558
	    H    -1.4008346861   0.5917412521  -0.9305634317
	    C    -1.2684489099   0.9378304215   0.0824302949
	    H     0.7734495837   1.5492712401  -0.2139820304
	    H     0.3402110207   1.2603875292   1.4750822203
	    C     0.2285838224   0.9034638822   0.4609164224
	    H     1.8920644727  -0.4587075220   0.2965726561
	    H     0.5455548431  -1.0766738092   1.2600348802
	    C     0.8159484779  -0.5286068999   0.3684987732
	    H     0.7182170970  -2.2811866564  -0.8944386753
	    H     0.5508787100  -0.7576222700  -1.7652309197
	    H    -0.7903360522  -1.3778163196  -0.8095460946
	    C     0.2841908448  -1.2909840164  -0.8637425766
			--------------------------
			 OPTKING Finished Execution 
			--------------------------

    Structure for next step:
    Molecular point group: c1
    Full point group: C1

    Geometry (in Angstrom), charge = 0, multiplicity = 1:

    H           -1.825504460768     0.300325267976     0.753691556472
    H           -1.638403057142     1.951433524467     0.163189970200
    H           -1.398730907804     0.592468039792    -0.928901717208
    C           -1.266345131622     0.938557209196     0.084092009351
    H            0.775553361985     1.549998027748    -0.212320315958
    H            0.342314798934     1.261114316944     1.476743934736
    C            0.230687600694     0.904190669866     0.462578136864
    H            1.894168250949    -0.457980734271     0.298234370579
    H            0.547658621336    -1.075947021454     1.261696594673
    C            0.818052256147    -0.527880112219     0.370160487681
    H            0.720320875274    -2.280459868672    -0.892776960901
    H            0.552982488293    -0.756895482323    -1.763569205275
    H           -0.788232273887    -1.377089531866    -0.807884380130
    C            0.286294623101    -1.290257228685    -0.862080862137

gradient() will perform analytic gradient computation.

*** tstart() called on lski1497
*** at Tue Feb 21 19:55:32 2017


         ---------------------------------------------------------
                                   SCF
            by Justin Turney, Rob Parrish, and Andy Simmonett
                              RKS Reference
                        1 Threads,   1000 MiB Core
         ---------------------------------------------------------

  ==> Geometry <==

    Molecular point group: c1
    Full point group: C1

    Geometry (in Angstrom), charge = 0, multiplicity = 1:

       Center              X                  Y                   Z               Mass       
    ------------   -----------------  -----------------  -----------------  -----------------
           H         -1.825504460768     0.300325267976     0.753691556472     1.007825032070
           H         -1.638403057142     1.951433524467     0.163189970200     1.007825032070
           H         -1.398730907804     0.592468039792    -0.928901717208     1.007825032070
           C         -1.266345131622     0.938557209196     0.084092009351    12.000000000000
           H          0.775553361985     1.549998027748    -0.212320315958     1.007825032070
           H          0.342314798934     1.261114316944     1.476743934736     1.007825032070
           C          0.230687600694     0.904190669866     0.462578136864    12.000000000000
           H          1.894168250949    -0.457980734271     0.298234370579     1.007825032070
           H          0.547658621336    -1.075947021454     1.261696594673     1.007825032070
           C          0.818052256147    -0.527880112219     0.370160487681    12.000000000000
           H          0.720320875274    -2.280459868672    -0.892776960901     1.007825032070
           H          0.552982488293    -0.756895482323    -1.763569205275     1.007825032070
           H         -0.788232273887    -1.377089531866    -0.807884380130     1.007825032070
           C          0.286294623101    -1.290257228685    -0.862080862137    12.000000000000

  Running in c1 symmetry.

  Rotational constants: A =      0.39979  B =      0.18085  C =      0.14124 [cm^-1]
  Rotational constants: A =  11985.27727  B =   5421.77092  C =   4234.37244 [MHz]
  Nuclear repulsion =  133.846030788771344

  Charge       = 0
  Multiplicity = 1
  Electrons    = 34
  Nalpha       = 17
  Nbeta        = 17

  ==> Algorithm <==

  SCF Algorithm Type is DF.
  DIIS enabled.
  MOM disabled.
  Fractional occupation disabled.
  Guess Type is READ.
  Energy threshold   = 1.00e-08
  Density threshold  = 1.00e-08
  Integral threshold = 0.00e+00

  ==> Primary Basis <==

  Basis Set: CC-PVDZ
    Number of shells: 54
    Number of basis function: 106
    Number of Cartesian functions: 110
    Spherical Harmonics?: true
    Max angular momentum: 2

  ==> DFT Potential <==

   => B3LYP Composite Functional <= 

    B3LYP Hybrid-GGA Exchange-Correlation Functional (VWN1-RPA)

    P.J. Stephens et. al., J. Phys. Chem., 98, 11623-11627, 1994

    Points   =           5000
    Deriv    =              1
    GGA      =           TRUE
    Meta     =          FALSE

    X_LRC        =          FALSE
    X_Hybrid     =           TRUE
    X_Alpha      =   2.000000E-01
    X_Omega      =   0.000000E+00
    C_LRC        =          FALSE
    C_Hybrid     =          FALSE
    C_Alpha      =   0.000000E+00
    C_Omega      =   0.000000E+00

   => Exchange Functionals <=

    0.8000    B3_X
    0.2000      HF 

   => Correlation Functionals <=

    0.1900 VWN3RPA_C
    0.8100   LYP_C

   => Molecular Quadrature <=

    Radial Scheme    =       TREUTLER
    Pruning Scheme   =           FLAT
    Nuclear Scheme   =       TREUTLER

    BS radius alpha  =              1
    Pruning alpha    =              1
    Radial Points    =             75
    Spherical Points =            302
    Total Points     =         312741
    Total Blocks     =            272
    Max Points       =           4951
    Max Functions    =            106

  ==> Pre-Iterations <==

   -------------------------------------------------------
    Irrep   Nso     Nmo     Nalpha   Nbeta   Ndocc  Nsocc
   -------------------------------------------------------
     A        106     106       0       0       0       0
   -------------------------------------------------------
    Total     106     106      17      17      17       0
   -------------------------------------------------------

  ==> Integral Setup <==

  ==> DFJK: Density-Fitted J/K Matrices <==

    J tasked:                  Yes
    K tasked:                  Yes
    wK tasked:                  No
    OpenMP threads:              1
    Integrals threads:           1
    Memory (MB):               715
    Algorithm:                Core
    Integral Cache:           NONE
    Schwarz Cutoff:          1E-12
    Fitting Condition:       1E-12

   => Auxiliary Basis Set <=

  Basis Set: 
    Number of shells: 186
    Number of basis function: 510
    Number of Cartesian functions: 574
    Spherical Harmonics?: true
    Max angular momentum: 3

  Minimum eigenvalue in the overlap matrix is 4.3187045835E-03.
  Using Symmetric Orthogonalization.
  SCF Guess was Projection but file not found.
  Switching over to SAD guess.

  SCF Guess: Superposition of Atomic Densities via on-the-fly atomic UHF.

  ==> Iterations <==

                           Total Energy        Delta E     RMS |[F,P]|

   @DF-RKS iter   0:  -158.97721642514267   -1.58977e+02   3.30745e-02 
   @DF-RKS iter   1:  -158.29012290324744    6.87094e-01   4.96078e-03 
   @DF-RKS iter   2:  -158.22721721270085    6.29057e-02   5.98618e-03 DIIS
   @DF-RKS iter   3:  -158.44823806395866   -2.21021e-01   3.81351e-04 DIIS
   @DF-RKS iter   4:  -158.44906776402334   -8.29700e-04   1.04911e-04 DIIS
   @DF-RKS iter   5:  -158.44912094834791   -5.31843e-05   4.46713e-05 DIIS
   @DF-RKS iter   6:  -158.44913173072035   -1.07824e-05   6.96798e-06 DIIS
   @DF-RKS iter   7:  -158.44913203088558   -3.00165e-07   9.61812e-07 DIIS
   @DF-RKS iter   8:  -158.44913203721734   -6.33176e-09   1.26237e-07 DIIS
   @DF-RKS iter   9:  -158.44913203730175   -8.44125e-11   6.44083e-08 DIIS
   @DF-RKS iter  10:  -158.44913203732338   -2.16289e-11   1.50326e-08 DIIS
   @DF-RKS iter  11:  -158.44913203732472   -1.33582e-12   1.60564e-09 DIIS

  ==> Post-Iterations <==

    Orbital Energies (a.u.)
    -----------------------

    Doubly Occupied:                                                      

       1A    -10.174090     2A    -10.173900     3A    -10.167442  
       4A    -10.167391     5A     -0.792433     6A     -0.714899  
       7A     -0.643875     8A     -0.561588     9A     -0.464554  
      10A     -0.452764    11A     -0.413515    12A     -0.384310  
      13A     -0.375634    14A     -0.360121    15A     -0.323577  
      16A     -0.319474    17A     -0.318325  

    Virtual:                                                              

      18A      0.060035    19A      0.097381    20A      0.101365  
      21A      0.107861    22A      0.133998    23A      0.137342  
      24A      0.161218    25A      0.162672    26A      0.166309  
      27A      0.178580    28A      0.205207    29A      0.231287  
      30A      0.264310    31A      0.411402    32A      0.421006  
      33A      0.436600    34A      0.448365    35A      0.451632  
      36A      0.489134    37A      0.501664    38A      0.587092  
      39A      0.599599    40A      0.622282    41A      0.625458  
      42A      0.646102    43A      0.662333    44A      0.668455  
      45A      0.677652    46A      0.680689    47A      0.687267  
      48A      0.702895    49A      0.721655    50A      0.725891  
      51A      0.767491    52A      0.821987    53A      0.887758  
      54A      0.904954    55A      0.970185    56A      1.085290  
      57A      1.155735    58A      1.197048    59A      1.213979  
      60A      1.284991    61A      1.297523    62A      1.369261  
      63A      1.412546    64A      1.423948    65A      1.467834  
      66A      1.555015    67A      1.566758    68A      1.585308  
      69A      1.590091    70A      1.632933    71A      1.646232  
      72A      1.650025    73A      1.679550    74A      1.682151  
      75A      1.692967    76A      1.698683    77A      1.703094  
      78A      1.753184    79A      1.768999    80A      1.770556  
      81A      1.801711    82A      1.809995    83A      1.870838  
      84A      1.899836    85A      1.967526    86A      1.971725  
      87A      2.020916    88A      2.084208    89A      2.117003  
      90A      2.130627    91A      2.213226    92A      2.258595  
      93A      2.265610    94A      2.294628    95A      2.332642  
      96A      2.344101    97A      2.471448    98A      2.475815  
      99A      2.501883   100A      2.518376   101A      2.530272  
     102A      2.555878   103A      2.630575   104A      2.655789  
     105A      2.711614   106A      2.742710  

    Final Occupation by Irrep:
              A 
    DOCC [    17 ]

  Energy converged.

  @DF-RKS Final Energy:  -158.44913203732472

   => Energetics <=

    Nuclear Repulsion Energy =            133.8460307887713441
    One-Electron Energy =                -476.1332443213684087
    Two-Electron Energy =                 204.4839991071891632
    DFT Exchange-Correlation Energy =     -20.6459176119168006
    Empirical Dispersion Energy =           0.0000000000000000
    PCM Polarization Energy =               0.0000000000000000
    EFP Energy =                            0.0000000000000000
    Total Energy =                       -158.4491320373247163


  Saving occupied orbitals to File 180.

*** tstop() called on lski1497 at Tue Feb 21 19:57:43 2017
Module time:
	user time   =     119.00 seconds =       1.98 minutes
	system time =       1.48 seconds =       0.02 minutes
	total time  =        131 seconds =       2.18 minutes
Total time:
	user time   =     447.18 seconds =       7.45 minutes
	system time =       6.06 seconds =       0.10 minutes
	total time  =        524 seconds =       8.73 minutes


Properties will be evaluated at   0.000000,   0.000000,   0.000000 Bohr

Properties computed using the SCF density matrix

  Nuclear Dipole Moment: (a.u.)
     X:    -0.7667      Y:    -0.2747      Z:    -0.6111

  Electronic Dipole Moment: (a.u.)
     X:     0.7814      Y:     0.2798      Z:     0.6226

  Dipole Moment: (a.u.)
     X:     0.0147      Y:     0.0051      Z:     0.0114     Total:     0.0193

  Dipole Moment: (Debye)
     X:     0.0373      Y:     0.0129      Z:     0.0291     Total:     0.0491


*** tstart() called on lski1497
*** at Tue Feb 21 19:57:43 2017


         ------------------------------------------------------------
                                   SCF GRAD                          
                          Rob Parrish, Justin Turney,                
                       Andy Simmonett, and Alex Sokolov              
         ------------------------------------------------------------

  ==> Geometry <==

    Molecular point group: c1
    Full point group: C1

    Geometry (in Angstrom), charge = 0, multiplicity = 1:

       Center              X                  Y                   Z               Mass       
    ------------   -----------------  -----------------  -----------------  -----------------
           H         -1.825504460768     0.300325267976     0.753691556472     1.007825032070
           H         -1.638403057142     1.951433524467     0.163189970200     1.007825032070
           H         -1.398730907804     0.592468039792    -0.928901717208     1.007825032070
           C         -1.266345131622     0.938557209196     0.084092009351    12.000000000000
           H          0.775553361985     1.549998027748    -0.212320315958     1.007825032070
           H          0.342314798934     1.261114316944     1.476743934736     1.007825032070
           C          0.230687600694     0.904190669866     0.462578136864    12.000000000000
           H          1.894168250949    -0.457980734271     0.298234370579     1.007825032070
           H          0.547658621336    -1.075947021454     1.261696594673     1.007825032070
           C          0.818052256147    -0.527880112219     0.370160487681    12.000000000000
           H          0.720320875274    -2.280459868672    -0.892776960901     1.007825032070
           H          0.552982488293    -0.756895482323    -1.763569205275     1.007825032070
           H         -0.788232273887    -1.377089531866    -0.807884380130     1.007825032070
           C          0.286294623101    -1.290257228685    -0.862080862137    12.000000000000

  Nuclear repulsion =  133.846030788771344

  ==> Basis Set <==

  Basis Set: CC-PVDZ
    Number of shells: 54
    Number of basis function: 106
    Number of Cartesian functions: 110
    Spherical Harmonics?: true
    Max angular momentum: 2

  ==> DFJKGrad: Density-Fitted SCF Gradients <==

    Gradient:                    1
    J tasked:                  Yes
    K tasked:                  Yes
    wK tasked:                  No
    OpenMP threads:              1
    Integrals threads:           1
    Memory (MB):               715
    Schwarz Cutoff:          0E+00
    Fitting Condition:       1E-12

   => Auxiliary Basis Set <=

  Basis Set: 
    Number of shells: 186
    Number of basis function: 510
    Number of Cartesian functions: 574
    Spherical Harmonics?: true
    Max angular momentum: 3

  ==> DFT Potential <==

   => B3LYP Composite Functional <= 

    B3LYP Hybrid-GGA Exchange-Correlation Functional (VWN1-RPA)

    P.J. Stephens et. al., J. Phys. Chem., 98, 11623-11627, 1994

    Points   =           5000
    Deriv    =              1
    GGA      =           TRUE
    Meta     =          FALSE

    X_LRC        =          FALSE
    X_Hybrid     =           TRUE
    X_Alpha      =   2.000000E-01
    X_Omega      =   0.000000E+00
    C_LRC        =          FALSE
    C_Hybrid     =          FALSE
    C_Alpha      =   0.000000E+00
    C_Omega      =   0.000000E+00

   => Exchange Functionals <=

    0.8000    B3_X
    0.2000      HF 

   => Correlation Functionals <=

    0.1900 VWN3RPA_C
    0.8100   LYP_C

   => Molecular Quadrature <=

    Radial Scheme    =       TREUTLER
    Pruning Scheme   =           FLAT
    Nuclear Scheme   =       TREUTLER

    BS radius alpha  =              1
    Pruning alpha    =              1
    Radial Points    =             75
    Spherical Points =            302
    Total Points     =         312741
    Total Blocks     =            272
    Max Points       =           4951
    Max Functions    =            106


  -Total Gradient:
     Atom            X                  Y                   Z
    ------   -----------------  -----------------  -----------------
       1        0.010747135533     0.008068288921    -0.007715970686
       2        0.007439782851    -0.011566204986    -0.000857675895
       3        0.005786183757     0.001983680409     0.012671671988
       4       -0.022807339533    -0.006035554237    -0.008354190890
       5       -0.008185238502    -0.011198494705     0.007009151486
       6       -0.004830499109    -0.008599505411    -0.012084160152
       7        0.014968442685     0.022406637023     0.007637666295
       8       -0.015203837253     0.001436275056    -0.003802381147
       9        0.000703364672     0.008602349646    -0.013348955299
      10        0.017937901559    -0.010865290554     0.018642649404
      11       -0.004533985828     0.012884782212     0.003192880441
      12       -0.002286756534    -0.005066744169     0.014518232973
      13        0.012510722001     0.004809599669     0.002217406965
      14       -0.012247150293    -0.006859982415    -0.019727117840


*** tstop() called on lski1497 at Tue Feb 21 19:58:27 2017
Module time:
	user time   =      40.14 seconds =       0.67 minutes
	system time =       0.61 seconds =       0.01 minutes
	total time  =         44 seconds =       0.73 minutes
Total time:
	user time   =     487.34 seconds =       8.12 minutes
	system time =       6.67 seconds =       0.11 minutes
	total time  =        568 seconds =       9.47 minutes

			-----------------------------------------
			 OPTKING 2.0: for geometry optimizations 
			  - R.A. King,  Bethel University        
			-----------------------------------------

	Previous internal coordinate definitions found.
	---Fragment 1 Geometry and Gradient---
	 H          -3.4497034852        0.5675325073        1.4242706304
	 H          -3.0961330733        3.6876749278        0.3083843513
	 H          -2.6432183494        1.1196023377       -1.7553698499
	 C          -2.3930454885        1.7736160854        0.1589108676
	 H           1.4655834556        2.9290717790       -0.4012272496
	 H           0.6468812212        2.3831606813        2.7906416051
	 C           0.4359363876        1.7086727380        0.8741459937
	 H           3.5794592439       -0.8654581619        0.5635812838
	 H           1.0349248086       -2.0332452040        2.3842610267
	 C           1.5458947265       -0.9975488431        0.6995019469
	 H           1.3612091821       -4.3094446088       -1.6871039539
	 H           1.0449854592       -1.4303251728       -3.3326628144
	 H          -1.4895431267       -2.6023220757       -1.5266802255
	 C           0.5410184310       -2.4382328032       -1.6290967338
	             0.0107471355        0.0080682889       -0.0077159707
	             0.0074397829       -0.0115662050       -0.0008576759
	             0.0057861838        0.0019836804        0.0126716720
	            -0.0228073395       -0.0060355542       -0.0083541909
	            -0.0081852385       -0.0111984947        0.0070091515
	            -0.0048304991       -0.0085995054       -0.0120841602
	             0.0149684427        0.0224066370        0.0076376663
	            -0.0152038373        0.0014362751       -0.0038023811
	             0.0007033647        0.0086023496       -0.0133489553
	             0.0179379016       -0.0108652906        0.0186426494
	            -0.0045339858        0.0128847822        0.0031928804
	            -0.0022867565       -0.0050667442        0.0145182330
	             0.0125107220        0.0048095997        0.0022174070
	            -0.0122471503       -0.0068599824       -0.0197271178

	---Fragment 1 Intrafragment Coordinates---
	 - Coordinate -           - BOHR/RAD -       - ANG/DEG -
	 R(1,4)           =         2.042621	       1.080908
	 R(2,4)           =         2.044577	       1.081944
	 R(3,4)           =         2.038330	       1.078638
	 R(4,7)           =         2.918718	       1.544519
	 R(5,7)           =         2.043557	       1.081404
	 R(6,7)           =         2.042642	       1.080920
	 R(7,10)          =         2.930212	       1.550601
	 R(8,10)          =         2.042378	       1.080780
	 R(9,10)          =         2.042589	       1.080892
	 R(10,14)         =         2.916799	       1.543504
	 R(11,14)         =         2.043896	       1.081583
	 R(12,14)         =         2.042547	       1.080869
	 R(13,14)         =         2.039754	       1.079391
	 B(1,4,2)         =         1.906663	     109.243730
	 B(1,4,3)         =         1.905865	     109.198008
	 B(1,4,7)         =         1.913950	     109.661249
	 B(2,4,3)         =         1.903741	     109.076333
	 B(2,4,7)         =         1.913699	     109.646852
	 B(3,4,7)         =         1.919797	     109.996276
	 B(4,7,5)         =         1.898782	     108.792178
	 B(4,7,6)         =         1.899341	     108.824220
	 B(4,7,10)        =         1.953140	     111.906692
	 B(5,7,6)         =         1.913808	     109.653097
	 B(5,7,10)        =         1.900211	     108.874044
	 B(6,7,10)        =         1.898388	     108.769640
	 B(7,10,8)        =         1.898003	     108.747536
	 B(7,10,9)        =         1.901144	     108.927509
	 B(7,10,14)       =         1.953307	     111.916242
	 B(8,10,9)        =         1.914274	     109.679817
	 B(8,10,14)       =         1.898470	     108.774336
	 B(9,10,14)       =         1.898484	     108.775145
	 B(10,14,11)      =         1.914104	     109.670106
	 B(10,14,12)      =         1.914646	     109.701109
	 B(10,14,13)      =         1.920490	     110.035980
	 B(11,14,12)      =         1.906129	     109.213126
	 B(11,14,13)      =         1.904194	     109.102283
	 B(12,14,13)      =         1.904132	     109.098701
	 D(1,4,7,5)       =        -3.137146	    -179.745253
	 D(1,4,7,6)       =        -1.052725	     -60.316704
	 D(1,4,7,10)      =         1.045706	      59.914517
	 D(2,4,7,5)       =        -1.043696	     -59.799372
	 D(2,4,7,6)       =         1.040725	      59.629177
	 D(2,4,7,10)      =         3.139156	     179.860398
	 D(3,4,7,5)       =         1.049783	      60.148161
	 D(3,4,7,6)       =         3.134205	     179.576711
	 D(3,4,7,10)      =        -1.050550	     -60.192069
	 D(4,7,10,8)      =         2.798665	     160.351681
	 D(4,7,10,9)      =        -1.398940	     -80.153350
	 D(4,7,10,14)     =         0.700915	      40.159488
	 D(5,7,10,8)      =         0.699165	      40.059202
	 D(5,7,10,9)      =         2.784746	     159.554172
	 D(5,7,10,14)     =        -1.398585	     -80.132991
	 D(6,7,10,8)      =        -1.385534	     -79.385240
	 D(6,7,10,9)      =         0.700047	      40.109729
	 D(6,7,10,14)     =         2.799902	     160.422567
	 D(7,10,14,11)    =         3.138452	     179.820062
	 D(7,10,14,12)    =         1.044977	      59.872759
	 D(7,10,14,13)    =        -1.050010	     -60.161115
	 D(8,10,14,11)    =         1.040976	      59.643519
	 D(8,10,14,12)    =        -1.052500	     -60.303784
	 D(8,10,14,13)    =         3.135699	     179.662343
	 D(9,10,14,11)    =        -1.043328	     -59.778281
	 D(9,10,14,12)    =        -3.136803	    -179.725584
	 D(9,10,14,13)    =         1.051396	      60.240543

	Current energy   :      -158.4491320373

	Energy change for the previous step:
		Projected    :        -0.0098853900
		Actual       :        -0.0078236972

	Performing BFGS update.
	Previous computed or guess Hessian on step 1.
	Steps to be used in Hessian update: 1
	Adding user-defined constraint: Fragment 1; Coordinate 49:
		Value =     0.700915; Fixed value    =     0.698130
		Force =    -0.001462; Force constant =     0.525000
	Removing off-diagonal coupling between coordinate 49 and others.
	Taking RFO optimization step.
	Going to follow RFO solution 1.
	Using RFO vector 1.

	Determining step-restricting scale parameter for RS-RFO.
	Maximum step size allowed    0.10000

	 Iter      |step|        alpha        rfo_root  
	------------------------------------------------
	    0     0.21178       1.00000           1
	    1     0.16277       6.20319           1
	    2     0.12676      18.67565           1
	    3     0.10727      33.62341           1
	    4     0.10077      41.12536           1
	    5     0.10001      42.11698           1
	    6     0.10000      42.13045           1
	------------------------------------------------
	Norm of target step-size    0.10000
	Projected energy change by RFO approximation:        -0.0052096762

	Back-transformation to cartesian coordinates...
	Successfully converged to displaced geometry.

	--- Internal Coordinate Step in ANG or DEG, aJ/ANG or AJ/DEG ---
	 ---------------------------------------------------------------------------
	   Coordinate                Previous        Force       Change         New 
	   ----------                --------       ------       ------       ------
	    1 R(1,4)          =      1.080908     0.124429     0.014291     1.095199
	    2 R(2,4)          =      1.081944     0.110804     0.012572     1.094516
	    3 R(3,4)          =      1.078638     0.109142     0.013946     1.092584
	    4 R(4,7)          =      1.544519     0.002101    -0.001663     1.542856
	    5 R(5,7)          =      1.081404     0.125117     0.014353     1.095757
	    6 R(6,7)          =      1.080920     0.120912     0.013786     1.094706
	    7 R(7,10)         =      1.550601     0.048167     0.000537     1.551139
	    8 R(8,10)         =      1.080780     0.121868     0.013886     1.094666
	    9 R(9,10)         =      1.080892     0.128099     0.014667     1.095558
	   10 R(10,14)        =      1.543504     0.006184    -0.001117     1.542387
	   11 R(11,14)        =      1.081583     0.112923     0.012797     1.094380
	   12 R(12,14)        =      1.080869     0.125004     0.014351     1.095220
	   13 R(13,14)        =      1.079391     0.104881     0.013495     1.092886
	   14 B(1,4,2)        =    109.243730    -0.000261    -0.533221   108.710509
	   15 B(1,4,3)        =    109.198008    -0.000271    -0.593001   108.605007
	   16 B(1,4,7)        =    109.661249     0.000270     0.610891   110.272140
	   17 B(2,4,3)        =    109.076333    -0.000305    -0.522341   108.553992
	   18 B(2,4,7)        =    109.646852     0.000166     0.323986   109.970838
	   19 B(3,4,7)        =    109.996276     0.000392     0.679939   110.676215
	   20 B(4,7,5)        =    108.792178    -0.000339    -0.239986   108.552193
	   21 B(4,7,6)        =    108.824220    -0.000370    -0.232180   108.592039
	   22 B(4,7,10)       =    111.906692     0.001364     1.279824   113.186517
	   23 B(5,7,6)        =    109.653097     0.000031    -0.286804   109.366294
	   24 B(5,7,10)       =    108.874044    -0.000306    -0.209898   108.664146
	   25 B(6,7,10)       =    108.769640    -0.000390    -0.340277   108.429363
	   26 B(7,10,8)       =    108.747536    -0.000389    -0.351217   108.396319
	   27 B(7,10,9)       =    108.927509    -0.000310    -0.215932   108.711577
	   28 B(7,10,14)      =    111.916242     0.001361     1.280881   113.197123
	   29 B(8,10,9)       =    109.679817     0.000028    -0.291370   109.388447
	   30 B(8,10,14)      =    108.774336    -0.000365    -0.215905   108.558431
	   31 B(9,10,14)      =    108.775145    -0.000335    -0.235620   108.539525
	   32 B(10,14,11)     =    109.670106     0.000166     0.337644   110.007750
	   33 B(10,14,12)     =    109.701109     0.000263     0.598764   110.299874
	   34 B(10,14,13)     =    110.035980     0.000388     0.676250   110.712230
	   35 B(11,14,12)     =    109.213126    -0.000258    -0.531131   108.681996
	   36 B(11,14,13)     =    109.102283    -0.000307    -0.539808   108.562475
	   37 B(12,14,13)     =    109.098701    -0.000262    -0.577222   108.521479
	   38 D(1,4,7,5)      =   -179.745253     0.000049     0.345995  -179.399258
	   39 D(1,4,7,6)      =    -60.316704    -0.000037    -0.270692   -60.587396
	   40 D(1,4,7,10)     =     59.914517    -0.000009    -0.042353    59.872163
	   41 D(2,4,7,5)      =    -59.799372     0.000037     0.272591   -59.526781
	   42 D(2,4,7,6)      =     59.629177    -0.000049    -0.344097    59.285081
	   43 D(2,4,7,10)     =    179.860398    -0.000021    -0.115758   179.744640
	   44 D(3,4,7,5)      =     60.148161     0.000031     0.259377    60.407538
	   45 D(3,4,7,6)      =    179.576711    -0.000056    -0.357311   179.219400
	   46 D(3,4,7,10)     =    -60.192069    -0.000027    -0.128972   -60.321040
	   47 D(4,7,10,8)     =    160.351681     0.000062     0.523333   160.875014
	   48 D(4,7,10,9)     =    -80.153350    -0.000024    -0.154152   -80.307502
	   49 D(4,7,10,14)    =     40.159488     0.000030     0.222072    40.381559
	   50 D(5,7,10,8)     =     40.059202     0.000008     0.150725    40.209928
	   51 D(5,7,10,9)     =    159.554172    -0.000078    -0.526759   159.027412
	   52 D(5,7,10,14)    =    -80.132991    -0.000024    -0.150536   -80.283527
	   53 D(6,7,10,8)     =    -79.385240     0.000093     0.812254   -78.572986
	   54 D(6,7,10,9)     =     40.109729     0.000007     0.134770    40.244499
	   55 D(6,7,10,14)    =    160.422567     0.000061     0.510993   160.933560
	   56 D(7,10,14,11)   =    179.820062    -0.000020    -0.109915   179.710146
	   57 D(7,10,14,12)   =     59.872759    -0.000008    -0.040724    59.832035
	   58 D(7,10,14,13)   =    -60.161115    -0.000027    -0.137060   -60.298175
	   59 D(8,10,14,11)   =     59.643519    -0.000049    -0.334670    59.308849
	   60 D(8,10,14,12)   =    -60.303784    -0.000037    -0.265479   -60.569262
	   61 D(8,10,14,13)   =    179.662343    -0.000056    -0.361815   179.300528
	   62 D(9,10,14,11)   =    -59.778281     0.000037     0.275003   -59.503277
	   63 D(9,10,14,12)   =   -179.725584     0.000049     0.344195  -179.381389
	   64 D(9,10,14,13)   =     60.240543     0.000029     0.247859    60.488401
	 ---------------------------------------------------------------------------
	 Forces used to impose fixed constraints are not included.
	  Forces zeroed: 49 

  ==> Convergence Check <==

  Measures of convergence in internal coordinates in au.
  Criteria marked as inactive (o), active & met (*), and active & unmet ( ).
  ---------------------------------------------------------------------------------------------
   Step     Total Energy     Delta E     MAX Force     RMS Force      MAX Disp      RMS Disp   
  ---------------------------------------------------------------------------------------------
    Convergence Criteria    1.00e-06 *    3.00e-04 *             o    1.20e-03 *             o
  ---------------------------------------------------------------------------------------------
      2    -158.44913204   -7.82e-03      1.79e-02      7.12e-03 o    2.77e-02      1.25e-02 o  ~
  ---------------------------------------------------------------------------------------------

	Writing optimization data to binary file.
	Structure for next step:
	Cartesian Geometry (in Angstrom)
	    H    -1.8769536127   0.3184659265   0.7241783062
	    H    -1.6435591744   1.9920046086   0.1662507258
	    H    -1.4130106789   0.6393213379  -0.9606182077
	    C    -1.2778992946   0.9645403435   0.0736530008
	    H     0.7803929218   1.5595320439  -0.1838209229
	    H     0.3078982819   1.2416940109   1.5103852976
	    C     0.2099651295   0.8964354766   0.4761773086
	    H     1.8953076331  -0.4514252087   0.3385552175
	    H     0.5138593542  -1.0965092547   1.2714292113
	    C     0.8043927323  -0.5329174982   0.3780071773
	    H     0.7779127816  -2.3021039518  -0.8872846263
	    H     0.6104346915  -0.7722115334  -1.7797000894
	    H    -0.7624659535  -1.4189970587  -0.8571129200
	    C     0.3245422337  -1.3062521662  -0.8672458599
			--------------------------
			 OPTKING Finished Execution 
			--------------------------

    Structure for next step:
    Molecular point group: c1
    Full point group: C1

    Geometry (in Angstrom), charge = 0, multiplicity = 1:

    H           -1.875498440428     0.318996697665     0.723072648054
    H           -1.642104002198     1.992535379764     0.165145067573
    H           -1.411555506642     0.639852109092    -0.961723865899
    C           -1.276444122340     0.965071114707     0.072547342654
    H            0.781848094008     1.560062815106    -0.184926581121
    H            0.309353454197     1.242224782099     1.509279639390
    C            0.211420301713     0.896966247821     0.475071650372
    H            1.896762805344    -0.450894437490     0.337449559355
    H            0.515314526496    -1.095978483492     1.270323553127
    C            0.805847904579    -0.532386726977     0.376901519091
    H            0.779367953812    -2.301573180593    -0.888390284509
    H            0.611889863725    -0.771680762182    -1.780805747571
    H           -0.761010781300    -1.418466287554    -0.858218578188
    C            0.325997405977    -1.305721395015    -0.868351518042

gradient() will perform analytic gradient computation.

*** tstart() called on lski1497
*** at Tue Feb 21 19:58:28 2017


         ---------------------------------------------------------
                                   SCF
            by Justin Turney, Rob Parrish, and Andy Simmonett
                              RKS Reference
                        1 Threads,   1000 MiB Core
         ---------------------------------------------------------

  ==> Geometry <==

    Molecular point group: c1
    Full point group: C1

    Geometry (in Angstrom), charge = 0, multiplicity = 1:

       Center              X                  Y                   Z               Mass       
    ------------   -----------------  -----------------  -----------------  -----------------
           H         -1.875498440428     0.318996697665     0.723072648054     1.007825032070
           H         -1.642104002198     1.992535379764     0.165145067573     1.007825032070
           H         -1.411555506642     0.639852109092    -0.961723865899     1.007825032070
           C         -1.276444122340     0.965071114707     0.072547342654    12.000000000000
           H          0.781848094008     1.560062815106    -0.184926581121     1.007825032070
           H          0.309353454197     1.242224782099     1.509279639390     1.007825032070
           C          0.211420301713     0.896966247821     0.475071650372    12.000000000000
           H          1.896762805344    -0.450894437490     0.337449559355     1.007825032070
           H          0.515314526496    -1.095978483492     1.270323553127     1.007825032070
           C          0.805847904579    -0.532386726977     0.376901519091    12.000000000000
           H          0.779367953812    -2.301573180593    -0.888390284509     1.007825032070
           H          0.611889863725    -0.771680762182    -1.780805747571     1.007825032070
           H         -0.761010781300    -1.418466287554    -0.858218578188     1.007825032070
           C          0.325997405977    -1.305721395015    -0.868351518042    12.000000000000

  Running in c1 symmetry.

  Rotational constants: A =      0.40226  B =      0.17525  C =      0.13825 [cm^-1]
  Rotational constants: A =  12059.34230  B =   5253.75713  C =   4144.55212 [MHz]
  Nuclear repulsion =  132.790213281048665

  Charge       = 0
  Multiplicity = 1
  Electrons    = 34
  Nalpha       = 17
  Nbeta        = 17

  ==> Algorithm <==

  SCF Algorithm Type is DF.
  DIIS enabled.
  MOM disabled.
  Fractional occupation disabled.
  Guess Type is READ.
  Energy threshold   = 1.00e-08
  Density threshold  = 1.00e-08
  Integral threshold = 0.00e+00

  ==> Primary Basis <==

  Basis Set: CC-PVDZ
    Number of shells: 54
    Number of basis function: 106
    Number of Cartesian functions: 110
    Spherical Harmonics?: true
    Max angular momentum: 2

  ==> DFT Potential <==

   => B3LYP Composite Functional <= 

    B3LYP Hybrid-GGA Exchange-Correlation Functional (VWN1-RPA)

    P.J. Stephens et. al., J. Phys. Chem., 98, 11623-11627, 1994

    Points   =           5000
    Deriv    =              1
    GGA      =           TRUE
    Meta     =          FALSE

    X_LRC        =          FALSE
    X_Hybrid     =           TRUE
    X_Alpha      =   2.000000E-01
    X_Omega      =   0.000000E+00
    C_LRC        =          FALSE
    C_Hybrid     =          FALSE
    C_Alpha      =   0.000000E+00
    C_Omega      =   0.000000E+00

   => Exchange Functionals <=

    0.8000    B3_X
    0.2000      HF 

   => Correlation Functionals <=

    0.1900 VWN3RPA_C
    0.8100   LYP_C

   => Molecular Quadrature <=

    Radial Scheme    =       TREUTLER
    Pruning Scheme   =           FLAT
    Nuclear Scheme   =       TREUTLER

    BS radius alpha  =              1
    Pruning alpha    =              1
    Radial Points    =             75
    Spherical Points =            302
    Total Points     =         312768
    Total Blocks     =            267
    Max Points       =           4914
    Max Functions    =            106

  ==> Pre-Iterations <==

   -------------------------------------------------------
    Irrep   Nso     Nmo     Nalpha   Nbeta   Ndocc  Nsocc
   -------------------------------------------------------
     A        106     106       0       0       0       0
   -------------------------------------------------------
    Total     106     106      17      17      17       0
   -------------------------------------------------------

  ==> Integral Setup <==

  ==> DFJK: Density-Fitted J/K Matrices <==

    J tasked:                  Yes
    K tasked:                  Yes
    wK tasked:                  No
    OpenMP threads:              1
    Integrals threads:           1
    Memory (MB):               715
    Algorithm:                Core
    Integral Cache:           NONE
    Schwarz Cutoff:          1E-12
    Fitting Condition:       1E-12

   => Auxiliary Basis Set <=

  Basis Set: 
    Number of shells: 186
    Number of basis function: 510
    Number of Cartesian functions: 574
    Spherical Harmonics?: true
    Max angular momentum: 3

  Minimum eigenvalue in the overlap matrix is 4.3554762811E-03.
  Using Symmetric Orthogonalization.
  SCF Guess was Projection but file not found.
  Switching over to SAD guess.

  SCF Guess: Superposition of Atomic Densities via on-the-fly atomic UHF.

  ==> Iterations <==

                           Total Energy        Delta E     RMS |[F,P]|

   @DF-RKS iter   0:  -158.91584792574474   -1.58916e+02   3.24089e-02 
   @DF-RKS iter   1:  -158.29762307853798    6.18225e-01   4.88932e-03 
   @DF-RKS iter   2:  -158.22995143775626    6.76716e-02   5.97951e-03 DIIS
   @DF-RKS iter   3:  -158.45223939507071   -2.22288e-01   3.75448e-04 DIIS
   @DF-RKS iter   4:  -158.45305510180083   -8.15707e-04   1.03564e-04 DIIS
   @DF-RKS iter   5:  -158.45310749573102   -5.23939e-05   4.43571e-05 DIIS
   @DF-RKS iter   6:  -158.45311814242743   -1.06467e-05   7.09193e-06 DIIS
   @DF-RKS iter   7:  -158.45311845306927   -3.10642e-07   9.62572e-07 DIIS
   @DF-RKS iter   8:  -158.45311845943945   -6.37019e-09   1.33987e-07 DIIS
   @DF-RKS iter   9:  -158.45311845953071   -9.12621e-11   7.14324e-08 DIIS
   @DF-RKS iter  10:  -158.45311845955783   -2.71143e-11   1.51551e-08 DIIS
   @DF-RKS iter  11:  -158.45311845955953   -1.70530e-12   1.78791e-09 DIIS

  ==> Post-Iterations <==

    Orbital Energies (a.u.)
    -----------------------

    Doubly Occupied:                                                      

       1A    -10.178107     2A    -10.177949     3A    -10.172234  
       4A    -10.172209     5A     -0.789787     6A     -0.713859  
       7A     -0.640708     8A     -0.558337     9A     -0.461691  
      10A     -0.449229    11A     -0.411410    12A     -0.383720  
      13A     -0.374571    14A     -0.358449    15A     -0.321928  
      16A     -0.320502    17A     -0.317296  

    Virtual:                                                              

      18A      0.057301    19A      0.094781    20A      0.098763  
      21A      0.105660    22A      0.132382    23A      0.135164  
      24A      0.155960    25A      0.158106    26A      0.162419  
      27A      0.176380    28A      0.204721    29A      0.228630  
      30A      0.267552    31A      0.406109    32A      0.414581  
      33A      0.436177    34A      0.447141    35A      0.451767  
      36A      0.494060    37A      0.504344    38A      0.583510  
      39A      0.597285    40A      0.613120    41A      0.625108  
      42A      0.640571    43A      0.653211    44A      0.660668  
      45A      0.671533    46A      0.674119    47A      0.677771  
      48A      0.696208    49A      0.709179    50A      0.714814  
      51A      0.760755    52A      0.816848    53A      0.888622  
      54A      0.899194    55A      0.968762    56A      1.085292  
      57A      1.150906    58A      1.193816    59A      1.209353  
      60A      1.269026    61A      1.295052    62A      1.362573  
      63A      1.407507    64A      1.420898    65A      1.449862  
      66A      1.545806    67A      1.561368    68A      1.583377  
      69A      1.585414    70A      1.630119    71A      1.634467  
      72A      1.637377    73A      1.666687    74A      1.674066  
      75A      1.683630    76A      1.688928    77A      1.691729  
      78A      1.735169    79A      1.753625    80A      1.762386  
      81A      1.782049    82A      1.798638    83A      1.854661  
      84A      1.889640    85A      1.950635    86A      1.965036  
      87A      2.020056    88A      2.070984    89A      2.105612  
      90A      2.114486    91A      2.192597    92A      2.238090  
      93A      2.246880    94A      2.263850    95A      2.304919  
      96A      2.313790    97A      2.434077    98A      2.437351  
      99A      2.473528   100A      2.490945   101A      2.506577  
     102A      2.531428   103A      2.611542   104A      2.631465  
     105A      2.682273   106A      2.719076  

    Final Occupation by Irrep:
              A 
    DOCC [    17 ]

  Energy converged.

  @DF-RKS Final Energy:  -158.45311845955953

   => Energetics <=

    Nuclear Repulsion Energy =            132.7902132810486648
    One-Electron Energy =                -474.0700139383654914
    Two-Electron Energy =                 203.4313209194786225
    DFT Exchange-Correlation Energy =     -20.6046387217212938
    Empirical Dispersion Energy =           0.0000000000000000
    PCM Polarization Energy =               0.0000000000000000
    EFP Energy =                            0.0000000000000000
    Total Energy =                       -158.4531184595595334


  Saving occupied orbitals to File 180.

*** tstop() called on lski1497 at Tue Feb 21 20:00:45 2017
Module time:
	user time   =     123.00 seconds =       2.05 minutes
	system time =       1.49 seconds =       0.02 minutes
	total time  =        137 seconds =       2.28 minutes
Total time:
	user time   =     611.01 seconds =      10.18 minutes
	system time =       8.19 seconds =       0.14 minutes
	total time  =        706 seconds =      11.77 minutes


Properties will be evaluated at   0.000000,   0.000000,   0.000000 Bohr

Properties computed using the SCF density matrix

  Nuclear Dipole Moment: (a.u.)
     X:    -0.7459      Y:    -0.2671      Z:    -0.6270

  Electronic Dipole Moment: (a.u.)
     X:     0.7595      Y:     0.2720      Z:     0.6382

  Dipole Moment: (a.u.)
     X:     0.0136      Y:     0.0049      Z:     0.0113     Total:     0.0183

  Dipole Moment: (Debye)
     X:     0.0346      Y:     0.0124      Z:     0.0286     Total:     0.0466


*** tstart() called on lski1497
*** at Tue Feb 21 20:00:45 2017


         ------------------------------------------------------------
                                   SCF GRAD                          
                          Rob Parrish, Justin Turney,                
                       Andy Simmonett, and Alex Sokolov              
         ------------------------------------------------------------

  ==> Geometry <==

    Molecular point group: c1
    Full point group: C1

    Geometry (in Angstrom), charge = 0, multiplicity = 1:

       Center              X                  Y                   Z               Mass       
    ------------   -----------------  -----------------  -----------------  -----------------
           H         -1.875498440428     0.318996697665     0.723072648054     1.007825032070
           H         -1.642104002198     1.992535379764     0.165145067573     1.007825032070
           H         -1.411555506642     0.639852109092    -0.961723865899     1.007825032070
           C         -1.276444122340     0.965071114707     0.072547342654    12.000000000000
           H          0.781848094008     1.560062815106    -0.184926581121     1.007825032070
           H          0.309353454197     1.242224782099     1.509279639390     1.007825032070
           C          0.211420301713     0.896966247821     0.475071650372    12.000000000000
           H          1.896762805344    -0.450894437490     0.337449559355     1.007825032070
           H          0.515314526496    -1.095978483492     1.270323553127     1.007825032070
           C          0.805847904579    -0.532386726977     0.376901519091    12.000000000000
           H          0.779367953812    -2.301573180593    -0.888390284509     1.007825032070
           H          0.611889863725    -0.771680762182    -1.780805747571     1.007825032070
           H         -0.761010781300    -1.418466287554    -0.858218578188     1.007825032070
           C          0.325997405977    -1.305721395015    -0.868351518042    12.000000000000

  Nuclear repulsion =  132.790213281048636

  ==> Basis Set <==

  Basis Set: CC-PVDZ
    Number of shells: 54
    Number of basis function: 106
    Number of Cartesian functions: 110
    Spherical Harmonics?: true
    Max angular momentum: 2

  ==> DFJKGrad: Density-Fitted SCF Gradients <==

    Gradient:                    1
    J tasked:                  Yes
    K tasked:                  Yes
    wK tasked:                  No
    OpenMP threads:              1
    Integrals threads:           1
    Memory (MB):               715
    Schwarz Cutoff:          0E+00
    Fitting Condition:       1E-12

   => Auxiliary Basis Set <=

  Basis Set: 
    Number of shells: 186
    Number of basis function: 510
    Number of Cartesian functions: 574
    Spherical Harmonics?: true
    Max angular momentum: 3

  ==> DFT Potential <==

   => B3LYP Composite Functional <= 

    B3LYP Hybrid-GGA Exchange-Correlation Functional (VWN1-RPA)

    P.J. Stephens et. al., J. Phys. Chem., 98, 11623-11627, 1994

    Points   =           5000
    Deriv    =              1
    GGA      =           TRUE
    Meta     =          FALSE

    X_LRC        =          FALSE
    X_Hybrid     =           TRUE
    X_Alpha      =   2.000000E-01
    X_Omega      =   0.000000E+00
    C_LRC        =          FALSE
    C_Hybrid     =          FALSE
    C_Alpha      =   0.000000E+00
    C_Omega      =   0.000000E+00

   => Exchange Functionals <=

    0.8000    B3_X
    0.2000      HF 

   => Correlation Functionals <=

    0.1900 VWN3RPA_C
    0.8100   LYP_C

   => Molecular Quadrature <=

    Radial Scheme    =       TREUTLER
    Pruning Scheme   =           FLAT
    Nuclear Scheme   =       TREUTLER

    BS radius alpha  =              1
    Pruning alpha    =              1
    Radial Points    =             75
    Spherical Points =            302
    Total Points     =         312768
    Total Blocks     =            267
    Max Points       =           4914
    Max Functions    =            106


  -Total Gradient:
     Atom            X                  Y                   Z
[...]
	 H           1.6899208990       -4.3297795903       -1.7482926622
	 H           1.1516710983       -1.4663528840       -3.4200949484
	 H          -1.3417415691       -2.8943002568       -1.6749151284
	 C           0.7012766073       -2.4982326112       -1.6632444462
	             0.0001382057        0.0000159546       -0.0000165331
	            -0.0000697988        0.0001101589        0.0000297002
	             0.0000268109        0.0000011234        0.0000362645
	             0.0010435556        0.0004036656       -0.0035110688
	             0.0000779587        0.0002554759       -0.0003106559
	            -0.0000355940       -0.0000123842        0.0001698747
	            -0.0027714367       -0.0011933778        0.0054044831
	             0.0002234980        0.0001043244       -0.0002819694
	            -0.0002215979       -0.0003667552        0.0002814263
	             0.0044961930        0.0016820587       -0.0035165756
	            -0.0000124468       -0.0000114416        0.0000094163
	             0.0000118975       -0.0000584818        0.0001491077
	             0.0000458899       -0.0000240737        0.0000230266
	            -0.0029702259       -0.0009120311        0.0015192813

	---Fragment 1 Intrafragment Coordinates---
	 - Coordinate -           - BOHR/RAD -       - ANG/DEG -
	 R(1,4)           =         2.086907	       1.104343
	 R(2,4)           =         2.083371	       1.102472
	 R(3,4)           =         2.081068	       1.101254
	 R(4,7)           =         2.895034	       1.531986
	 R(5,7)           =         2.092373	       1.107236
	 R(6,7)           =         2.086502	       1.104129
	 R(7,10)          =         2.917935	       1.544105
	 R(8,10)          =         2.086658	       1.104212
	 R(9,10)          =         2.092498	       1.107302
	 R(10,14)         =         2.895495	       1.532230
	 R(11,14)         =         2.083078	       1.102318
	 R(12,14)         =         2.086661	       1.104214
	 R(13,14)         =         2.081088	       1.101265
	 B(1,4,2)         =         1.873489	     107.343007
	 B(1,4,3)         =         1.876368	     107.507971
	 B(1,4,7)         =         1.949814	     111.716128
	 B(2,4,3)         =         1.874429	     107.396853
	 B(2,4,7)         =         1.933394	     110.775338
	 B(3,4,7)         =         1.952531	     111.871763
	 B(4,7,5)         =         1.883320	     107.906312
	 B(4,7,6)         =         1.916713	     109.819589
	 B(4,7,10)        =         2.014206	     115.405491
	 B(5,7,6)         =         1.845293	     105.727483
	 B(5,7,10)        =         1.898019	     108.748460
	 B(6,7,10)        =         1.898758	     108.790846
	 B(7,10,8)        =         1.898227	     108.760399
	 B(7,10,9)        =         1.899635	     108.841049
	 B(7,10,14)       =         2.012486	     115.306931
	 B(8,10,9)        =         1.847107	     105.831434
	 B(8,10,14)       =         1.915073	     109.725602
	 B(9,10,14)       =         1.884145	     107.953551
	 B(10,14,11)      =         1.932879	     110.745804
	 B(10,14,12)      =         1.950309	     111.744480
	 B(10,14,13)      =         1.952818	     111.888221
	 B(11,14,12)      =         1.873376	     107.336539
	 B(11,14,13)      =         1.873770	     107.359095
	 B(12,14,13)      =         1.876840	     107.535029
	 D(1,4,7,5)       =         3.117503	     178.619751
	 D(1,4,7,6)       =        -1.162268	     -66.593035
	 D(1,4,7,10)      =         0.991168	      56.789743
	 D(2,4,7,5)       =        -1.077889	     -61.758511
	 D(2,4,7,6)       =         0.925525	      53.028702
	 D(2,4,7,10)      =         3.078961	     176.411480
	 D(3,4,7,5)       =         1.012899	      58.034864
	 D(3,4,7,6)       =         3.016314	     172.822078
	 D(3,4,7,10)      =        -1.113435	     -63.795144
	 D(4,7,10,8)      =         2.859818	     163.855507
	 D(4,7,10,9)      =        -1.418765	     -81.289253
	 D(4,7,10,14)     =         0.700780	      40.151751
	 D(5,7,10,8)      =         0.741396	      42.478889
	 D(5,7,10,9)      =         2.745999	     157.334129
	 D(5,7,10,14)     =        -1.417641	     -81.224866
	 D(6,7,10,8)      =        -1.260484	     -72.220406
	 D(6,7,10,9)      =         0.744118	      42.634834
	 D(6,7,10,14)     =         2.863664	     164.075839
	 D(7,10,14,11)    =         3.081329	     176.547118
	 D(7,10,14,12)    =         0.993698	      56.934676
	 D(7,10,14,13)    =        -1.112062	     -63.716445
	 D(8,10,14,11)    =         0.931193	      53.353411
	 D(8,10,14,12)    =        -1.156438	     -66.259031
	 D(8,10,14,13)    =         3.020988	     173.089847
	 D(9,10,14,11)    =        -1.073963	     -61.533555
	 D(9,10,14,12)    =         3.121591	     178.854003
	 D(9,10,14,13)    =         1.015832	      58.202882

	Current energy   :      -158.4553130668

	Energy change for the previous step:
		Projected    :        -0.0003007553
		Actual       :        -0.0003232629

	Performing BFGS update.
	Previous computed or guess Hessian on step 1.
	Steps to be used in Hessian update: 49 48
	Adding user-defined constraint: Fragment 1; Coordinate 49:
		Value =     0.700780; Fixed value    =     0.698130
		Force =    -0.004572; Force constant =     1.725000
	Removing off-diagonal coupling between coordinate 49 and others.
	Taking RFO optimization step.
	Going to follow RFO solution 1.
	Rejecting RFO root 1 because normalization gives large value.
	Rejecting RFO root 2 because normalization gives large value.
	Rejecting RFO root 3 because normalization gives large value.
	Rejecting RFO root 4 because normalization gives large value.
	Rejecting RFO root 5 because normalization gives large value.
	Using RFO vector 6.
	Norm of target step-size    0.00363
	Projected energy change by RFO approximation:        -0.0000007524

	Back-transformation to cartesian coordinates...
	Successfully converged to displaced geometry.

	--- Internal Coordinate Step in ANG or DEG, aJ/ANG or AJ/DEG ---
	 ---------------------------------------------------------------------------
	   Coordinate                Previous        Force       Change         New 
	   ----------                --------       ------       ------       ------
	    1 R(1,4)          =      1.104343     0.000812     0.000067     1.104410
	    2 R(2,4)          =      1.102472    -0.001075    -0.000228     1.102244
	    3 R(3,4)          =      1.101254     0.000335    -0.000047     1.101207
	    4 R(4,7)          =      1.531986     0.001108     0.000162     1.532148
	    5 R(5,7)          =      1.107236    -0.003120     0.000196     1.107433
	    6 R(6,7)          =      1.104129    -0.001260    -0.000009     1.104120
	    7 R(7,10)         =      1.544105    -0.003188    -0.000104     1.544001
	    8 R(8,10)         =      1.104212    -0.001843    -0.000111     1.104101
	    9 R(9,10)         =      1.107302    -0.003951     0.000056     1.107358
	   10 R(10,14)        =      1.532230     0.000529    -0.000041     1.532189
	   11 R(11,14)        =      1.102318    -0.000031    -0.000111     1.102207
	   12 R(12,14)        =      1.104214     0.001249    -0.000063     1.104151
	   13 R(13,14)        =      1.101265     0.000348    -0.000110     1.101155
	   14 B(1,4,2)        =    107.343007    -0.000003    -0.001885   107.341122
	   15 B(1,4,3)        =    107.507971    -0.000005    -0.025719   107.482252
	   16 B(1,4,7)        =    111.716128     0.000012     0.018261   111.734388
	   17 B(2,4,3)        =    107.396853    -0.000000     0.013296   107.410150
	   18 B(2,4,7)        =    110.775338    -0.000005    -0.010343   110.764996
	   19 B(3,4,7)        =    111.871763     0.000001     0.005607   111.877370
	   20 B(4,7,5)        =    107.906312     0.000012     0.012536   107.918849
	   21 B(4,7,6)        =    109.819589    -0.000030    -0.007684   109.811906
	   22 B(4,7,10)       =    115.405491     0.000044    -0.000439   115.405052
	   23 B(5,7,6)        =    105.727483     0.000002     0.000511   105.727994
	   24 B(5,7,10)       =    108.748460    -0.000020    -0.019013   108.729447
	   25 B(6,7,10)       =    108.790846    -0.000011     0.013876   108.804722
	   26 B(7,10,8)       =    108.760399    -0.000017    -0.043256   108.717143
	   27 B(7,10,9)       =    108.841049    -0.000027     0.001412   108.842461
	   28 B(7,10,14)      =    115.306931     0.000062     0.010962   115.317893
	   29 B(8,10,9)       =    105.831434     0.000001     0.006357   105.837791
	   30 B(8,10,14)      =    109.725602    -0.000028    -0.006865   109.718737
	   31 B(9,10,14)      =    107.953551     0.000005     0.031968   107.985519
	   32 B(10,14,11)     =    110.745804    -0.000000    -0.001531   110.744273
	   33 B(10,14,12)     =    111.744480     0.000004     0.008331   111.752811
	   34 B(10,14,13)     =    111.888221    -0.000001     0.005761   111.893982
	   35 B(11,14,12)     =    107.336539    -0.000001    -0.005925   107.330614
	   36 B(11,14,13)     =    107.359095     0.000001     0.005144   107.364240
	   37 B(12,14,13)     =    107.535029    -0.000003    -0.012607   107.522423
	   38 D(1,4,7,5)      =    178.619751     0.000002     0.024244   178.643995
	   39 D(1,4,7,6)      =    -66.593035     0.000000     0.027682   -66.565353
	   40 D(1,4,7,10)     =     56.789743    -0.000001     0.039673    56.829416
	   41 D(2,4,7,5)      =    -61.758511     0.000002     0.026994   -61.731518
	   42 D(2,4,7,6)      =     53.028702     0.000000     0.030432    53.059134
	   43 D(2,4,7,10)     =    176.411480    -0.000001     0.042422   176.453903
	   44 D(3,4,7,5)      =     58.034864     0.000001     0.040553    58.075417
	   45 D(3,4,7,6)      =    172.822078    -0.000000     0.043991   172.866069
	   46 D(3,4,7,10)     =    -63.795144    -0.000002     0.055981   -63.739162
	   47 D(4,7,10,8)     =    163.855507     0.000008    -0.019081   163.836426
	   48 D(4,7,10,9)     =    -81.289253     0.000003    -0.033872   -81.323125
	   49 D(4,7,10,14)    =     40.151751     0.000009     0.016435    40.168187
	   50 D(5,7,10,8)     =     42.478889     0.000001    -0.020602    42.458287
	   51 D(5,7,10,9)     =    157.334129    -0.000004    -0.035393   157.298736
	   52 D(5,7,10,14)    =    -81.224866     0.000002     0.014914   -81.209952
	   53 D(6,7,10,8)     =    -72.220406     0.000004    -0.018469   -72.238875
	   54 D(6,7,10,9)     =     42.634834    -0.000001    -0.033260    42.601574
	   55 D(6,7,10,14)    =    164.075839     0.000005     0.017047   164.092885
	   56 D(7,10,14,11)   =    176.547118    -0.000001    -0.070727   176.476392
	   57 D(7,10,14,12)   =     56.934676    -0.000001    -0.067724    56.866952
	   58 D(7,10,14,13)   =    -63.716445    -0.000001    -0.061414   -63.777859
	   59 D(8,10,14,11)   =     53.353411    -0.000001    -0.015816    53.337595
	   60 D(8,10,14,12)   =    -66.259031    -0.000001    -0.012813   -66.271844
	   61 D(8,10,14,13)   =    173.089847    -0.000001    -0.006503   173.083344
	   62 D(9,10,14,11)   =    -61.533555     0.000002    -0.037195   -61.570750
	   63 D(9,10,14,12)   =    178.854003     0.000001    -0.034192   178.819811
	   64 D(9,10,14,13)   =     58.202882     0.000002    -0.027883    58.174999
	 ---------------------------------------------------------------------------
	 Forces used to impose fixed constraints are not included.
	  Forces zeroed: 49 

  ==> Convergence Check <==

  Measures of convergence in internal coordinates in au.
  Criteria marked as inactive (o), active & met (*), and active & unmet ( ).
  ---------------------------------------------------------------------------------------------
   Step     Total Energy     Delta E     MAX Force     RMS Force      MAX Disp      RMS Disp   
  ---------------------------------------------------------------------------------------------
    Convergence Criteria    1.00e-06 *    3.00e-04 *             o    1.20e-03 *             o
  ---------------------------------------------------------------------------------------------
     50    -158.45531307   -3.23e-04      8.08e-04      2.11e-04 o    1.23e-03      4.54e-04 o  ~
  ---------------------------------------------------------------------------------------------


  **** Optimization has failed! (in 50 steps) ****

  ==> Optimization Summary <==

  Measures of convergence in internal coordinates in au.
  --------------------------------------------------------------------------------------------------------------- ~
   Step         Total Energy             Delta E       MAX Force       RMS Force        MAX Disp        RMS Disp  ~
  --------------------------------------------------------------------------------------------------------------- ~
      1    -158.441308340160   -158.441308340160      0.04000376      0.01269850      0.04198617      0.01268780  ~
      2    -158.449132037325     -0.007823697164      0.01792704      0.00712573      0.02771624      0.01252692  ~
      3    -158.453118459560     -0.003986422235      0.01015754      0.00328383      0.03405297      0.01253127  ~
      4    -158.454678247586     -0.001559788027      0.00371669      0.00124211      0.04120750      0.01249816  ~
      5    -158.455209720158     -0.000531472572      0.00114473      0.00039601      0.03095400      0.01249566  ~
      6    -158.455348805912     -0.000139085754      0.00034549      0.00014033      0.02622734      0.01250181  ~
      7    -158.455389659535     -0.000040853623      0.00040854      0.00010096      0.01185476      0.00583298  ~
      8    -158.455397369658     -0.000007710124      0.00052852      0.00011351      0.00303124      0.00144108  ~
      9    -158.455399295793     -0.000001926135      0.00066141      0.00014246      0.00062624      0.00018598  ~
     10    -158.455399706432     -0.000000410639      0.00076242      0.00016410      0.00060942      0.00020154  ~
     11    -158.455400114666     -0.000000408234      0.00087273      0.00018786      0.00158048      0.00041978  ~
     12    -158.455400598499     -0.000000483833      0.00097855      0.00021099      0.03040036      0.01250142  ~
     13    -158.455114636504      0.000285961995      0.00329925      0.00103264      0.02644068      0.01249864  ~
     14    -158.454940884159      0.000173752344      0.00396776      0.00135576      0.03114910      0.01248752  ~
     15    -158.454934841122      0.000006043038      0.00595247      0.00117544      0.03716192      0.01249636  ~
     16    -158.455314061744     -0.000379220623      0.00179626      0.00045241      0.01506573      0.00461104  ~
     17    -158.455387152386     -0.000073090641      0.00194973      0.00049904      0.02898127      0.01252783  ~
     18    -158.454895795557      0.000491356829      0.00695706      0.00180794      0.03229703      0.01250152  ~
     19    -158.454638356189      0.000257439368      0.00815419      0.00227487      0.03322452      0.01250397  ~
     20    -158.454910535241     -0.000272179051      0.00699528      0.00227049      0.03141405      0.01250645  ~
     21    -158.455280654305     -0.000370119065      0.00376148      0.00076623      0.01719165      0.00530650  ~
     22    -158.455358119317     -0.000077465012      0.00087267      0.00032507      0.00503435      0.00195564  ~
     23    -158.455352753828      0.000005365489      0.00055460      0.00019818      0.00183418      0.00064383  ~
     24    -158.455351855188      0.000000898640      0.00045244      0.00015789      0.00082813      0.00032953  ~
     25    -158.455348300466      0.000003554722      0.00046955      0.00015154      0.00057881      0.00019038  ~
     26    -158.455347423063      0.000000877403      0.00050312      0.00015242      0.00087592      0.00036707  ~
     27    -158.455346701481      0.000000721582      0.00047444      0.00015793      0.03392350      0.01248693  ~
     28    -158.455078756030      0.000267945451      0.00488284      0.00127013      0.03223271      0.01252652  ~
     29    -158.455255396178     -0.000176640147      0.00178930      0.00059727      0.03175046      0.01248437  ~
     30    -158.454496478031      0.000758918146      0.01040285      0.00269880      0.03066258      0.01250238  ~
     31    -158.455267623156     -0.000771145125      0.00215822      0.00067550      0.00974519      0.00414097  ~
     32    -158.455324214237     -0.000056591080      0.00108421      0.00023964      0.00858237      0.00334860  ~
     33    -158.455334749843     -0.000010535607      0.00084044      0.00018722      0.00739346      0.00346044  ~
     34    -158.455341515481     -0.000006765638      0.00076495      0.00021450      0.01223957      0.00520690  ~
     35    -158.455325883489      0.000015631992      0.00084959      0.00023449      0.00285909      0.00109418  ~
     36    -158.455333273148     -0.000007389659      0.00097487      0.00024886      0.03229856      0.01251360  ~
     37    -158.454714442109      0.000618831039      0.00626188      0.00213679      0.02563699      0.01109436  ~
     38    -158.455332969272     -0.000618527162      0.00178551      0.00054950      0.02566586      0.00870640  ~
     39    -158.455275126105      0.000057843167      0.00233818      0.00058092      0.00522499      0.00199296  ~
     40    -158.455309116393     -0.000033990288      0.00101390      0.00028682      0.00355951      0.00152078  ~
     41    -158.455319350117     -0.000010233724      0.00056435      0.00019638      0.00062035      0.00025748  ~
     42    -158.455324222538     -0.000004872421      0.00059120      0.00018338      0.00035966      0.00011776  ~
     43    -158.455322270224      0.000001952313      0.00058535      0.00018583      0.00209885      0.00085069  ~
     44    -158.455321490276      0.000000779949      0.00065444      0.00018824      0.00223245      0.00099416  ~
     45    -158.455322012729     -0.000000522454      0.00073406      0.00019519      0.02937500      0.01249801  ~
     46    -158.455197904554      0.000124108176      0.00241032      0.00082056      0.02510589      0.01081274  ~
     47    -158.455324335956     -0.000126431402      0.00072350      0.00018460      0.00215733      0.00079627  ~
     48    -158.455321035931      0.000003300024      0.00067905      0.00018829      0.02839916      0.01249403  ~
     49    -158.454989803909      0.000331232022      0.00793562      0.00150779      0.02889782      0.01245448  ~
     50    -158.455313066821     -0.000323262912      0.00080826      0.00022102      0.00123442      0.00045388  ~
  --------------------------------------------------------------------------------------------------------------- ~

	Writing optimization data to binary file.
			--------------------------
			 OPTKING Finished Execution 
			--------------------------

    Structure for next step:
    Molecular point group: c1
    Full point group: C1

    Geometry (in Angstrom), charge = 0, multiplicity = 1:

    H           -1.928918002576     0.310541120246     0.657964766880
    H           -1.659102674681     2.021852032639     0.259275060012
    H           -1.436449520153     0.775827300226    -0.986440831966
    C           -1.286866642378     0.999736348892     0.081335370237
    H            0.771567770835     1.575287015734    -0.141264901382
    H            0.315967797094     1.232413962756     1.527043210261
    C            0.185037962340     0.878978797288     0.489246648000
    H            1.893598859057    -0.451195255673     0.396952869855
    H            0.508532564673    -1.126453101228     1.256166940126
    C            0.793141797957    -0.534732876549     0.364479661767
    H            0.894970196681    -2.290692773886    -0.925879741345
    H            0.608159389633    -0.775728714282    -1.810009219714
    H           -0.709869481450    -1.532572704052    -0.885992844784
    C            0.370965690366    -1.322085497245    -0.880287675155

	Optimizer: Did not converge!	Cleaning optimization helper files.

*** Psi4 exiting successfully. Buy a developer a beer!
