    -----------------------------------------------------------------------
          Psi4: An Open-Source Ab Initio Electronic Structure Package
                              Psi4 1.0.0 Driver

                          Git: Rev {master} 6a9a71b 

    J. M. Turney, A. C. Simmonett, R. M. Parrish, E. G. Hohenstein,
    F. A. Evangelista, J. T. Fermann, B. J. Mintz, L. A. Burns, J. J. Wilke,
    M. L. Abrams, N. J. Russ, M. L. Leininger, C. L. Janssen, E. T. Seidl,
    W. D. Allen, H. F. Schaefer, R. A. King, E. F. Valeev, C. D. Sherrill,
    and T. D. Crawford, WIREs Comput. Mol. Sci. 2, 556-565 (2012)
    (doi: 10.1002/wcms.93)

                         Additional Contributions by
    A. E. DePrince, U. Bozkaya, A. Yu. Sokolov, D. G. A. Smith, R. Di Remigio,
    R. M. Richard, J. F. Gonthier, H. R. McAlexander, M. Saitow, and
    B. P. Pritchard
    -----------------------------------------------------------------------


    Psi4 started on: Thu Feb 16 16:30:34 2017

    Process ID:   1790
    PSI4DATADIR: /Users/sternc1/anaconda/share/psi4
    Memory level set to 256.000 MB

  ==> Input File <==

--------------------------------------------------------------------------

memory 1000 mb

molecule butane {
  symmetry C1
  0 1 
  H      1.604   0.760   -8.260
  H      1.745   2.388   -8.880
  H      2.043   1.024   -9.930
  C      2.142   1.395   -8.932
  H      4.169   2.051   -9.210
  H      3.731   1.788   -7.539
  C      3.631   1.416   -8.537
  H      3.575   -0.615   -9.234
  H      5.189   0.020   -9.026
  C      4.203   -0.012   -8.612
  H      4.657   -1.610   -7.250
  H      3.274   -0.650   -6.783
  H      4.888   -0.015   -6.576
  C      4.260   -0.618   -7.198
  units Angstrom
}

dih_string = "4 7 10 14 260"
set optking fixed_dihedral = $dih_string

optimize('MP2/6-31G(d)')
--------------------------------------------------------------------------

  Memory set to 1000.000 MiB by Python script.
gradient() will perform analytic gradient computation.
    SCF Algorithm Type (re)set to DF.

*** tstart() called on lski1497
*** at Thu Feb 16 16:30:35 2017


         ---------------------------------------------------------
                                   SCF
            by Justin Turney, Rob Parrish, and Andy Simmonett
                              RHF Reference
                        1 Threads,   1000 MiB Core
         ---------------------------------------------------------

  ==> Geometry <==

    Molecular point group: c1
    Full point group: C1

    Geometry (in Angstrom), charge = 0, multiplicity = 1:

       Center              X                  Y                   Z               Mass       
    ------------   -----------------  -----------------  -----------------  -----------------
           H         -1.942592689278     0.220155422783     0.050908706555     1.007825032070
           H         -1.801592689278     1.848155422783    -0.569091293445     1.007825032070
           H         -1.503592689278     0.484155422783    -1.619091293445     1.007825032070
           C         -1.404592689278     0.855155422783    -0.621091293445    12.000000000000
           H          0.622407310722     1.511155422783    -0.899091293445     1.007825032070
           H          0.184407310722     1.248155422783     0.771908706555     1.007825032070
           C          0.084407310722     0.876155422783    -0.226091293445    12.000000000000
           H          0.028407310722    -1.154844577217    -0.923091293445     1.007825032070
           H          1.642407310722    -0.519844577217    -0.715091293445     1.007825032070
           C          0.656407310722    -0.551844577217    -0.301091293445    12.000000000000
           H          1.110407310722    -2.149844577217     1.060908706555     1.007825032070
           H         -0.272592689278    -1.189844577217     1.527908706555     1.007825032070
           H          1.341407310722    -0.554844577217     1.734908706555     1.007825032070
           C          0.713407310722    -1.157844577217     1.112908706555    12.000000000000

  Running in c1 symmetry.

  Rotational constants: A =      0.51549  B =      0.14292  C =      0.13562 [cm^-1]
  Rotational constants: A =  15453.98743  B =   4284.50405  C =   4065.75724 [MHz]
  Nuclear repulsion =  133.129166358360777

  Charge       = 0
  Multiplicity = 1
  Electrons    = 34
  Nalpha       = 17
  Nbeta        = 17

  ==> Algorithm <==

  SCF Algorithm Type is DF.
  DIIS enabled.
  MOM disabled.
  Fractional occupation disabled.
  Guess Type is SAD.
  Energy threshold   = 1.00e-10
  Density threshold  = 1.00e-10
  Integral threshold = 0.00e+00

  ==> Primary Basis <==

  Basis Set: 6-31G(D)
    Number of shells: 44
    Number of basis function: 80
    Number of Cartesian functions: 80
    Spherical Harmonics?: false
    Max angular momentum: 2

  ==> Pre-Iterations <==

   -------------------------------------------------------
    Irrep   Nso     Nmo     Nalpha   Nbeta   Ndocc  Nsocc
   -------------------------------------------------------
     A         80      80       0       0       0       0
   -------------------------------------------------------
    Total      80      80      17      17      17       0
   -------------------------------------------------------

  ==> Integral Setup <==

  ==> DFJK: Density-Fitted J/K Matrices <==

    J tasked:                  Yes
    K tasked:                  Yes
    wK tasked:                  No
    OpenMP threads:              1
    Integrals threads:           1
    Memory (MB):               715
    Algorithm:                Core
    Integral Cache:           NONE
    Schwarz Cutoff:          1E-12
    Fitting Condition:       1E-12

   => Auxiliary Basis Set <=

  Basis Set: 
    Number of shells: 186
    Number of basis function: 574
    Number of Cartesian functions: 574
    Spherical Harmonics?: false
    Max angular momentum: 3

  Minimum eigenvalue in the overlap matrix is 5.1036435775E-03.
  Using Symmetric Orthogonalization.
  SCF Guess: Superposition of Atomic Densities via on-the-fly atomic UHF.

  ==> Iterations <==

                           Total Energy        Delta E     RMS |[F,P]|

   @DF-RHF iter   0:  -158.92134115753558   -1.58921e+02   4.70663e-02 
   @DF-RHF iter   1:  -157.19564827017300    1.72569e+00   4.09153e-03 
   @DF-RHF iter   2:  -157.27997019189090   -8.43219e-02   1.17840e-03 DIIS
   @DF-RHF iter   3:  -157.28849152744365   -8.52134e-03   3.92254e-04 DIIS
   @DF-RHF iter   4:  -157.28921660337969   -7.25076e-04   8.56439e-05 DIIS
   @DF-RHF iter   5:  -157.28926545607229   -4.88527e-05   1.44771e-05 DIIS
   @DF-RHF iter   6:  -157.28926713323639   -1.67716e-06   2.75523e-06 DIIS
   @DF-RHF iter   7:  -157.28926717653277   -4.32964e-08   8.63356e-07 DIIS
   @DF-RHF iter   8:  -157.28926718092120   -4.38843e-09   1.86264e-07 DIIS
   @DF-RHF iter   9:  -157.28926718119052   -2.69324e-10   4.84895e-08 DIIS
   @DF-RHF iter  10:  -157.28926718120877   -1.82467e-11   9.84798e-09 DIIS
   @DF-RHF iter  11:  -157.28926718120985   -1.08002e-12   2.78954e-09 DIIS
   @DF-RHF iter  12:  -157.28926718120974    1.13687e-13   5.94017e-10 DIIS
   @DF-RHF iter  13:  -157.28926718120951    2.27374e-13   1.14876e-10 DIIS
   @DF-RHF iter  14:  -157.28926718120940    1.13687e-13   2.36803e-11 DIIS

  ==> Post-Iterations <==

    Orbital Energies (a.u.)
    -----------------------

    Doubly Occupied:                                                      

       1A    -11.206611     2A    -11.206033     3A    -11.201173  
       4A    -11.201114     5A     -1.072057     6A     -0.978707  
       7A     -0.867852     8A     -0.790693     9A     -0.633519  
      10A     -0.615570    11A     -0.582135    12A     -0.547428  
      13A     -0.521009    14A     -0.508328    15A     -0.472986  
      16A     -0.459498    17A     -0.444800  

    Virtual:                                                              

      18A      0.233901    19A      0.277233    20A      0.284454  
      21A      0.295403    22A      0.314929    23A      0.322950  
      24A      0.342896    25A      0.351722    26A      0.353549  
      27A      0.378213    28A      0.406077    29A      0.451108  
      30A      0.451676    31A      0.714466    32A      0.728705  
      33A      0.730181    34A      0.765398    35A      0.777278  
      36A      0.822835    37A      0.852797    38A      0.934663  
      39A      0.945632    40A      0.999380    41A      1.063880  
      42A      1.114559    43A      1.172747    44A      1.177398  
      45A      1.199796    46A      1.207211    47A      1.209353  
      48A      1.229217    49A      1.249514    50A      1.257581  
      51A      1.264937    52A      1.286890    53A      1.295756  
      54A      1.462594    55A      1.699315    56A      1.734291  
      57A      1.824544    58A      1.888695    59A      2.043944  
      60A      2.073784    61A      2.191434    62A      2.252012  
      63A      2.269838    64A      2.308795    65A      2.390224  
      66A      2.467514    67A      2.491509    68A      2.626857  
      69A      2.647246    70A      2.676641    71A      2.729933  
      72A      2.777736    73A      2.800612    74A      2.897812  
      75A      2.994238    76A      3.084816    77A      4.574553  
      78A      4.670895    79A      4.842933    80A      4.961158  

    Final Occupation by Irrep:
              A 
    DOCC [    17 ]

  Energy converged.

  @DF-RHF Final Energy:  -157.28926718120940

   => Energetics <=

    Nuclear Repulsion Energy =            133.1291663583607772
    One-Electron Energy =                -474.2178430776792766
    Two-Electron Energy =                 183.7994095381090176
    DFT Exchange-Correlation Energy =       0.0000000000000000
    Empirical Dispersion Energy =           0.0000000000000000
    PCM Polarization Energy =               0.0000000000000000
    EFP Energy =                            0.0000000000000000
    Total Energy =                       -157.2892671812095102


  Saving occupied orbitals to File 180.

*** tstop() called on lski1497 at Thu Feb 16 16:30:42 2017
Module time:
	user time   =       5.52 seconds =       0.09 minutes
	system time =       0.19 seconds =       0.00 minutes
	total time  =          7 seconds =       0.12 minutes
Total time:
	user time   =       5.52 seconds =       0.09 minutes
	system time =       0.19 seconds =       0.00 minutes
	total time  =          7 seconds =       0.12 minutes


Properties will be evaluated at   0.000000,   0.000000,   0.000000 Bohr

Properties computed using the SCF density matrix

  Nuclear Dipole Moment: (a.u.)
     X:    -0.5540      Y:    -0.2413      Z:     0.3948

  Electronic Dipole Moment: (a.u.)
     X:     0.5835      Y:     0.2537      Z:    -0.4158

  Dipole Moment: (a.u.)
     X:     0.0295      Y:     0.0124      Z:    -0.0211     Total:     0.0383

  Dipole Moment: (Debye)
     X:     0.0751      Y:     0.0315      Z:    -0.0536     Total:     0.0975


  //>>>>>>>>>>>>>>>>>>>>>>>>>>>>>>>>>>>//
  //               DFMP2               //
  //<<<<<<<<<<<<<<<<<<<<<<<<<<<<<<<<<<<//


*** tstart() called on lski1497
*** at Thu Feb 16 16:30:42 2017


*** tstop() called on lski1497 at Thu Feb 16 16:30:43 2017
Module time:
	user time   =       0.55 seconds =       0.01 minutes
	system time =       0.01 seconds =       0.00 minutes
	total time  =          1 seconds =       0.02 minutes
Total time:
	user time   =       6.09 seconds =       0.10 minutes
	system time =       0.20 seconds =       0.00 minutes
	total time  =          8 seconds =       0.13 minutes
	 --------------------------------------------------------
	                          DF-MP2                         
	      2nd-Order Density-Fitted Moller-Plesset Theory     
	              RMP2 Wavefunction,   1 Threads             
	                                                         
	        Rob Parrish, Justin Turney, Andy Simmonett,      
	           Ed Hohenstein, and C. David Sherrill          
	 --------------------------------------------------------

   => Auxiliary Basis Set <=

  Basis Set: 
    Number of shells: 132
    Number of basis function: 364
    Number of Cartesian functions: 414
    Spherical Harmonics?: true
    Max angular momentum: 3

	 --------------------------------------------------------
	                 NBF =    80, NAUX =   364
	 --------------------------------------------------------
	   CLASS    FOCC     OCC    AOCC    AVIR     VIR    FVIR
	   PAIRS       0      17      17      63      63       0
	 --------------------------------------------------------

DGAS Warning! /src/lib/libfock/apps.cc:80 is not currently checking restricted

         ------------------------------------------------------------
                                     CPHF                           
                                  Rob Parrish                       
         ------------------------------------------------------------

  ==> Geometry <==

    Molecular point group: c1
    Full point group: C1

    Geometry (in Angstrom), charge = 0, multiplicity = 1:

       Center              X                  Y                   Z               Mass       
    ------------   -----------------  -----------------  -----------------  -----------------
           H         -1.942592689278     0.220155422783     0.050908706555     1.007825032070
           H         -1.801592689278     1.848155422783    -0.569091293445     1.007825032070
           H         -1.503592689278     0.484155422783    -1.619091293445     1.007825032070
           C         -1.404592689278     0.855155422783    -0.621091293445    12.000000000000
           H          0.622407310722     1.511155422783    -0.899091293445     1.007825032070
           H          0.184407310722     1.248155422783     0.771908706555     1.007825032070
           C          0.084407310722     0.876155422783    -0.226091293445    12.000000000000
           H          0.028407310722    -1.154844577217    -0.923091293445     1.007825032070
           H          1.642407310722    -0.519844577217    -0.715091293445     1.007825032070
           C          0.656407310722    -0.551844577217    -0.301091293445    12.000000000000
           H          1.110407310722    -2.149844577217     1.060908706555     1.007825032070
           H         -0.272592689278    -1.189844577217     1.527908706555     1.007825032070
           H          1.341407310722    -0.554844577217     1.734908706555     1.007825032070
           C          0.713407310722    -1.157844577217     1.112908706555    12.000000000000

  Nuclear repulsion =  133.129166358360777
  Reference energy  = -157.289267181209397

  ==> Basis Set <==

  Basis Set: 6-31G(D)
    Number of shells: 44
    Number of basis function: 80
    Number of Cartesian functions: 80
    Spherical Harmonics?: false
    Max angular momentum: 2

  ==> CGRSolver (by Rob Parrish) <==

   Number of roots    =         1
   Preconditioning    =    JACOBI
   Convergence cutoff =     1E-06
   Maximum iterations =       100

  ==> CPHFRHamiltonian (by Rob Parrish) <== 

  ==> DFJK: Density-Fitted J/K Matrices <==

    J tasked:                  Yes
    K tasked:                  Yes
    wK tasked:                  No
    OpenMP threads:              1
    Integrals threads:           1
    Memory (MB):               715
    Algorithm:                Core
    Integral Cache:           NONE
    Schwarz Cutoff:          1E-12
    Fitting Condition:       1E-12

   => Auxiliary Basis Set <=

  Basis Set: 
    Number of shells: 186
    Number of basis function: 574
    Number of Cartesian functions: 574
    Spherical Harmonics?: false
    Max angular momentum: 3

  ==> CPHF Iterations <==

  => Iterations <=

             Iter  Converged  Remaining    Residual
  CGR           1          0          1   7.387E-02
  CGR           2          0          1   8.766E-03
  CGR           3          0          1   2.529E-03
  CGR           4          0          1   4.338E-04
  CGR           5          0          1   8.186E-05
  CGR           6          0          1   1.786E-05
  CGR           7          0          1   3.057E-06
  CGR           8          1          0   5.731E-07

    CGRSolver converged.

  ==> DFCorrGrad: Density-Fitted Correlated Gradients <==

    OpenMP threads:              1
    Integrals threads:           1
    Memory (MB):               715
    Schwarz Cutoff:          0E+00
    Fitting Condition:       1E-12

   => Auxiliary Basis Set <=

  Basis Set: 
    Number of shells: 186
    Number of basis function: 510
    Number of Cartesian functions: 574
    Spherical Harmonics?: true
    Max angular momentum: 3

	-----------------------------------------------------------
	 ==================> DF-MP2 Energies <==================== 
	-----------------------------------------------------------
	 Reference Energy          =    -157.2892671812093965 [Eh]
	 Singles Energy            =      -0.0000000000000000 [Eh]
	 Same-Spin Energy          =      -0.1244811570953560 [Eh]
	 Opposite-Spin Energy      =      -0.4204290804513050 [Eh]
	 Correlation Energy        =      -0.5449102375466610 [Eh]
	 Total Energy              =    -157.8341774187560702 [Eh]
	-----------------------------------------------------------
	 ================> DF-SCS-MP2 Energies <================== 
	-----------------------------------------------------------
	 SCS Same-Spin Scale       =       0.3333333333333333 [-]
	 SCS Opposite-Spin Scale   =       1.2000000000000000 [-]
	 SCS Same-Spin Energy      =      -0.0414937190317853 [Eh]
	 SCS Opposite-Spin Energy  =      -0.5045148965415660 [Eh]
	 SCS Correlation Energy    =      -0.5460086155733513 [Eh]
	 SCS Total Energy          =    -157.8352757967827529 [Eh]
	-----------------------------------------------------------


  -Total Gradient:
     Atom            X                  Y                   Z
    ------   -----------------  -----------------  -----------------
       1        0.010911381808     0.009594955272    -0.009048773809
       2        0.010657813288    -0.013559154881     0.000068224380
       3        0.003918085604     0.005240554358     0.015347783425
       4       -0.026945601049    -0.008008723055    -0.009615724089
       5       -0.007544455227    -0.013421119271     0.008417145388
       6       -0.003858468797    -0.009480607669    -0.014478236621
       7        0.019556241340     0.025878164031     0.016499851480
       8        0.006493363182     0.010559723443     0.012484111881
       9       -0.015632907419     0.003336827173     0.007985729628
      10        0.003528716192    -0.015982192616    -0.032106246916
      11       -0.005466729864     0.016603851177    -0.003933033013
      12        0.014140357529     0.001501920913    -0.008789954663
      13       -0.009272622413    -0.007363178457    -0.011073175875
      14       -0.000485174174    -0.004901020418     0.028242298804


			-----------------------------------------
			 OPTKING 2.0: for geometry optimizations 
			  - R.A. King,  Bethel University        
			-----------------------------------------

	Previous internal coordinate definitions found.
	---Fragment 1 Geometry and Gradient---
	 H          -3.6709681705        0.4160334557        0.0962035132
	 H          -3.4045167857        3.4925076001       -1.0754266892
	 H          -2.8413783981        0.9149211548       -3.0596391288
	 C          -2.6542955110        1.6160095501       -1.1736924481
	 H           1.1761793604        2.8556698933       -1.6990363131
	 H           0.3484793142        2.3586719203        1.4586960550
	 C           0.1595067009        1.6556937989       -0.4272506256
	 H           0.0536820374       -2.1823399770       -1.7443897403
	 H           3.1037000159       -0.9823638826       -1.3513267046
	 C           1.2404300489       -1.0428351189       -0.5689800856
	 H           2.0983657132       -4.0626174792        2.0048269074
	 H          -0.5151255286       -2.2484803916        2.8873290114
	 H           2.5348924499       -1.0485042973        3.2785023209
	 C           1.3481444385       -2.1880091554        2.1030926663
	             0.0109113818        0.0095949553       -0.0090487738
	             0.0106578133       -0.0135591549        0.0000682244
	             0.0039180856        0.0052405544        0.0153477834
	            -0.0269456010       -0.0080087231       -0.0096157241
	            -0.0075444552       -0.0134211193        0.0084171454
	            -0.0038584688       -0.0094806077       -0.0144782366
	             0.0195562413        0.0258781640        0.0164998515
	             0.0064933632        0.0105597234        0.0124841119
	            -0.0156329074        0.0033368272        0.0079857296
	             0.0035287162       -0.0159821926       -0.0321062469
	            -0.0054667299        0.0166038512       -0.0039330330
	             0.0141403575        0.0015019209       -0.0087899547
	            -0.0092726224       -0.0073631785       -0.0110731759
	            -0.0004851742       -0.0049010204        0.0282422988

	Previous optimization step data not found.  Starting new optimization.

	---Fragment 1 Intrafragment Coordinates---
	 - Coordinate -           - BOHR/RAD -       - ANG/DEG -
	 R(1,4)           =         2.021436	       1.069698
	 R(2,4)           =         2.023298	       1.070683
	 R(3,4)           =         2.020723	       1.069320
	 R(4,7)           =         2.911397	       1.540645
	 R(5,7)           =         2.022623	       1.070326
	 R(6,7)           =         2.021555	       1.069761
	 R(7,10)          =         2.910419	       1.540128
	 R(8,10)          =         2.021987	       1.069989
	 R(9,10)          =         2.021756	       1.069867
	 R(10,14)         =         2.909123	       1.539442
	 R(11,14)         =         2.021545	       1.069756
	 R(12,14)         =         2.022488	       1.070255
	 R(13,14)         =         2.021987	       1.069989
	 B(1,4,2)         =         1.910870	     109.484805
	 B(1,4,3)         =         1.911121	     109.499161
	 B(1,4,7)         =         1.910399	     109.457783
	 B(2,4,3)         =         1.910042	     109.437340
	 B(2,4,7)         =         1.910564	     109.467262
	 B(3,4,7)         =         1.910803	     109.480971
	 B(4,7,5)         =         1.909937	     109.431343
	 B(4,7,6)         =         1.911630	     109.528316
	 B(4,7,10)        =         1.911154	     109.501062
	 B(5,7,6)         =         1.910605	     109.469614
	 B(5,7,10)        =         1.910047	     109.437654
	 B(6,7,10)        =         1.910425	     109.459295
	 B(7,10,8)        =         1.910126	     109.442139
	 B(7,10,9)        =         1.910699	     109.474981
	 B(7,10,14)       =         1.911353	     109.512487
	 B(8,10,9)        =         1.910090	     109.440106
	 B(8,10,14)       =         1.911164	     109.501622
	 B(9,10,14)       =         1.910367	     109.455965
	 B(10,14,11)      =         1.911478	     109.519601
	 B(10,14,12)      =         1.911149	     109.500796
	 B(10,14,13)      =         1.911164	     109.501622
	 B(11,14,12)      =         1.910301	     109.452168
	 B(11,14,13)      =         1.910320	     109.453259
	 B(12,14,13)      =         1.909387	     109.399790
	 D(1,4,7,5)       =         3.140997	     179.965873
	 D(1,4,7,6)       =        -1.047644	     -60.025575
	 D(1,4,7,10)      =         1.047427	      60.013132
	 D(2,4,7,5)       =        -1.047689	     -60.028143
	 D(2,4,7,6)       =         1.046856	      59.980409
	 D(2,4,7,10)      =        -3.141259	    -179.980883
	 D(3,4,7,5)       =         1.046044	      59.933911
	 D(3,4,7,6)       =         3.140588	     179.942463
	 D(3,4,7,10)      =        -1.047526	     -60.018830
	 D(4,7,10,8)      =         0.349701	      20.036417
	 D(4,7,10,9)      =         2.443161	     139.982824
	 D(4,7,10,14)     =        -1.745474	    -100.008276
	 D(5,7,10,8)      =        -1.743801	     -99.912459
	 D(5,7,10,9)      =         0.349658	      20.033948
	 D(5,7,10,14)     =         2.444209	     140.042848
	 D(6,7,10,8)      =         2.445509	     140.117343
	 D(6,7,10,9)      =        -1.744217	     -99.936250
	 D(6,7,10,14)     =         0.350334	      20.072650
	 D(7,10,14,11)    =         3.141279	     179.982004
	 D(7,10,14,12)    =         1.046457	      59.957547
	 D(7,10,14,13)    =        -1.047053	     -59.991695
	 D(8,10,14,11)    =         1.046739	      59.973699
	 D(8,10,14,12)    =        -1.048083	     -60.050757
	 D(8,10,14,13)    =         3.141593	     180.000000
	 D(9,10,14,11)    =        -1.047153	     -59.997462
	 D(9,10,14,12)    =         3.141210	     179.978082
	 D(9,10,14,13)    =         1.047701	      60.028839

	Current energy   :      -157.8341774188

	Generating empirical Hessian (Schlegel '84) for each fragment.
	Adding user-defined constraint: Fragment 1; Coordinate 49:
		Value =    -1.745474; Fixed value    =    -1.745330
		Force =     0.000072; Force constant =     0.500000
	Removing off-diagonal coupling between coordinate 49 and others.
	Taking RFO optimization step.
	Going to follow RFO solution 1.
	Using RFO vector 1.

	Determining step-restricting scale parameter for RS-RFO.
	Maximum step size allowed    0.10000

	 Iter      |step|        alpha        rfo_root  
	------------------------------------------------
	    0     0.24019       1.00000           1
	    1     0.18307       4.73669           1
	    2     0.13915      15.12454           1
	    3     0.11315      31.07151           1
	    4     0.10222      42.78770           1
	    5     0.10008      45.62470           1
	    6     0.10000      45.73597           1
	------------------------------------------------
	Norm of target step-size    0.10000
	Projected energy change by RFO approximation:        -0.0054688600

	Back-transformation to cartesian coordinates...
	Successfully converged to displaced geometry.

	--- Internal Coordinate Step in ANG or DEG, aJ/ANG or AJ/DEG ---
	 ---------------------------------------------------------------------------
	   Coordinate                Previous        Force       Change         New 
	   ----------                --------       ------       ------       ------
	    1 R(1,4)          =      1.069698     0.138972     0.014123     1.083821
	    2 R(2,4)          =      1.070683     0.136136     0.013863     1.084545
	    3 R(3,4)          =      1.069320     0.135980     0.013809     1.083129
	    4 R(4,7)          =      1.540645    -0.019231    -0.002271     1.538374
	    5 R(5,7)          =      1.070326     0.140447     0.014291     1.084617
	    6 R(6,7)          =      1.069761     0.141414     0.014373     1.084134
	    7 R(7,10)         =      1.540128     0.046295     0.005462     1.545590
	    8 R(8,10)         =      1.069989     0.140218     0.014258     1.084248
	    9 R(9,10)         =      1.069867     0.143336     0.014572     1.084439
	   10 R(10,14)        =      1.539442    -0.014371    -0.001694     1.537748
	   11 R(11,14)        =      1.069756     0.141992     0.014432     1.084188
	   12 R(12,14)        =      1.070255     0.135778     0.013814     1.084069
	   13 R(13,14)        =      1.069989     0.132057     0.013428     1.083418
	   14 B(1,4,2)        =    109.484805    -0.000310    -0.558166   108.926639
	   15 B(1,4,3)        =    109.499161    -0.000202    -0.375577   109.123584
	   16 B(1,4,7)        =    109.457783     0.000191     0.333759   109.791542
	   17 B(2,4,3)        =    109.437340    -0.000276    -0.487544   108.949796
	   18 B(2,4,7)        =    109.467262     0.000462     0.842473   110.309735
	   19 B(3,4,7)        =    109.480971     0.000135     0.233148   109.714120
	   20 B(4,7,5)        =    109.431343    -0.000239    -0.407452   109.023891
	   21 B(4,7,6)        =    109.528316    -0.000197    -0.295680   109.232636
	   22 B(4,7,10)       =    109.501062     0.000697     1.156563   110.657625
	   23 B(5,7,6)        =    109.469614    -0.000050    -0.272641   109.196972
	   24 B(5,7,10)       =    109.437654    -0.000036     0.048440   109.486094
	   25 B(6,7,10)       =    109.459295    -0.000174    -0.237411   109.221884
	   26 B(7,10,8)       =    109.442139    -0.000174    -0.237689   109.204450
	   27 B(7,10,9)       =    109.474981    -0.000041     0.038461   109.513442
	   28 B(7,10,14)      =    109.512487     0.000698     1.158326   110.670813
	   29 B(8,10,9)       =    109.440106    -0.000049    -0.269682   109.170423
	   30 B(8,10,14)      =    109.501622    -0.000195    -0.289618   109.212004
	   31 B(9,10,14)      =    109.455965    -0.000239    -0.408651   109.047314
	   32 B(10,14,11)     =    109.519601     0.000458     0.833939   110.353540
	   33 B(10,14,12)     =    109.500796     0.000182     0.317971   109.818767
	   34 B(10,14,13)     =    109.501622     0.000134     0.232540   109.734162
	   35 B(11,14,12)     =    109.452168    -0.000305    -0.548292   108.903876
	   36 B(11,14,13)     =    109.453259    -0.000277    -0.490539   108.962721
	   37 B(12,14,13)     =    109.399790    -0.000193    -0.359387   109.040402
	   38 D(1,4,7,5)      =    179.965873     0.000034     0.326095   180.291968
	   39 D(1,4,7,6)      =    -60.025575    -0.000041    -0.429721   -60.455296
	   40 D(1,4,7,10)     =     60.013132    -0.000020    -0.191388    59.821745
	   41 D(2,4,7,5)      =    -60.028143     0.000039     0.370111   -59.658032
	   42 D(2,4,7,6)      =     59.980409    -0.000037    -0.385705    59.594704
	   43 D(2,4,7,10)     =   -179.980883    -0.000015    -0.147371  -180.128255
	   44 D(3,4,7,5)      =     59.933911     0.000045     0.437548    60.371458
	   45 D(3,4,7,6)      =    179.942463    -0.000030    -0.318268   179.624194
	   46 D(3,4,7,10)     =    -60.018830    -0.000009    -0.079935   -60.098765
	   47 D(4,7,10,8)     =     20.036417     0.000035     0.350529    20.386946
	   48 D(4,7,10,9)     =    139.982824    -0.000009    -0.100093   139.882731
	   49 D(4,7,10,14)    =   -100.008276     0.000016     0.140223   -99.868052
	   50 D(5,7,10,8)     =    -99.912459     0.000009     0.105121   -99.807338
	   51 D(5,7,10,9)     =     20.033948    -0.000034    -0.345502    19.688447
	   52 D(5,7,10,14)    =    140.042848    -0.000009    -0.105185   139.937664
	   53 D(6,7,10,8)     =    140.117343     0.000053     0.553067   140.670410
	   54 D(6,7,10,9)     =    -99.936250     0.000009     0.102445   -99.833806
	   55 D(6,7,10,14)    =     20.072650     0.000034     0.342761    20.415411
	   56 D(7,10,14,11)   =    179.982004    -0.000014    -0.140429   179.841575
	   57 D(7,10,14,12)   =     59.957547    -0.000019    -0.182722    59.774825
	   58 D(7,10,14,13)   =    -59.991695    -0.000009    -0.080962   -60.072658
	   59 D(8,10,14,11)   =     59.973699    -0.000036    -0.382610    59.591089
	   60 D(8,10,14,12)   =    -60.050757    -0.000041    -0.424904   -60.475661
	   61 D(8,10,14,13)   =    180.000000    -0.000031    -0.323144   179.676856
	   62 D(9,10,14,11)   =    -59.997462     0.000038     0.366309   -59.631153
	   63 D(9,10,14,12)   =    179.978082     0.000034     0.324015   180.302097
	   64 D(9,10,14,13)   =     60.028839     0.000044     0.425775    60.454614
	 ---------------------------------------------------------------------------
	 Forces used to impose fixed constraints are not included.
	  Forces zeroed: 49 

  ==> Convergence Check <==

  Measures of convergence in internal coordinates in au.
  Criteria marked as inactive (o), active & met (*), and active & unmet ( ).
  --------------------------------------------------------------------------------------------- ~
   Step     Total Energy     Delta E     MAX Force     RMS Force      MAX Disp      RMS Disp    ~
  --------------------------------------------------------------------------------------------- ~
    Convergence Criteria    1.00e-06 *    3.00e-04 *             o    1.20e-03 *             o  ~
  --------------------------------------------------------------------------------------------- ~
      1    -157.83417742   -1.58e+02      1.74e-02      7.22e-03 o    2.75e-02      1.25e-02 o  ~
  ---------------------------------------------------------------------------------------------

	Writing optimization data to binary file.
	Structure for next step:
	Cartesian Geometry (in Angstrom)
	    H    -1.9713024924   0.2172732967   0.0357634738
	    H    -1.8309262505   1.8490896129  -0.6206743656
	    H    -1.5143055917   0.4539958615  -1.6530588015
	    C    -1.4156631953   0.8475886894  -0.6488061855
	    H     0.6114189694   1.5110501627  -0.9343130691
	    H     0.1588150377   1.2745922111   0.7581026555
	    C     0.0685495229   0.8734234160  -0.2450237212
	    H     0.0488567185  -1.1832339817  -0.9058479820
	    H     1.6699564299  -0.5123502333  -0.6919125524
	    C     0.6678205162  -0.5508470733  -0.2792991628
	    H     1.1490497348  -2.1472861490   1.1062267019
	    H    -0.2664105782  -1.1967697180   1.5592511713
	    H     1.3521989490  -0.5248036525   1.7687483841
	    C     0.7306445799  -1.1475465237   1.1365653452
			--------------------------
			 OPTKING Finished Execution 
			--------------------------

    Structure for next step:
    Molecular point group: c1
    Full point group: C1

    Geometry (in Angstrom), charge = 0, multiplicity = 1:

    H           -1.971628440765     0.217084634148     0.035990317380
    H           -1.831252198939     1.848900950383    -0.620447522017
    H           -1.514631540138     0.453807199006    -1.652831957930
    C           -1.415989143686     0.847400026864    -0.648579341988
    H            0.611093020975     1.510861500188    -0.934086225547
    H            0.158489089296     1.274403548583     0.758329499073
    C            0.068223574523     0.873234753473    -0.244796877682
    H            0.048530770113    -1.183422644219    -0.905621138446
    H            1.669630481547    -0.512538895816    -0.691685708840
    C            0.667494567791    -0.551035735805    -0.279072319193
    H            1.148723786358    -2.147474811490     1.106453545449
    H           -0.266736526599    -1.196958380495     1.559478014890
    H            1.351873000561    -0.524992314996     1.768975227671
    C            0.730318631470    -1.147735186268     1.136792188800

gradient() will perform analytic gradient computation.
    SCF Algorithm Type (re)set to DF.

*** tstart() called on lski1497
*** at Thu Feb 16 16:31:04 2017


         ---------------------------------------------------------
                                   SCF
            by Justin Turney, Rob Parrish, and Andy Simmonett
                              RHF Reference
                        1 Threads,   1000 MiB Core
         ---------------------------------------------------------

  ==> Geometry <==

    Molecular point group: c1
    Full point group: C1

    Geometry (in Angstrom), charge = 0, multiplicity = 1:

       Center              X                  Y                   Z               Mass       
    ------------   -----------------  -----------------  -----------------  -----------------
           H         -1.971628440765     0.217084634148     0.035990317380     1.007825032070
           H         -1.831252198939     1.848900950383    -0.620447522017     1.007825032070
           H         -1.514631540138     0.453807199006    -1.652831957930     1.007825032070
           C         -1.415989143686     0.847400026864    -0.648579341988    12.000000000000
           H          0.611093020975     1.510861500188    -0.934086225547     1.007825032070
           H          0.158489089296     1.274403548583     0.758329499073     1.007825032070
           C          0.068223574523     0.873234753473    -0.244796877682    12.000000000000
           H          0.048530770113    -1.183422644219    -0.905621138446     1.007825032070
           H          1.669630481547    -0.512538895816    -0.691685708840     1.007825032070
           C          0.667494567791    -0.551035735805    -0.279072319193    12.000000000000
           H          1.148723786358    -2.147474811490     1.106453545449     1.007825032070
           H         -0.266736526599    -1.196958380495     1.559478014890     1.007825032070
           H          1.351873000561    -0.524992314996     1.768975227671     1.007825032070
           C          0.730318631470    -1.147735186268     1.136792188800    12.000000000000

  Running in c1 symmetry.

  Rotational constants: A =      0.51695  B =      0.14016  C =      0.13306 [cm^-1]
  Rotational constants: A =  15497.78863  B =   4201.84993  C =   3988.97984 [MHz]
  Nuclear repulsion =  132.168801024337796

  Charge       = 0
  Multiplicity = 1
  Electrons    = 34
  Nalpha       = 17
  Nbeta        = 17

  ==> Algorithm <==

  SCF Algorithm Type is DF.
  DIIS enabled.
  MOM disabled.
  Fractional occupation disabled.
  Guess Type is READ.
  Energy threshold   = 1.00e-10
  Density threshold  = 1.00e-10
  Integral threshold = 0.00e+00

  ==> Primary Basis <==

  Basis Set: 6-31G(D)
    Number of shells: 44
    Number of basis function: 80
    Number of Cartesian functions: 80
    Spherical Harmonics?: false
    Max angular momentum: 2

  ==> Pre-Iterations <==

   -------------------------------------------------------
    Irrep   Nso     Nmo     Nalpha   Nbeta   Ndocc  Nsocc
   -------------------------------------------------------
     A         80      80       0       0       0       0
   -------------------------------------------------------
    Total      80      80      17      17      17       0
   -------------------------------------------------------

  ==> Integral Setup <==

  ==> DFJK: Density-Fitted J/K Matrices <==

    J tasked:                  Yes
    K tasked:                  Yes
    wK tasked:                  No
    OpenMP threads:              1
    Integrals threads:           1
    Memory (MB):               715
    Algorithm:                Core
    Integral Cache:           NONE
    Schwarz Cutoff:          1E-12
    Fitting Condition:       1E-12

   => Auxiliary Basis Set <=

  Basis Set: 
    Number of shells: 186
    Number of basis function: 574
    Number of Cartesian functions: 574
    Spherical Harmonics?: false
    Max angular momentum: 3

  Minimum eigenvalue in the overlap matrix is 5.2449908481E-03.
  Using Symmetric Orthogonalization.
  SCF Guess was Projection but file not found.
  Switching over to SAD guess.

  SCF Guess: Superposition of Atomic Densities via on-the-fly atomic UHF.

  ==> Iterations <==

                           Total Energy        Delta E     RMS |[F,P]|

   @DF-RHF iter   0:  -158.81020213718895   -1.58810e+02   4.60967e-02 
   @DF-RHF iter   1:  -157.19872077869698    1.61148e+00   4.03353e-03 
   @DF-RHF iter   2:  -157.28276094088514   -8.40402e-02   1.17157e-03 DIIS
   @DF-RHF iter   3:  -157.29146322425660   -8.70228e-03   3.72421e-04 DIIS
   @DF-RHF iter   4:  -157.29212620037671   -6.62976e-04   8.63834e-05 DIIS
   @DF-RHF iter   5:  -157.29217498233388   -4.87820e-05   1.41806e-05 DIIS
   @DF-RHF iter   6:  -157.29217661886329   -1.63653e-06   2.51719e-06 DIIS
   @DF-RHF iter   7:  -157.29217665748897   -3.86257e-08   8.02724e-07 DIIS
   @DF-RHF iter   8:  -157.29217666115531   -3.66634e-09   1.76390e-07 DIIS
   @DF-RHF iter   9:  -157.29217666139564   -2.40334e-10   4.61188e-08 DIIS
   @DF-RHF iter  10:  -157.29217666141224   -1.65983e-11   9.52710e-09 DIIS
   @DF-RHF iter  11:  -157.29217666141287   -6.25278e-13   2.68112e-09 DIIS
   @DF-RHF iter  12:  -157.29217666141281    5.68434e-14   5.61168e-10 DIIS
   @DF-RHF iter  13:  -157.29217666141304   -2.27374e-13   1.07401e-10 DIIS
   @DF-RHF iter  14:  -157.29217666141264    3.97904e-13   2.18486e-11 DIIS

  ==> Post-Iterations <==

    Orbital Energies (a.u.)
    -----------------------

    Doubly Occupied:                                                      

       1A    -11.212085     2A    -11.211528     3A    -11.206853  
       4A    -11.206823     5A     -1.068522     6A     -0.976559  
       7A     -0.863866     8A     -0.785410     9A     -0.629168  
      10A     -0.612395    11A     -0.578630    12A     -0.544695  
      13A     -0.517728    14A     -0.505648    15A     -0.469267  
      16A     -0.457482    17A     -0.448050  

    Virtual:                                                              

      18A      0.231373    19A      0.274889    20A      0.280947  
      21A      0.291735    22A      0.312338    23A      0.319979  
      24A      0.339374    25A      0.347576    26A      0.350215  
      27A      0.371768    28A      0.402864    29A      0.450917  
      30A      0.452146    31A      0.715466    32A      0.729987  
      33A      0.730040    34A      0.766034    35A      0.778409  
      36A      0.824603    37A      0.858081    38A      0.930851  
      39A      0.945657    40A      0.995688    41A      1.066215  
      42A      1.114531    43A      1.159813    44A      1.164395  
      45A      1.183019    46A      1.193707    47A      1.195972  
      48A      1.221687    49A      1.241308    50A      1.246415  
      51A      1.252015    52A      1.270706    53A      1.278983  
      54A      1.454940    55A      1.702852    56A      1.735208  
      57A      1.818716    58A      1.881164    59A      2.036564  
      60A      2.053947    61A      2.189196    62A      2.244549  
      63A      2.267622    64A      2.308220    65A      2.374825  
      66A      2.453546    67A      2.473044    68A      2.606815  
      69A      2.629560    70A      2.658163    71A      2.716240  
      72A      2.760190    73A      2.788242    74A      2.894462  
      75A      2.991817    76A      3.074016    77A      4.561420  
      78A      4.661195    79A      4.836492    80A      4.953557  

    Final Occupation by Irrep:
              A 
    DOCC [    17 ]

  Energy converged.

  @DF-RHF Final Energy:  -157.29217666141264

   => Energetics <=

    Nuclear Repulsion Energy =            132.1688010243377960
    One-Electron Energy =                -472.3325393052027721
    Two-Electron Energy =                 182.8715616194521090
    DFT Exchange-Correlation Energy =       0.0000000000000000
    Empirical Dispersion Energy =           0.0000000000000000
    PCM Polarization Energy =               0.0000000000000000
    EFP Energy =                            0.0000000000000000
    Total Energy =                       -157.2921766614128956


  Saving occupied orbitals to File 180.

*** tstop() called on lski1497 at Thu Feb 16 16:31:11 2017
Module time:
	user time   =       5.45 seconds =       0.09 minutes
	system time =       0.18 seconds =       0.00 minutes
	total time  =          7 seconds =       0.12 minutes
Total time:
	user time   =      30.36 seconds =       0.51 minutes
	system time =       0.93 seconds =       0.02 minutes
	total time  =         36 seconds =       0.60 minutes


Properties will be evaluated at   0.000000,   0.000000,   0.000000 Bohr

Properties computed using the SCF density matrix

  Nuclear Dipole Moment: (a.u.)
     X:    -0.5586      Y:    -0.2441      Z:     0.3980

  Electronic Dipole Moment: (a.u.)
     X:     0.5857      Y:     0.2557      Z:    -0.4173

  Dipole Moment: (a.u.)
     X:     0.0270      Y:     0.0117      Z:    -0.0193     Total:     0.0352

  Dipole Moment: (Debye)
     X:     0.0687      Y:     0.0297      Z:    -0.0491     Total:     0.0895


  //>>>>>>>>>>>>>>>>>>>>>>>>>>>>>>>>>>>//
  //               DFMP2               //
  //<<<<<<<<<<<<<<<<<<<<<<<<<<<<<<<<<<<//


*** tstart() called on lski1497
*** at Thu Feb 16 16:31:11 2017


*** tstop() called on lski1497 at Thu Feb 16 16:31:12 2017
Module time:
	user time   =       0.54 seconds =       0.01 minutes
	system time =       0.00 seconds =       0.00 minutes
	total time  =          1 seconds =       0.02 minutes
Total time:
	user time   =      30.92 seconds =       0.52 minutes
	system time =       0.93 seconds =       0.02 minutes
	total time  =         37 seconds =       0.62 minutes
	 --------------------------------------------------------
	                          DF-MP2                         
	      2nd-Order Density-Fitted Moller-Plesset Theory     
	              RMP2 Wavefunction,   1 Threads             
	                                                         
	        Rob Parrish, Justin Turney, Andy Simmonett,      
	           Ed Hohenstein, and C. David Sherrill          
	 --------------------------------------------------------

   => Auxiliary Basis Set <=

  Basis Set: 
    Number of shells: 132
    Number of basis function: 364
    Number of Cartesian functions: 414
    Spherical Harmonics?: true
    Max angular momentum: 3

	 --------------------------------------------------------
	                 NBF =    80, NAUX =   364
	 --------------------------------------------------------
	   CLASS    FOCC     OCC    AOCC    AVIR     VIR    FVIR
	   PAIRS       0      17      17      63      63       0
	 --------------------------------------------------------

DGAS Warning! /src/lib/libfock/apps.cc:80 is not currently checking restricted

         ------------------------------------------------------------
                                     CPHF                           
                                  Rob Parrish                       
         ------------------------------------------------------------

  ==> Geometry <==

    Molecular point group: c1
    Full point group: C1

    Geometry (in Angstrom), charge = 0, multiplicity = 1:

       Center              X                  Y                   Z               Mass       
    ------------   -----------------  -----------------  -----------------  -----------------
           H         -1.971628440765     0.217084634148     0.035990317380     1.007825032070
           H         -1.831252198939     1.848900950383    -0.620447522017     1.007825032070
           H         -1.514631540138     0.453807199006    -1.652831957930     1.007825032070
           C         -1.415989143686     0.847400026864    -0.648579341988    12.000000000000
           H          0.611093020975     1.510861500188    -0.934086225547     1.007825032070
           H          0.158489089296     1.274403548583     0.758329499073     1.007825032070
           C          0.068223574523     0.873234753473    -0.244796877682    12.000000000000
           H          0.048530770113    -1.183422644219    -0.905621138446     1.007825032070
           H          1.669630481547    -0.512538895816    -0.691685708840     1.007825032070
           C          0.667494567791    -0.551035735805    -0.279072319193    12.000000000000
           H          1.148723786358    -2.147474811490     1.106453545449     1.007825032070
           H         -0.266736526599    -1.196958380495     1.559478014890     1.007825032070
           H          1.351873000561    -0.524992314996     1.768975227671     1.007825032070
           C          0.730318631470    -1.147735186268     1.136792188800    12.000000000000

  Nuclear repulsion =  132.168801024337796
  Reference energy  = -157.292176661412640

  ==> Basis Set <==

  Basis Set: 6-31G(D)
    Number of shells: 44
    Number of basis function: 80
    Number of Cartesian functions: 80
    Spherical Harmonics?: false
    Max angular momentum: 2

  ==> CGRSolver (by Rob Parrish) <==

   Number of roots    =         1
   Preconditioning    =    JACOBI
   Convergence cutoff =     1E-06
   Maximum iterations =       100

  ==> CPHFRHamiltonian (by Rob Parrish) <== 

  ==> DFJK: Density-Fitted J/K Matrices <==

    J tasked:                  Yes
    K tasked:                  Yes
    wK tasked:                  No
    OpenMP threads:              1
    Integrals threads:           1
    Memory (MB):               715
    Algorithm:                Core
    Integral Cache:           NONE
    Schwarz Cutoff:          1E-12
    Fitting Condition:       1E-12

   => Auxiliary Basis Set <=

  Basis Set: 
    Number of shells: 186
    Number of basis function: 574
    Number of Cartesian functions: 574
    Spherical Harmonics?: false
    Max angular momentum: 3

  ==> CPHF Iterations <==

  => Iterations <=

             Iter  Converged  Remaining    Residual
  CGR           1          0          1   7.424E-02
  CGR           2          0          1   8.881E-03
  CGR           3          0          1   2.559E-03
  CGR           4          0          1   4.361E-04
  CGR           5          0          1   8.314E-05
  CGR           6          0          1   1.811E-05
  CGR           7          0          1   3.040E-06
  CGR           8          1          0   5.751E-07

    CGRSolver converged.

  ==> DFCorrGrad: Density-Fitted Correlated Gradients <==

    OpenMP threads:              1
    Integrals threads:           1
    Memory (MB):               715
    Schwarz Cutoff:          0E+00
    Fitting Condition:       1E-12

   => Auxiliary Basis Set <=

  Basis Set: 
    Number of shells: 186
    Number of basis function: 510
    Number of Cartesian functions: 574
    Spherical Harmonics?: true
    Max angular momentum: 3

	-----------------------------------------------------------
	 ==================> DF-MP2 Energies <==================== 
	-----------------------------------------------------------
	 Reference Energy          =    -157.2921766614126398 [Eh]
	 Singles Energy            =      -0.0000000000000000 [Eh]
	 Same-Spin Energy          =      -0.1243547583283592 [Eh]
	 Opposite-Spin Energy      =      -0.4217155677818088 [Eh]
	 Correlation Energy        =      -0.5460703261101680 [Eh]
	 Total Energy              =    -157.8382469875228082 [Eh]
	-----------------------------------------------------------
	 ================> DF-SCS-MP2 Energies <================== 
	-----------------------------------------------------------
	 SCS Same-Spin Scale       =       0.3333333333333333 [-]
	 SCS Opposite-Spin Scale   =       1.2000000000000000 [-]
	 SCS Same-Spin Energy      =      -0.0414515861094531 [Eh]
	 SCS Opposite-Spin Energy  =      -0.5060586813381706 [Eh]
	 SCS Correlation Energy    =      -0.5475102674476237 [Eh]
	 SCS Total Energy          =    -157.8396869288602602 [Eh]
	-----------------------------------------------------------


  -Total Gradient:
     Atom            X                  Y                   Z
    ------   -----------------  -----------------  -----------------
       1        0.005360828237     0.003749578475    -0.002792430194
       2        0.005153342904    -0.004632075975     0.000278026802
       3        0.002617608360     0.002153275924     0.005995333243
       4       -0.015483418748    -0.004747061086    -0.006408264974
       5       -0.003053146067    -0.006634976146     0.001846239093
       6       -0.003156319057    -0.006005542261    -0.004897534910
       7        0.011398958204     0.016925204027     0.010514353708
       8        0.000423488811     0.004775754718     0.006800159828
       9       -0.005632382176     0.002832698117     0.004267956278
      10        0.002170429141    -0.011029261961    -0.019750938844
      11       -0.001840468203     0.006351050653    -0.002691387741
      12        0.005123074380     0.000892908092    -0.004604606069
      13       -0.003431022237    -0.002390362600    -0.005244499509
      14        0.000349026451    -0.002241189976     0.016687593288


			-----------------------------------------
			 OPTKING 2.0: for geometry optimizations 
			  - R.A. King,  Bethel University        
			-----------------------------------------

	Previous internal coordinate definitions found.
	---Fragment 1 Geometry and Gradient---
	 H          -3.7258377889        0.4102305062        0.0680118433
	 H          -3.4605651362        3.4939164431       -1.1724758964
	 H          -2.8622388031        0.8575713233       -3.1233997442
	 C          -2.6758316887        1.6013539758       -1.2256373318
	 H           1.1547984514        2.8551144601       -1.7651671508
	 H           0.2995009738        2.4082736896        1.4330350717
	 C           0.1289238717        1.6501745338       -0.4625990570
	 H           0.0917098645       -2.2363446970       -1.7113759318
	 H           3.1551443532       -0.9685581455       -1.3070965597
	 C           1.2613819283       -1.0413066301       -0.5273702545
	 H           2.1707733585       -4.0581392710        2.0908941797
	 H          -0.5040589849       -2.2619235316        2.9469863584
	 H           2.5546697375       -0.9920916972        3.3428787162
	 C           1.3801022032       -2.1689051751        2.1482259068
	             0.0053608282        0.0037495785       -0.0027924302
	             0.0051533429       -0.0046320760        0.0002780268
	             0.0026176084        0.0021532759        0.0059953332
	            -0.0154834187       -0.0047470611       -0.0064082650
	            -0.0030531461       -0.0066349761        0.0018462391
	            -0.0031563191       -0.0060055423       -0.0048975349
	             0.0113989582        0.0169252040        0.0105143537
	             0.0004234888        0.0047757547        0.0068001598
	            -0.0056323822        0.0028326981        0.0042679563
	             0.0021704291       -0.0110292620       -0.0197509388
	            -0.0018404682        0.0063510507       -0.0026913877
	             0.0051230744        0.0008929081       -0.0046046061
	            -0.0034310222       -0.0023903626       -0.0052444995
	             0.0003490265       -0.0022411900        0.0166875933

	---Fragment 1 Intrafragment Coordinates---
	 - Coordinate -           - BOHR/RAD -       - ANG/DEG -
	 R(1,4)           =         2.048125	       1.083821
	 R(2,4)           =         2.049494	       1.084545
	 R(3,4)           =         2.046818	       1.083129
	 R(4,7)           =         2.907106	       1.538374
	 R(5,7)           =         2.049630	       1.084617
	 R(6,7)           =         2.048717	       1.084134
	 R(7,10)          =         2.920741	       1.545590
	 R(8,10)          =         2.048931	       1.084248
	 R(9,10)          =         2.049293	       1.084439
	 R(10,14)         =         2.905923	       1.537748
	 R(11,14)         =         2.048818	       1.084188
	 R(12,14)         =         2.048593	       1.084069
	 R(13,14)         =         2.047363	       1.083418
	 B(1,4,2)         =         1.901128	     108.926639
	 B(1,4,3)         =         1.904566	     109.123584
	 B(1,4,7)         =         1.916224	     109.791542
	 B(2,4,3)         =         1.901533	     108.949796
	 B(2,4,7)         =         1.925268	     110.309735
	 B(3,4,7)         =         1.914873	     109.714120
	 B(4,7,5)         =         1.902826	     109.023891
	 B(4,7,6)         =         1.906469	     109.232636
	 B(4,7,10)        =         1.931340	     110.657625
	 B(5,7,6)         =         1.905847	     109.196972
	 B(5,7,10)        =         1.910893	     109.486094
	 B(6,7,10)        =         1.906281	     109.221884
	 B(7,10,8)        =         1.905977	     109.204450
	 B(7,10,9)        =         1.911370	     109.513442
	 B(7,10,14)       =         1.931570	     110.670813
	 B(8,10,9)        =         1.905383	     109.170423
	 B(8,10,14)       =         1.906109	     109.212004
	 B(9,10,14)       =         1.903235	     109.047314
	 B(10,14,11)      =         1.926033	     110.353540
	 B(10,14,12)      =         1.916699	     109.818767
	 B(10,14,13)      =         1.915222	     109.734162
	 B(11,14,12)      =         1.900731	     108.903876
	 B(11,14,13)      =         1.901758	     108.962721
	 B(12,14,13)      =         1.903114	     109.040402
	 D(1,4,7,5)       =        -3.136497	    -179.708032
	 D(1,4,7,6)       =        -1.055144	     -60.455296
	 D(1,4,7,10)      =         1.044086	      59.821745
	 D(2,4,7,5)       =        -1.041229	     -59.658032
	 D(2,4,7,6)       =         1.040124	      59.594704
	 D(2,4,7,10)      =         3.139354	     179.871745
	 D(3,4,7,5)       =         1.053681	      60.371458
	 D(3,4,7,6)       =         3.135034	     179.624194
	 D(3,4,7,10)      =        -1.048921	     -60.098765
	 D(4,7,10,8)      =         0.355819	      20.386946
	 D(4,7,10,9)      =         2.441414	     139.882731
	 D(4,7,10,14)     =        -1.743026	     -99.868052
	 D(5,7,10,8)      =        -1.741967	     -99.807338
	 D(5,7,10,9)      =         0.343628	      19.688447
	 D(5,7,10,14)     =         2.442373	     139.937664
	 D(6,7,10,8)      =         2.455162	     140.670410
	 D(6,7,10,9)      =        -1.742429	     -99.833806
	 D(6,7,10,14)     =         0.356316	      20.415411
	 D(7,10,14,11)    =         3.138828	     179.841575
	 D(7,10,14,12)    =         1.043268	      59.774825
	 D(7,10,14,13)    =        -1.048466	     -60.072658
	 D(8,10,14,11)    =         1.040061	      59.591089
	 D(8,10,14,12)    =        -1.055499	     -60.475661
	 D(8,10,14,13)    =         3.135953	     179.676856
	 D(9,10,14,11)    =        -1.040760	     -59.631153
	 D(9,10,14,12)    =        -3.136320	    -179.697903
	 D(9,10,14,13)    =         1.055132	      60.454614

	Current energy   :      -157.8382469875

	Energy change for the previous step:
		Projected    :        -0.0054688600
		Actual       :        -0.0040695688

	Performing BFGS update.
	Previous computed or guess Hessian on step 1.
	Steps to be used in Hessian update: 1
	Adding user-defined constraint: Fragment 1; Coordinate 49:
		Value =    -1.743026; Fixed value    =    -1.745330
		Force =    -0.001209; Force constant =     0.525000
	Removing off-diagonal coupling between coordinate 49 and others.
	Taking RFO optimization step.
	Going to follow RFO solution 1.
	Using RFO vector 1.

	Determining step-restricting scale parameter for RS-RFO.
	Maximum step size allowed    0.10000

	 Iter      |step|        alpha        rfo_root  
	------------------------------------------------
	    0     0.21504       1.00000           1
	    1     0.16687       3.46809           1
	    2     0.13129      10.52336           1
	    3     0.10960      20.78284           1
	    4     0.10134      27.15874           1
	    5     0.10003      28.35712           1
	    6     0.10000      28.38760           1
	------------------------------------------------
	Norm of target step-size    0.10000
	Projected energy change by RFO approximation:        -0.0017561607

	Back-transformation to cartesian coordinates...
	Could not converge backtransformation.
	Using first guess instead.

	--- Internal Coordinate Step in ANG or DEG, aJ/ANG or AJ/DEG ---
	 ---------------------------------------------------------------------------
	   Coordinate                Previous        Force       Change         New 
	   ----------                --------       ------       ------       ------
	    1 R(1,4)          =      1.083821     0.055139     0.008579     1.092400
	    2 R(2,4)          =      1.084545     0.051438     0.007616     1.092162
	    3 R(3,4)          =      1.083129     0.054207     0.008349     1.091478
	    4 R(4,7)          =      1.538374    -0.025505    -0.006595     1.531780
	    5 R(5,7)          =      1.084617     0.054392     0.008153     1.092771
	    6 R(6,7)          =      1.084134     0.057809     0.009062     1.093196
	    7 R(7,10)         =      1.545590     0.002101    -0.001642     1.543947
	    8 R(8,10)         =      1.084248     0.057315     0.008990     1.093238
	    9 R(9,10)         =      1.084439     0.055432     0.008295     1.092734
	   10 R(10,14)        =      1.537748    -0.023176    -0.006132     1.531617
	   11 R(11,14)        =      1.084188     0.053481     0.007891     1.092079
	   12 R(12,14)        =      1.084069     0.053945     0.008405     1.092474
	   13 R(13,14)        =      1.083418     0.052748     0.008139     1.091557
	   14 B(1,4,2)        =    108.926639    -0.000212    -0.759626   108.167013
	   15 B(1,4,3)        =    109.123584    -0.000178    -0.762440   108.361144
	   16 B(1,4,7)        =    109.791542     0.000172     0.692791   110.484332
	   17 B(2,4,3)        =    108.949796    -0.000187    -0.659048   108.290748
	   18 B(2,4,7)        =    110.309735     0.000263     0.886677   111.196412
	   19 B(3,4,7)        =    109.714120     0.000131     0.537853   110.251973
	   20 B(4,7,5)        =    109.023891    -0.000115    -0.280676   108.743215
	   21 B(4,7,6)        =    109.232636    -0.000076    -0.031612   109.201024
	   22 B(4,7,10)       =    110.657625     0.000362     1.181772   111.839397
	   23 B(5,7,6)        =    109.196972    -0.000107    -1.079736   108.117237
	   24 B(5,7,10)       =    109.486094     0.000006     0.231525   109.717619
	   25 B(6,7,10)       =    109.221884    -0.000076    -0.075685   109.146198
	   26 B(7,10,8)       =    109.204450    -0.000076    -0.068557   109.135893
	   27 B(7,10,9)       =    109.513442     0.000004     0.219821   109.733263
	   28 B(7,10,14)      =    110.670813     0.000361     1.173006   111.843819
	   29 B(8,10,9)       =    109.170423    -0.000106    -1.070808   108.099616
	   30 B(8,10,14)      =    109.212004    -0.000074    -0.020135   109.191869
	   31 B(9,10,14)      =    109.047314    -0.000115    -0.287935   108.759379
	   32 B(10,14,11)     =    110.353540     0.000259     0.862794   111.216334
	   33 B(10,14,12)     =    109.818767     0.000165     0.670155   110.488922
	   34 B(10,14,13)     =    109.734162     0.000129     0.529492   110.263655
	   35 B(11,14,12)     =    108.903876    -0.000207    -0.743403   108.160473
	   36 B(11,14,13)     =    108.962721    -0.000187    -0.661623   108.301097
	   37 B(12,14,13)     =    109.040402    -0.000170    -0.721115   108.319287
	   38 D(1,4,7,5)      =   -179.708032     0.000024     0.550929  -179.157104
	   39 D(1,4,7,6)      =    -60.455296    -0.000031    -0.933869   -61.389165
	   40 D(1,4,7,10)     =     59.821745    -0.000012    -0.298750    59.522995
	   41 D(2,4,7,5)      =    -59.658032     0.000027     0.623897   -59.034134
	   42 D(2,4,7,6)      =     59.594704    -0.000028    -0.860900    58.733804
	   43 D(2,4,7,10)     =    179.871745    -0.000009    -0.225781   179.645964
	   44 D(3,4,7,5)      =     60.371458     0.000031     0.718598    61.090056
	   45 D(3,4,7,6)      =    179.624194    -0.000024    -0.766200   178.857995
	   46 D(3,4,7,10)     =    -60.098765    -0.000005    -0.131081   -60.229846
	   47 D(4,7,10,8)     =     20.386946     0.000029     0.876760    21.263706
	   48 D(4,7,10,9)     =    139.882731    -0.000011    -0.336362   139.546368
	   49 D(4,7,10,14)    =    -99.868052     0.000009     0.203382   -99.664670
	   50 D(5,7,10,8)     =    -99.807338     0.000008     0.316008   -99.491330
	   51 D(5,7,10,9)     =     19.688447    -0.000031    -0.897113    18.791333
	   52 D(5,7,10,14)    =    139.937664    -0.000011    -0.357369   139.580295
	   53 D(6,7,10,8)     =    140.670410     0.000048     1.537274   142.207684
	   54 D(6,7,10,9)     =    -99.833806     0.000008     0.324152   -99.509654
	   55 D(6,7,10,14)    =     20.415411     0.000028     0.863897    21.279308
	   56 D(7,10,14,11)   =    179.841575    -0.000009    -0.209835   179.631740
	   57 D(7,10,14,12)   =     59.774825    -0.000012    -0.273973    59.500852
	   58 D(7,10,14,13)   =    -60.072658    -0.000006    -0.137686   -60.210343
	   59 D(8,10,14,11)   =     59.591089    -0.000028    -0.855236    58.735853
	   60 D(8,10,14,12)   =    -60.475661    -0.000031    -0.919374   -61.395035
	   61 D(8,10,14,13)   =    179.676856    -0.000025    -0.783087   178.893770
	   62 D(9,10,14,11)   =    -59.631153     0.000027     0.616173   -59.014980
	   63 D(9,10,14,12)   =   -179.697903     0.000024     0.552035  -179.145868
	   64 D(9,10,14,13)   =     60.454614     0.000030     0.688322    61.142937
	 ---------------------------------------------------------------------------
	 Forces used to impose fixed constraints are not included.
	  Forces zeroed: 49 

  ==> Convergence Check <==

  Measures of convergence in internal coordinates in au.
  Criteria marked as inactive (o), active & met (*), and active & unmet ( ).
  ---------------------------------------------------------------------------------------------
   Step     Total Energy     Delta E     MAX Force     RMS Force      MAX Disp      RMS Disp   
  ---------------------------------------------------------------------------------------------
    Convergence Criteria    1.00e-06 *    3.00e-04 *             o    1.20e-03 *             o
  ---------------------------------------------------------------------------------------------
      2    -157.83824699   -4.07e-03      7.02e-03      3.16e-03 o    2.68e-02      1.25e-02 o  ~
  ---------------------------------------------------------------------------------------------

	Writing optimization data to binary file.
	Structure for next step:
	Cartesian Geometry (in Angstrom)
	    H    -1.9961787413   0.2336657000   0.0304210561
	    H    -1.8395109278   1.8669774525  -0.6313025864
	    H    -1.5322726726   0.4622849072  -1.6632047165
	    C    -1.4180024331   0.8596672407  -0.6530790917
	    H     0.6079801098   1.5137858794  -0.9424750620
	    H     0.1566446122   1.2883755747   0.7538948400
	    C     0.0600388027   0.8689680076  -0.2510139418
	    H     0.0591042450  -1.1936740462  -0.9075730946
	    H     1.6776721350  -0.5132340670  -0.6867981555
	    C     0.6689105055  -0.5497457541  -0.2683064296
	    H     1.1659331073  -2.1618255070   1.1112884781
	    H    -0.2579732236  -1.2203964511   1.5760980762
	    H     1.3618203047  -0.5367622450   1.7847670285
	    C     0.7399732490  -1.1565520482   1.1361813009
			--------------------------
			 OPTKING Finished Execution 
			--------------------------

    Structure for next step:
    Molecular point group: c1
    Full point group: C1

    Geometry (in Angstrom), charge = 0, multiplicity = 1:

    H           -1.996343873793     0.233576066461     0.030527387399
    H           -1.839676060306     1.866887819000    -0.631196255105
    H           -1.532437805085     0.462195273660    -1.663098385127
    C           -1.418167565593     0.859577607146    -0.652972760350
    H            0.607814977263     1.513696245880    -0.942368730702
    H            0.156479479662     1.288285941181     0.754001171321
    C            0.059873670159     0.868878374063    -0.250907610473
    H            0.058939112470    -1.193763679701    -0.907466763277
    H            1.677507002472    -0.513323700495    -0.686691824203
    C            0.668745373010    -0.549835387655    -0.268200098270
    H            1.165767974779    -2.161915140559     1.111394809394
    H           -0.258138356074    -1.220486084610     1.576204407564
    H            1.361655172161    -0.536851878575     1.784873359878
    C            0.739808116506    -1.156641681729     1.136287632188

gradient() will perform analytic gradient computation.
    SCF Algorithm Type (re)set to DF.

*** tstart() called on lski1497
*** at Thu Feb 16 16:31:33 2017


         ---------------------------------------------------------
                                   SCF
            by Justin Turney, Rob Parrish, and Andy Simmonett
                              RHF Reference
                        1 Threads,   1000 MiB Core
         ---------------------------------------------------------

  ==> Geometry <==

    Molecular point group: c1
    Full point group: C1

    Geometry (in Angstrom), charge = 0, multiplicity = 1:

       Center              X                  Y                   Z               Mass       
    ------------   -----------------  -----------------  -----------------  -----------------
           H         -1.996343873793     0.233576066461     0.030527387399     1.007825032070
           H         -1.839676060306     1.866887819000    -0.631196255105     1.007825032070
           H         -1.532437805085     0.462195273660    -1.663098385127     1.007825032070
           C         -1.418167565593     0.859577607146    -0.652972760350    12.000000000000
           H          0.607814977263     1.513696245880    -0.942368730702     1.007825032070
           H          0.156479479662     1.288285941181     0.754001171321     1.007825032070
           C          0.059873670159     0.868878374063    -0.250907610473    12.000000000000
           H          0.058939112470    -1.193763679701    -0.907466763277     1.007825032070
           H          1.677507002472    -0.513323700495    -0.686691824203     1.007825032070
           C          0.668745373010    -0.549835387655    -0.268200098270    12.000000000000
           H          1.165767974779    -2.161915140559     1.111394809394     1.007825032070
           H         -0.258138356074    -1.220486084610     1.576204407564     1.007825032070
           H          1.361655172161    -0.536851878575     1.784873359878     1.007825032070
           C          0.739808116506    -1.156641681729     1.136287632188    12.000000000000

  Running in c1 symmetry.

  Rotational constants: A =      0.52166  B =      0.13841  C =      0.13145 [cm^-1]
  Rotational constants: A =  15638.94852  B =   4149.56617  C =   3940.72453 [MHz]
  Nuclear repulsion =  131.715447236722724

  Charge       = 0
  Multiplicity = 1
  Electrons    = 34
  Nalpha       = 17
  Nbeta        = 17

  ==> Algorithm <==

  SCF Algorithm Type is DF.
  DIIS enabled.
  MOM disabled.
  Fractional occupation disabled.
  Guess Type is READ.
  Energy threshold   = 1.00e-10
  Density threshold  = 1.00e-10
  Integral threshold = 0.00e+00

  ==> Primary Basis <==

  Basis Set: 6-31G(D)
    Number of shells: 44
    Number of basis function: 80
    Number of Cartesian functions: 80
    Spherical Harmonics?: false
    Max angular momentum: 2

  ==> Pre-Iterations <==

   -------------------------------------------------------
    Irrep   Nso     Nmo     Nalpha   Nbeta   Ndocc  Nsocc
   -------------------------------------------------------
     A         80      80       0       0       0       0
   -------------------------------------------------------
    Total      80      80      17      17      17       0
   -------------------------------------------------------

  ==> Integral Setup <==

  ==> DFJK: Density-Fitted J/K Matrices <==

    J tasked:                  Yes
    K tasked:                  Yes
    wK tasked:                  No
    OpenMP threads:              1
    Integrals threads:           1
    Memory (MB):               715
    Algorithm:                Core
    Integral Cache:           NONE
    Schwarz Cutoff:          1E-12
    Fitting Condition:       1E-12

   => Auxiliary Basis Set <=

  Basis Set: 
    Number of shells: 186
    Number of basis function: 574
    Number of Cartesian functions: 574
    Spherical Harmonics?: false
    Max angular momentum: 3

  Minimum eigenvalue in the overlap matrix is 5.3118730892E-03.
  Using Symmetric Orthogonalization.
  SCF Guess was Projection but file not found.
  Switching over to SAD guess.

  SCF Guess: Superposition of Atomic Densities via on-the-fly atomic UHF.

  ==> Iterations <==

                           Total Energy        Delta E     RMS |[F,P]|

   @DF-RHF iter   0:  -158.76669036351703   -1.58767e+02   4.57367e-02 
   @DF-RHF iter   1:  -157.19955930952355    1.56713e+00   4.01236e-03 
   @DF-RHF iter   2:  -157.28354067561807   -8.39814e-02   1.17349e-03 DIIS
   @DF-RHF iter   3:  -157.29232273477621   -8.78206e-03   3.71373e-04 DIIS
   @DF-RHF iter   4:  -157.29298237177235   -6.59637e-04   8.65878e-05 DIIS
   @DF-RHF iter   5:  -157.29303118785870   -4.88161e-05   1.40676e-05 DIIS
   @DF-RHF iter   6:  -157.29303280778564   -1.61993e-06   2.45096e-06 DIIS
   @DF-RHF iter   7:  -157.29303284499966   -3.72140e-08   7.77001e-07 DIIS
   @DF-RHF iter   8:  -157.29303284838275   -3.38309e-09   1.68580e-07 DIIS
   @DF-RHF iter   9:  -157.29303284860256   -2.19814e-10   4.38295e-08 DIIS
   @DF-RHF iter  10:  -157.29303284861746   -1.48930e-11   9.42567e-09 DIIS
   @DF-RHF iter  11:  -157.29303284861831   -8.52651e-13   2.59433e-09 DIIS
   @DF-RHF iter  12:  -157.29303284861831    0.00000e+00   5.25206e-10 DIIS
   @DF-RHF iter  13:  -157.29303284861831    0.00000e+00   9.80872e-11 DIIS

  ==> Post-Iterations <==

    Orbital Energies (a.u.)
    -----------------------

    Doubly Occupied:                                                      

       1A    -11.215006     2A    -11.214450     3A    -11.209862  
       4A    -11.209856     5A     -1.067822     6A     -0.976545  
       7A     -0.862552     8A     -0.782871     9A     -0.626388  
      10A     -0.610560    11A     -0.576886    12A     -0.543081  
      13A     -0.516092    14A     -0.504809    15A     -0.467255  
      16A     -0.455498    17A     -0.451604  

    Virtual:                                                              

      18A      0.230139    19A      0.273769    20A      0.278757  
      21A      0.289336    22A      0.310984    23A      0.318439  
      24A      0.336904    25A      0.344945    26A      0.347540  
      27A      0.367771    28A      0.402377    29A      0.453414  
      30A      0.455609    31A      0.714456    32A      0.728555  
      33A      0.729776    34A      0.765457    35A      0.779381  
      36A      0.826154    37A      0.863659    38A      0.931762  
      39A      0.949852    40A      0.996249    41A      1.068056  
      42A      1.114730    43A      1.150579    44A      1.155376  
      45A      1.174058    46A      1.185523    47A      1.188775  
      48A      1.217707    49A      1.237166    50A      1.238495  
      51A      1.246462    52A      1.261457    53A      1.268785  
      54A      1.450471    55A      1.706648    56A      1.736928  
      57A      1.816906    58A      1.877068    59A      2.030050  
      60A      2.038400    61A      2.191881    62A      2.241019  
      63A      2.263790    64A      2.306584    65A      2.366769  
      66A      2.443353    67A      2.458786    68A      2.595315  
      69A      2.623289    70A      2.650559    71A      2.711626  
      72A      2.754496    73A      2.787621    74A      2.902961  
      75A      2.995631    76A      3.068249    77A      4.556045  
      78A      4.656225    79A      4.833268    80A      4.949713  

    Final Occupation by Irrep:
              A 
    DOCC [    17 ]

  Energy converged.

  @DF-RHF Final Energy:  -157.29303284861831

   => Energetics <=

    Nuclear Repulsion Energy =            131.7154472367227243
    One-Electron Energy =                -471.4346836844714517
    Two-Electron Energy =                 182.4262035991303605
    DFT Exchange-Correlation Energy =       0.0000000000000000
    Empirical Dispersion Energy =           0.0000000000000000
    PCM Polarization Energy =               0.0000000000000000
    EFP Energy =                            0.0000000000000000
    Total Energy =                       -157.2930328486183384


  Saving occupied orbitals to File 180.

*** tstop() called on lski1497 at Thu Feb 16 16:31:40 2017
Module time:
	user time   =       5.24 seconds =       0.09 minutes
	system time =       0.16 seconds =       0.00 minutes
	total time  =          7 seconds =       0.12 minutes
Total time:
	user time   =      54.67 seconds =       0.91 minutes
	system time =       1.60 seconds =       0.03 minutes
	total time  =         65 seconds =       1.08 minutes


Properties will be evaluated at   0.000000,   0.000000,   0.000000 Bohr

Properties computed using the SCF density matrix

  Nuclear Dipole Moment: (a.u.)
     X:    -0.5610      Y:    -0.2453      Z:     0.3995

  Electronic Dipole Moment: (a.u.)
     X:     0.5862      Y:     0.2564      Z:    -0.4175

  Dipole Moment: (a.u.)
     X:     0.0252      Y:     0.0110      Z:    -0.0180     Total:     0.0329

  Dipole Moment: (Debye)
     X:     0.0641      Y:     0.0280      Z:    -0.0458     Total:     0.0836


  //>>>>>>>>>>>>>>>>>>>>>>>>>>>>>>>>>>>//
  //               DFMP2               //
  //<<<<<<<<<<<<<<<<<<<<<<<<<<<<<<<<<<<//


*** tstart() called on lski1497
*** at Thu Feb 16 16:31:40 2017


*** tstop() called on lski1497 at Thu Feb 16 16:31:40 2017
Module time:
	user time   =       0.54 seconds =       0.01 minutes
	system time =       0.01 seconds =       0.00 minutes
	total time  =          0 seconds =       0.00 minutes
Total time:
	user time   =      55.23 seconds =       0.92 minutes
	system time =       1.61 seconds =       0.03 minutes
	total time  =         65 seconds =       1.08 minutes
	 --------------------------------------------------------
	                          DF-MP2                         
	      2nd-Order Density-Fitted Moller-Plesset Theory     
	              RMP2 Wavefunction,   1 Threads             
	                                                         
	        Rob Parrish, Justin Turney, Andy Simmonett,      
	           Ed Hohenstein, and C. David Sherrill          
	 --------------------------------------------------------

   => Auxiliary Basis Set <=

  Basis Set: 
    Number of shells: 132
    Number of basis function: 364
    Number of Cartesian functions: 414
    Spherical Harmonics?: true
    Max angular momentum: 3

	 --------------------------------------------------------
	                 NBF =    80, NAUX =   364
	 --------------------------------------------------------
	   CLASS    FOCC     OCC    AOCC    AVIR     VIR    FVIR
	   PAIRS       0      17      17      63      63       0
	 --------------------------------------------------------

DGAS Warning! /src/lib/libfock/apps.cc:80 is not currently checking restricted

         ------------------------------------------------------------
                                     CPHF                           
                                  Rob Parrish                       
         ------------------------------------------------------------

  ==> Geometry <==

    Molecular point group: c1
    Full point group: C1

    Geometry (in Angstrom), charge = 0, multiplicity = 1:

       Center              X                  Y                   Z               Mass       
    ------------   -----------------  -----------------  -----------------  -----------------
           H         -1.996343873793     0.233576066461     0.030527387399     1.007825032070
           H         -1.839676060306     1.866887819000    -0.631196255105     1.007825032070
           H         -1.532437805085     0.462195273660    -1.663098385127     1.007825032070
           C         -1.418167565593     0.859577607146    -0.652972760350    12.000000000000
           H          0.607814977263     1.513696245880    -0.942368730702     1.007825032070
           H          0.156479479662     1.288285941181     0.754001171321     1.007825032070
           C          0.059873670159     0.868878374063    -0.250907610473    12.000000000000
           H          0.058939112470    -1.193763679701    -0.907466763277     1.007825032070
           H          1.677507002472    -0.513323700495    -0.686691824203     1.007825032070
           C          0.668745373010    -0.549835387655    -0.268200098270    12.000000000000
           H          1.165767974779    -2.161915140559     1.111394809394     1.007825032070
           H         -0.258138356074    -1.220486084610     1.576204407564     1.007825032070
           H          1.361655172161    -0.536851878575     1.784873359878     1.007825032070
           C          0.739808116506    -1.156641681729     1.136287632188    12.000000000000

  Nuclear repulsion =  131.715447236722724
  Reference energy  = -157.293032848618310

  ==> Basis Set <==

  Basis Set: 6-31G(D)
    Number of shells: 44
    Number of basis function: 80
    Number of Cartesian functions: 80
    Spherical Harmonics?: false
    Max angular momentum: 2

  ==> CGRSolver (by Rob Parrish) <==

   Number of roots    =         1
   Preconditioning    =    JACOBI
   Convergence cutoff =     1E-06
[...]
    Spherical Harmonics?: true
    Max angular momentum: 3

	-----------------------------------------------------------
	 ==================> DF-MP2 Energies <==================== 
	-----------------------------------------------------------
	 Reference Energy          =    -157.2933923827383751 [Eh]
	 Singles Energy            =      -0.0000000000000000 [Eh]
	 Same-Spin Energy          =      -0.1243628246010209 [Eh]
	 Opposite-Spin Energy      =      -0.4224203496111343 [Eh]
	 Correlation Energy        =      -0.5467831742121553 [Eh]
	 Total Energy              =    -157.8401755569505269 [Eh]
	-----------------------------------------------------------
	 ================> DF-SCS-MP2 Energies <================== 
	-----------------------------------------------------------
	 SCS Same-Spin Scale       =       0.3333333333333333 [-]
	 SCS Opposite-Spin Scale   =       1.2000000000000000 [-]
	 SCS Same-Spin Energy      =      -0.0414542748670070 [Eh]
	 SCS Opposite-Spin Energy  =      -0.5069044195333612 [Eh]
	 SCS Correlation Energy    =      -0.5483586944003681 [Eh]
	 SCS Total Energy          =    -157.8417510771387526 [Eh]
	-----------------------------------------------------------


  -Total Gradient:
     Atom            X                  Y                   Z
    ------   -----------------  -----------------  -----------------
       1       -0.000004743649     0.000000428094    -0.000000733417
       2       -0.000002210809     0.000003489665     0.000000352698
       3        0.000005212908     0.000003641559     0.000000602822
       4        0.000738626899     0.000319124148    -0.002638867775
       5       -0.000006980413     0.000000369433     0.000005458053
       6       -0.000010514291    -0.000002719668    -0.000011337602
       7       -0.000064381803     0.000012508736     0.003774631584
       8        0.000006190737     0.000000844394     0.000014434245
       9       -0.000005749127    -0.000006015774     0.000003685760
      10       -0.003165392407    -0.001428224139    -0.001480684871
      11        0.000001050065    -0.000003707919     0.000000374600
      12       -0.000000011578    -0.000002513118     0.000003961689
      13        0.000002342700    -0.000000340685    -0.000005999920
      14        0.002506560766     0.001103115275     0.000334122135


			-----------------------------------------
			 OPTKING 2.0: for geometry optimizations 
			  - R.A. King,  Bethel University        
			-----------------------------------------

	Previous internal coordinate definitions found.
	---Fragment 1 Geometry and Gradient---
	 H          -3.7948541859        0.3869721409       -0.0201265699
	 H          -3.5078611374        3.5067604905       -1.1788348281
	 H          -2.8965813096        0.9102187067       -3.1938982269
	 C          -2.6843295624        1.6128163307       -1.2620819587
	 H           1.1316293794        2.8493860810       -1.8018007774
	 H           0.3037772962        2.4880549839        1.3813755612
	 C           0.0943503409        1.6274318426       -0.4909721254
	 H           0.1833678562       -2.2745128318       -1.7273852938
	 H           3.1832803262       -0.9579350291       -1.2629949733
	 C           1.2688843038       -1.0298536510       -0.4773072980
	 H           2.1718722748       -4.0923946485        2.1277648752
	 H          -0.4616806246       -2.2528418818        3.0434573485
	 H           2.6266106670       -1.0285565353        3.3856515119
	 C           1.4101563702       -2.1713540241        2.1671028397
	            -0.0000047436        0.0000004281       -0.0000007334
	            -0.0000022108        0.0000034897        0.0000003527
	             0.0000052129        0.0000036416        0.0000006028
	             0.0007386269        0.0003191241       -0.0026388678
	            -0.0000069804        0.0000003694        0.0000054581
	            -0.0000105143       -0.0000027197       -0.0000113376
	            -0.0000643818        0.0000125087        0.0037746316
	             0.0000061907        0.0000008444        0.0000144342
	            -0.0000057491       -0.0000060158        0.0000036858
	            -0.0031653924       -0.0014282241       -0.0014806849
	             0.0000010501       -0.0000037079        0.0000003746
	            -0.0000000116       -0.0000025131        0.0000039617
	             0.0000023427       -0.0000003407       -0.0000059999
	             0.0025065608        0.0011031153        0.0003341221

	---Fragment 1 Intrafragment Coordinates---
	 - Coordinate -           - BOHR/RAD -       - ANG/DEG -
	 R(1,4)           =         2.068432	       1.094567
	 R(2,4)           =         2.066920	       1.093767
	 R(3,4)           =         2.066545	       1.093569
	 R(4,7)           =         2.883728	       1.526003
	 R(5,7)           =         2.070602	       1.095715
	 R(6,7)           =         2.071284	       1.096076
	 R(7,10)          =         2.905320	       1.537429
	 R(8,10)          =         2.071284	       1.096076
	 R(9,10)          =         2.070601	       1.095715
	 R(10,14)         =         2.883728	       1.526003
	 R(11,14)         =         2.066919	       1.093767
	 R(12,14)         =         2.068432	       1.094567
	 R(13,14)         =         2.066545	       1.093568
	 B(1,4,2)         =         1.880680	     107.755032
	 B(1,4,3)         =         1.880371	     107.737314
	 B(1,4,7)         =         1.938830	     111.086795
	 B(2,4,3)         =         1.884161	     107.954488
	 B(2,4,7)         =         1.948198	     111.623517
	 B(3,4,7)         =         1.929069	     110.527527
	 B(4,7,5)         =         1.892745	     108.446284
	 B(4,7,6)         =         1.919043	     109.953067
	 B(4,7,10)        =         1.967267	     112.716118
	 B(5,7,6)         =         1.850849	     106.045812
	 B(5,7,10)        =         1.917946	     109.890198
	 B(6,7,10)        =         1.912298	     109.566609
	 B(7,10,8)        =         1.912298	     109.566607
	 B(7,10,9)        =         1.917947	     109.890249
	 B(7,10,14)       =         1.967268	     112.716142
	 B(8,10,9)        =         1.850849	     106.045830
	 B(8,10,14)       =         1.919043	     109.953053
	 B(9,10,14)       =         1.892743	     108.446207
	 B(10,14,11)      =         1.948197	     111.623475
	 B(10,14,12)      =         1.938830	     111.086757
	 B(10,14,13)      =         1.929069	     110.527514
	 B(11,14,12)      =         1.880681	     107.755060
	 B(11,14,13)      =         1.884161	     107.954498
	 B(12,14,13)      =         1.880372	     107.737373
	 D(1,4,7,5)       =         3.125156	     179.058254
	 D(1,4,7,6)       =        -1.141545	     -65.405737
	 D(1,4,7,10)      =         0.997593	      57.157867
	 D(2,4,7,5)       =        -1.058511	     -60.648217
	 D(2,4,7,6)       =         0.957973	      54.887792
	 D(2,4,7,10)      =         3.097111	     177.451397
	 D(3,4,7,5)       =         1.038781	      59.517739
	 D(3,4,7,6)       =         3.055264	     175.053748
	 D(3,4,7,10)      =        -1.088783	     -62.382647
	 D(4,7,10,8)      =         0.405303	      23.222139
	 D(4,7,10,9)      =         2.432310	     139.361115
	 D(4,7,10,14)     =        -1.737614	     -99.557943
	 D(5,7,10,8)      =        -1.707959	     -97.858849
	 D(5,7,10,9)      =         0.319048	      18.280128
	 D(5,7,10,14)     =         2.432310	     139.361069
	 D(6,7,10,8)      =         2.548220	     146.002224
	 D(6,7,10,9)      =        -1.707958	     -97.858799
	 D(6,7,10,14)     =         0.405303	      23.222142
	 D(7,10,14,11)    =         3.097115	     177.451595
	 D(7,10,14,12)    =         0.997597	      57.158084
	 D(7,10,14,13)    =        -1.088780	     -62.382472
	 D(8,10,14,11)    =         0.957976	      54.887986
	 D(8,10,14,12)    =        -1.141542	     -65.405525
	 D(8,10,14,13)    =         3.055267	     175.053919
	 D(9,10,14,11)    =        -1.058507	     -60.647993
	 D(9,10,14,12)    =         3.125160	     179.058496
	 D(9,10,14,13)    =         1.038784	      59.517940

	Current energy   :      -157.8401755570

	Energy change for the previous step:
		Projected    :         0.0000065813
		Actual       :        -0.0000001881

	Performing BFGS update.
	Previous computed or guess Hessian on step 1.
	Steps to be used in Hessian update: 7 6
	Adding user-defined constraint: Fragment 1; Coordinate 49:
		Value =    -1.737614; Fixed value    =    -1.745330
		Force =    -0.005208; Force constant =     0.675000
	Removing off-diagonal coupling between coordinate 49 and others.
	Taking RFO optimization step.
	Going to follow RFO solution 1.
	Rejecting RFO root 1 because normalization gives large value.
	Using RFO vector 2.

	Determining step-restricting scale parameter for RS-RFO.
	Maximum step size allowed    0.10000

	 Iter      |step|        alpha        rfo_root  
	------------------------------------------------
	    0   396.54184       1.00000           2
	    1   198.29488       1.99974           2
	    2    99.17140       3.99842           2
	    3    49.60967       7.99265           2
	    4    24.82881      15.96851           2
	    5    12.43842      31.87003           2
	    6     6.24327      63.47320           2
	    7     3.14581     125.88793           2
	    8     1.59730     247.61244           2
	    9     0.82349     479.11872           2
	   10     0.43746     897.94388           2
	   11     0.24619    1584.15860           2
	   12     0.15392    2509.53682           2
	   13     0.11373    3366.34845           2
	   14     0.10144    3759.17207           2
	   15     0.10002    3810.42753           2
	   16     0.10000    3811.13688           2
	------------------------------------------------
	Norm of target step-size    0.10000
	Projected energy change by RFO approximation:         0.0000503807

	Back-transformation to cartesian coordinates...
	Successfully converged to displaced geometry.

	--- Internal Coordinate Step in ANG or DEG, aJ/ANG or AJ/DEG ---
	 ---------------------------------------------------------------------------
	   Coordinate                Previous        Force       Change         New 
	   ----------                --------       ------       ------       ------
	    1 R(1,4)          =      1.094567    -0.000015    -0.000588     1.093979
	    2 R(2,4)          =      1.093767    -0.000033    -0.000567     1.093200
	    3 R(3,4)          =      1.093569     0.000019    -0.000951     1.092617
	    4 R(4,7)          =      1.526003     0.000050     0.001784     1.527787
	    5 R(5,7)          =      1.095715     0.000055    -0.000371     1.095344
	    6 R(6,7)          =      1.096076     0.000103    -0.001333     1.094743
	    7 R(7,10)         =      1.537429    -0.000312     0.003727     1.541156
	    8 R(8,10)         =      1.096076     0.000103    -0.001319     1.094757
	    9 R(9,10)         =      1.095715     0.000057    -0.000392     1.095323
	   10 R(10,14)        =      1.526003     0.000051     0.001722     1.527725
	   11 R(11,14)        =      1.093767    -0.000031    -0.000616     1.093151
	   12 R(12,14)        =      1.094567    -0.000015    -0.000557     1.094010
	   13 R(13,14)        =      1.093568     0.000019    -0.000907     1.092662
	   14 B(1,4,2)        =    107.755032     0.000000     0.088618   107.843650
	   15 B(1,4,3)        =    107.737314    -0.000000     0.141820   107.879134
	   16 B(1,4,7)        =    111.086795    -0.000001    -0.034405   111.052390
	   17 B(2,4,3)        =    107.954488    -0.000000     0.099908   108.054396
	   18 B(2,4,7)        =    111.623517    -0.000000     0.076207   111.699724
	   19 B(3,4,7)        =    110.527527     0.000001    -0.355986   110.171541
	   20 B(4,7,5)        =    108.446284    -0.000003     0.485470   108.931755
	   21 B(4,7,6)        =    109.953067     0.000005    -0.812418   109.140649
	   22 B(4,7,10)       =    112.716118    -0.000002    -0.097146   112.618972
	   23 B(5,7,6)        =    106.045812    -0.000000     0.293517   106.339329
	   24 B(5,7,10)       =    109.890198     0.000000    -0.742019   109.148179
	   25 B(6,7,10)       =    109.566609     0.000000     0.889474   110.456083
	   26 B(7,10,8)       =    109.566607     0.000000     0.892951   110.459558
	   27 B(7,10,9)       =    109.890249     0.000000    -0.735349   109.154900
	   28 B(7,10,14)      =    112.716142    -0.000002    -0.098818   112.617324
	   29 B(8,10,9)       =    106.045830    -0.000000     0.289350   106.335180
	   30 B(8,10,14)      =    109.953053     0.000005    -0.813711   109.139341
	   31 B(9,10,14)      =    108.446207    -0.000003     0.482218   108.928425
	   32 B(10,14,11)     =    111.623475    -0.000000     0.093384   111.716858
	   33 B(10,14,12)     =    111.086757    -0.000001    -0.039013   111.047744
	   34 B(10,14,13)     =    110.527514     0.000001    -0.347796   110.179718
	   35 B(11,14,12)     =    107.755060     0.000000     0.082816   107.837876
	   36 B(11,14,13)     =    107.954498    -0.000000     0.093344   108.047843
	   37 B(12,14,13)     =    107.737373    -0.000000     0.132201   107.869575
	   38 D(1,4,7,5)      =    179.058254    -0.000000    -1.439672   177.618582
	   39 D(1,4,7,6)      =    -65.405737    -0.000000    -1.262673   -66.668410
	   40 D(1,4,7,10)     =     57.157867     0.000000    -0.775963    56.381904
	   41 D(2,4,7,5)      =    -60.648217    -0.000000    -1.298756   -61.946972
	   42 D(2,4,7,6)      =     54.887792    -0.000000    -1.121757    53.766036
	   43 D(2,4,7,10)     =    177.451397     0.000000    -0.635047   176.816350
	   44 D(3,4,7,5)      =     59.517739    -0.000000    -1.362548    58.155191
	   45 D(3,4,7,6)      =    175.053748    -0.000000    -1.185549   173.868199
	   46 D(3,4,7,10)     =    -62.382647     0.000000    -0.698840   -63.081487
	   47 D(4,7,10,8)     =     23.222139    -0.000001    -0.794977    22.427162
	   48 D(4,7,10,9)     =    139.361115    -0.000001    -0.358383   139.002732
	   49 D(4,7,10,14)    =    -99.557943    -0.000002    -0.326718   -99.884661
	   50 D(5,7,10,8)     =    -97.858849     0.000000    -0.827218   -98.686067
	   51 D(5,7,10,9)     =     18.280128     0.000000    -0.390624    17.889504
	   52 D(5,7,10,14)    =    139.361069    -0.000001    -0.358959   139.002110
	   53 D(6,7,10,8)     =    146.002224     0.000000    -1.262921   144.739303
	   54 D(6,7,10,9)     =    -97.858799     0.000000    -0.826328   -98.685127
	   55 D(6,7,10,14)    =     23.222142    -0.000001    -0.794662    22.427480
	   56 D(7,10,14,11)   =    177.451595     0.000000    -0.640057   176.811539
	   57 D(7,10,14,12)   =     57.158084     0.000000    -0.782099    56.375985
	   58 D(7,10,14,13)   =    -62.382472     0.000000    -0.695346   -63.077819
	   59 D(8,10,14,11)   =     54.887986    -0.000000    -1.129143    53.758844
	   60 D(8,10,14,12)   =    -65.405525    -0.000000    -1.271185   -66.676710
	   61 D(8,10,14,13)   =    175.053919    -0.000000    -1.184433   173.869486
	   62 D(9,10,14,11)   =    -60.647993    -0.000000    -1.298678   -61.946671
	   63 D(9,10,14,12)   =    179.058496    -0.000000    -1.440720   177.617775
	   64 D(9,10,14,13)   =     59.517940    -0.000000    -1.353968    58.163971
	 ---------------------------------------------------------------------------
	 Forces used to impose fixed constraints are not included.
	  Forces zeroed: 49 

  ==> Convergence Check <==

  Measures of convergence in internal coordinates in au.
  Criteria marked as inactive (o), active & met (*), and active & unmet ( ).
  ---------------------------------------------------------------------------------------------
   Step     Total Energy     Delta E     MAX Force     RMS Force      MAX Disp      RMS Disp   
  ---------------------------------------------------------------------------------------------
    Convergence Criteria    1.00e-06 *    3.00e-04 *             o    1.20e-03 *             o
  ---------------------------------------------------------------------------------------------
      8    -157.84017556   -1.88e-07 *    6.57e-05 *    2.39e-05 o    2.51e-02      1.25e-02 o  ~
  ---------------------------------------------------------------------------------------------


  **** Optimization is complete! (in 8 steps) ****

  ==> Optimization Summary <==

  Measures of convergence in internal coordinates in au.
  --------------------------------------------------------------------------------------------------------------- ~
   Step         Total Energy             Delta E       MAX Force       RMS Force        MAX Disp        RMS Disp  ~
  --------------------------------------------------------------------------------------------------------------- ~
      1    -157.834177418756   -157.834177418756      0.01739781      0.00721689      0.02753678      0.01250609  ~
      2    -157.838246987523     -0.004069568767      0.00701669      0.00316537      0.02683049      0.01251167  ~
      3    -157.839720398404     -0.001473410881      0.00189822      0.00094773      0.03992190      0.01251645  ~
      4    -157.840103553685     -0.000383155281      0.00123992      0.00027596      0.02813075      0.01249902  ~
      5    -157.840173623826     -0.000070070141      0.00016957      0.00006004      0.01672892      0.00820329  ~
      6    -157.840184030454     -0.000010406628      0.00027893      0.00006613      0.00575950      0.00288370  ~
      7    -157.840175368830      0.000008661624      0.00011884      0.00002998      0.00381209      0.00194612  ~
      8    -157.840175556951     -0.000000188120      0.00012850      0.00002883      0.02514532      0.01249754  ~
  --------------------------------------------------------------------------------------------------------------- ~

	Writing optimization data to binary file.
	Final energy is   -157.8401755569505
	Final (previous) structure:
	Cartesian Geometry (in Angstrom)
	    H    -2.0081503451   0.2047768373  -0.0106505221
	    H    -1.8562801648   1.8556977276  -0.6238125237
	    H    -1.5328048119   0.4816669944  -1.6901381482
	    C    -1.4204860247   0.8534656439  -0.6678650079
	    H     0.5988324762   1.5078301726  -0.9534719058
	    H     0.1607520216   1.3166219912   0.7309924635
	    C     0.0499280500   0.8611998396  -0.2598112588
	    H     0.0970340903  -1.2036203512  -0.9140929279
	    H     1.6845193972  -0.5069173847  -0.6683481544
	    C     0.6714646539  -0.5449750803  -0.2525801436
	    H     1.1493053078  -2.1656019765   1.1259646772
	    H    -0.2443108642  -1.1921525784   1.6105282641
	    H     1.3899425008  -0.5442886762   1.7916096163
	    C     0.7462226117  -1.1490310614   1.1467814314
	Saving final (previous) structure.
			--------------------------
			 OPTKING Finished Execution 
			--------------------------

    Final optimized geometry and variables:
    Molecular point group: c1
    Full point group: C1

    Geometry (in Angstrom), charge = 0, multiplicity = 1:

    H           -2.008150345087     0.204776837319    -0.010650522068
    H           -1.856280164820     1.855697727555    -0.623812523701
    H           -1.532804811862     0.481666994407    -1.690138148243
    C           -1.420486024746     0.853465643850    -0.667865007916
    H            0.598832476174     1.507830172554    -0.953471905822
    H            0.160752021626     1.316621991187     0.730992463507
    C            0.049928050024     0.861199839627    -0.259811258827
    H            0.097034090313    -1.203620351230    -0.914092927921
    H            1.684519397161    -0.506917384731    -0.668348154413
    C            0.671464653899    -0.544975080273    -0.252580143599
    H            1.149305307794    -2.165601976542     1.125964677194
    H           -0.244310864171    -1.192152578408     1.610528264123
    H            1.389942500830    -0.544288676226     1.791609616326
    C            0.746222611664    -1.149031061356     1.146781431440

	Cleaning optimization helper files.

*** Psi4 exiting successfully. Buy a developer a beer!
