    -----------------------------------------------------------------------
          Psi4: An Open-Source Ab Initio Electronic Structure Package
                              Psi4 1.0.0 Driver

                          Git: Rev {master} 6a9a71b 

    J. M. Turney, A. C. Simmonett, R. M. Parrish, E. G. Hohenstein,
    F. A. Evangelista, J. T. Fermann, B. J. Mintz, L. A. Burns, J. J. Wilke,
    M. L. Abrams, N. J. Russ, M. L. Leininger, C. L. Janssen, E. T. Seidl,
    W. D. Allen, H. F. Schaefer, R. A. King, E. F. Valeev, C. D. Sherrill,
    and T. D. Crawford, WIREs Comput. Mol. Sci. 2, 556-565 (2012)
    (doi: 10.1002/wcms.93)

                         Additional Contributions by
    A. E. DePrince, U. Bozkaya, A. Yu. Sokolov, D. G. A. Smith, R. Di Remigio,
    R. M. Richard, J. F. Gonthier, H. R. McAlexander, M. Saitow, and
    B. P. Pritchard
    -----------------------------------------------------------------------


    Psi4 started on: Thu Feb 16 16:40:21 2017

    Process ID:   2392
    PSI4DATADIR: /Users/sternc1/anaconda/share/psi4
    Memory level set to 256.000 MB

  ==> Input File <==

--------------------------------------------------------------------------

memory 1000 mb

molecule butane {
  symmetry C1
  0 1 
  H      1.604   0.760   -8.260
  H      1.745   2.388   -8.880
  H      2.043   1.024   -9.930
  C      2.142   1.395   -8.932
  H      4.169   2.051   -9.210
  H      3.731   1.788   -7.539
  C      3.631   1.416   -8.537
  H      5.179   -0.028   -8.174
  H      3.562   -0.682   -8.078
  C      4.203   -0.012   -8.612
  H      4.691   -1.445   -10.136
  H      4.934   0.216   -10.619
  H      3.317   -0.437   -10.523
  C      4.293   -0.453   -10.084
  units Angstrom
}

dih_string = "4 7 10 14 70"
set optking fixed_dihedral = $dih_string

optimize('MP2/6-31G(d)')
--------------------------------------------------------------------------

  Memory set to 1000.000 MiB by Python script.
gradient() will perform analytic gradient computation.
    SCF Algorithm Type (re)set to DF.

*** tstart() called on lski1497
*** at Thu Feb 16 16:40:23 2017


         ---------------------------------------------------------
                                   SCF
            by Justin Turney, Rob Parrish, and Andy Simmonett
                              RHF Reference
                        1 Threads,   1000 MiB Core
         ---------------------------------------------------------

  ==> Geometry <==

    Molecular point group: c1
    Full point group: C1

    Geometry (in Angstrom), charge = 0, multiplicity = 1:

       Center              X                  Y                   Z               Mass       
    ------------   -----------------  -----------------  -----------------  -----------------
           H         -1.951146364715     0.177491162890     0.797500974114     1.007825032070
           H         -1.810146364715     1.805491162890     0.177500974114     1.007825032070
           H         -1.512146364715     0.441491162890    -0.872499025886     1.007825032070
           C         -1.413146364715     0.812491162890     0.125500974114    12.000000000000
           H          0.613853635285     1.468491162890    -0.152499025886     1.007825032070
           H          0.175853635285     1.205491162890     1.518500974114     1.007825032070
           C          0.075853635285     0.833491162890     0.520500974114    12.000000000000
           H          1.623853635285    -0.610508837110     0.883500974114     1.007825032070
           H          0.006853635285    -1.264508837110     0.979500974114     1.007825032070
           C          0.647853635285    -0.594508837110     0.445500974114    12.000000000000
           H          1.135853635285    -2.027508837110    -1.078499025886     1.007825032070
           H          1.378853635285    -0.366508837110    -1.561499025886     1.007825032070
           H         -0.238146364715    -1.019508837110    -1.465499025886     1.007825032070
           C          0.737853635285    -1.035508837110    -1.026499025886    12.000000000000

  Running in c1 symmetry.

  Rotational constants: A =      0.43630  B =      0.16667  C =      0.14255 [cm^-1]
  Rotational constants: A =  13079.90354  B =   4996.50450  C =   4273.58009 [MHz]
  Nuclear repulsion =  134.280302708106944

  Charge       = 0
  Multiplicity = 1
  Electrons    = 34
  Nalpha       = 17
  Nbeta        = 17

  ==> Algorithm <==

  SCF Algorithm Type is DF.
  DIIS enabled.
  MOM disabled.
  Fractional occupation disabled.
  Guess Type is SAD.
  Energy threshold   = 1.00e-10
  Density threshold  = 1.00e-10
  Integral threshold = 0.00e+00

  ==> Primary Basis <==

  Basis Set: 6-31G(D)
    Number of shells: 44
    Number of basis function: 80
    Number of Cartesian functions: 80
    Spherical Harmonics?: false
    Max angular momentum: 2

  ==> Pre-Iterations <==

   -------------------------------------------------------
    Irrep   Nso     Nmo     Nalpha   Nbeta   Ndocc  Nsocc
   -------------------------------------------------------
     A         80      80       0       0       0       0
   -------------------------------------------------------
    Total      80      80      17      17      17       0
   -------------------------------------------------------

  ==> Integral Setup <==

  ==> DFJK: Density-Fitted J/K Matrices <==

    J tasked:                  Yes
    K tasked:                  Yes
    wK tasked:                  No
    OpenMP threads:              1
    Integrals threads:           1
    Memory (MB):               715
    Algorithm:                Core
    Integral Cache:           NONE
    Schwarz Cutoff:          1E-12
    Fitting Condition:       1E-12

   => Auxiliary Basis Set <=

  Basis Set: 
    Number of shells: 186
    Number of basis function: 574
    Number of Cartesian functions: 574
    Spherical Harmonics?: false
    Max angular momentum: 3

  Minimum eigenvalue in the overlap matrix is 5.3285108015E-03.
  Using Symmetric Orthogonalization.
  SCF Guess: Superposition of Atomic Densities via on-the-fly atomic UHF.

  ==> Iterations <==

                           Total Energy        Delta E     RMS |[F,P]|

   @DF-RHF iter   0:  -158.99356373476832   -1.58994e+02   4.74748e-02 
   @DF-RHF iter   1:  -157.20126477239018    1.79230e+00   3.99034e-03 
   @DF-RHF iter   2:  -157.28293610985435   -8.16713e-02   1.08888e-03 DIIS
   @DF-RHF iter   3:  -157.29073921031926   -7.80310e-03   2.44042e-04 DIIS
   @DF-RHF iter   4:  -157.29109022993686   -3.51020e-04   7.81736e-05 DIIS
   @DF-RHF iter   5:  -157.29112399416255   -3.37642e-05   1.35414e-05 DIIS
   @DF-RHF iter   6:  -157.29112537346992   -1.37931e-06   2.00144e-06 DIIS
   @DF-RHF iter   7:  -157.29112539577250   -2.23026e-08   6.20739e-07 DIIS
   @DF-RHF iter   8:  -157.29112539759325   -1.82075e-09   1.26677e-07 DIIS
   @DF-RHF iter   9:  -157.29112539769841   -1.05160e-10   3.14671e-08 DIIS
   @DF-RHF iter  10:  -157.29112539770637   -7.95808e-12   5.75767e-09 DIIS
   @DF-RHF iter  11:  -157.29112539770671   -3.41061e-13   1.23855e-09 DIIS
   @DF-RHF iter  12:  -157.29112539770671    0.00000e+00   3.75706e-10 DIIS
   @DF-RHF iter  13:  -157.29112539770682   -1.13687e-13   7.76034e-11 DIIS

  ==> Post-Iterations <==

    Orbital Energies (a.u.)
    -----------------------

    Doubly Occupied:                                                      

       1A    -11.207908     2A    -11.207324     3A    -11.200293  
       4A    -11.200263     5A     -1.073519     6A     -0.975354  
       7A     -0.874822     8A     -0.784498     9A     -0.629673  
      10A     -0.628263    11A     -0.579585    12A     -0.535312  
      13A     -0.532525    14A     -0.505954    15A     -0.473037  
      16A     -0.456574    17A     -0.449801  

    Virtual:                                                              

      18A      0.235669    19A      0.280238    20A      0.284067  
      21A      0.300747    22A      0.318574    23A      0.319403  
      24A      0.345343    25A      0.354948    26A      0.357926  
      27A      0.390189    28A      0.420042    29A      0.423037  
      30A      0.450874    31A      0.714389    32A      0.717061  
      33A      0.733144    34A      0.743432    35A      0.762802  
      36A      0.832733    37A      0.868901    38A      0.929305  
      39A      0.950417    40A      0.999295    41A      1.097069  
      42A      1.116350    43A      1.176090    44A      1.176496  
      45A      1.197414    46A      1.207271    47A      1.215076  
      48A      1.238761    49A      1.246461    50A      1.267216  
      51A      1.270541    52A      1.297262    53A      1.315787  
      54A      1.555422    55A      1.710772    56A      1.711927  
      57A      1.860289    58A      1.861759    59A      1.987272  
      60A      2.057323    61A      2.183446    62A      2.253661  
      63A      2.292689    64A      2.303750    65A      2.370016  
      66A      2.466279    67A      2.477277    68A      2.633975  
      69A      2.662846    70A      2.670700    71A      2.709430  
      72A      2.771073    73A      2.807257    74A      2.914964  
      75A      2.964455    76A      3.088925    77A      4.579527  
      78A      4.695772    79A      4.832478    80A      4.946243  

    Final Occupation by Irrep:
              A 
    DOCC [    17 ]

  Energy converged.

  @DF-RHF Final Energy:  -157.29112539770682

   => Energetics <=

    Nuclear Repulsion Energy =            134.2803027081069445
    One-Electron Energy =                -476.5134490963855001
    Two-Electron Energy =                 184.9420209905717911
    DFT Exchange-Correlation Energy =       0.0000000000000000
    Empirical Dispersion Energy =           0.0000000000000000
    PCM Polarization Energy =               0.0000000000000000
    EFP Energy =                            0.0000000000000000
    Total Energy =                       -157.2911253977067645


  Saving occupied orbitals to File 180.

*** tstop() called on lski1497 at Thu Feb 16 16:40:29 2017
Module time:
	user time   =       5.03 seconds =       0.08 minutes
	system time =       0.16 seconds =       0.00 minutes
	total time  =          6 seconds =       0.10 minutes
Total time:
	user time   =       5.03 seconds =       0.08 minutes
	system time =       0.16 seconds =       0.00 minutes
	total time  =          6 seconds =       0.10 minutes


Properties will be evaluated at   0.000000,   0.000000,   0.000000 Bohr

Properties computed using the SCF density matrix

  Nuclear Dipole Moment: (a.u.)
     X:    -0.5404      Y:    -0.1782      Z:    -0.7256

  Electronic Dipole Moment: (a.u.)
     X:     0.5618      Y:     0.1849      Z:     0.7537

  Dipole Moment: (a.u.)
     X:     0.0214      Y:     0.0066      Z:     0.0281     Total:     0.0360

  Dipole Moment: (Debye)
     X:     0.0544      Y:     0.0169      Z:     0.0715     Total:     0.0914


  //>>>>>>>>>>>>>>>>>>>>>>>>>>>>>>>>>>>//
  //               DFMP2               //
  //<<<<<<<<<<<<<<<<<<<<<<<<<<<<<<<<<<<//


*** tstart() called on lski1497
*** at Thu Feb 16 16:40:29 2017


*** tstop() called on lski1497 at Thu Feb 16 16:40:30 2017
Module time:
	user time   =       0.53 seconds =       0.01 minutes
	system time =       0.00 seconds =       0.00 minutes
	total time  =          1 seconds =       0.02 minutes
Total time:
	user time   =       5.58 seconds =       0.09 minutes
	system time =       0.16 seconds =       0.00 minutes
	total time  =          7 seconds =       0.12 minutes
	 --------------------------------------------------------
	                          DF-MP2                         
	      2nd-Order Density-Fitted Moller-Plesset Theory     
	              RMP2 Wavefunction,   1 Threads             
	                                                         
	        Rob Parrish, Justin Turney, Andy Simmonett,      
	           Ed Hohenstein, and C. David Sherrill          
	 --------------------------------------------------------

   => Auxiliary Basis Set <=

  Basis Set: 
    Number of shells: 132
    Number of basis function: 364
    Number of Cartesian functions: 414
    Spherical Harmonics?: true
    Max angular momentum: 3

	 --------------------------------------------------------
	                 NBF =    80, NAUX =   364
	 --------------------------------------------------------
	   CLASS    FOCC     OCC    AOCC    AVIR     VIR    FVIR
	   PAIRS       0      17      17      63      63       0
	 --------------------------------------------------------

DGAS Warning! /src/lib/libfock/apps.cc:80 is not currently checking restricted

         ------------------------------------------------------------
                                     CPHF                           
                                  Rob Parrish                       
         ------------------------------------------------------------

  ==> Geometry <==

    Molecular point group: c1
    Full point group: C1

    Geometry (in Angstrom), charge = 0, multiplicity = 1:

       Center              X                  Y                   Z               Mass       
    ------------   -----------------  -----------------  -----------------  -----------------
           H         -1.951146364715     0.177491162890     0.797500974114     1.007825032070
           H         -1.810146364715     1.805491162890     0.177500974114     1.007825032070
           H         -1.512146364715     0.441491162890    -0.872499025886     1.007825032070
           C         -1.413146364715     0.812491162890     0.125500974114    12.000000000000
           H          0.613853635285     1.468491162890    -0.152499025886     1.007825032070
           H          0.175853635285     1.205491162890     1.518500974114     1.007825032070
           C          0.075853635285     0.833491162890     0.520500974114    12.000000000000
           H          1.623853635285    -0.610508837110     0.883500974114     1.007825032070
           H          0.006853635285    -1.264508837110     0.979500974114     1.007825032070
           C          0.647853635285    -0.594508837110     0.445500974114    12.000000000000
           H          1.135853635285    -2.027508837110    -1.078499025886     1.007825032070
           H          1.378853635285    -0.366508837110    -1.561499025886     1.007825032070
           H         -0.238146364715    -1.019508837110    -1.465499025886     1.007825032070
           C          0.737853635285    -1.035508837110    -1.026499025886    12.000000000000

  Nuclear repulsion =  134.280302708106944
  Reference energy  = -157.291125397706821

  ==> Basis Set <==

  Basis Set: 6-31G(D)
    Number of shells: 44
    Number of basis function: 80
    Number of Cartesian functions: 80
    Spherical Harmonics?: false
    Max angular momentum: 2

  ==> CGRSolver (by Rob Parrish) <==

   Number of roots    =         1
   Preconditioning    =    JACOBI
   Convergence cutoff =     1E-06
   Maximum iterations =       100

  ==> CPHFRHamiltonian (by Rob Parrish) <== 

  ==> DFJK: Density-Fitted J/K Matrices <==

    J tasked:                  Yes
    K tasked:                  Yes
    wK tasked:                  No
    OpenMP threads:              1
    Integrals threads:           1
    Memory (MB):               715
    Algorithm:                Core
    Integral Cache:           NONE
    Schwarz Cutoff:          1E-12
    Fitting Condition:       1E-12

   => Auxiliary Basis Set <=

  Basis Set: 
    Number of shells: 186
    Number of basis function: 574
    Number of Cartesian functions: 574
    Spherical Harmonics?: false
    Max angular momentum: 3

  ==> CPHF Iterations <==

  => Iterations <=

             Iter  Converged  Remaining    Residual
  CGR           1          0          1   7.474E-02
  CGR           2          0          1   8.561E-03
  CGR           3          0          1   2.332E-03
  CGR           4          0          1   4.338E-04
  CGR           5          0          1   7.882E-05
  CGR           6          0          1   1.477E-05
  CGR           7          0          1   2.092E-06
  CGR           8          1          0   4.545E-07

    CGRSolver converged.

  ==> DFCorrGrad: Density-Fitted Correlated Gradients <==

    OpenMP threads:              1
    Integrals threads:           1
    Memory (MB):               715
    Schwarz Cutoff:          0E+00
    Fitting Condition:       1E-12

   => Auxiliary Basis Set <=

  Basis Set: 
    Number of shells: 186
    Number of basis function: 510
    Number of Cartesian functions: 574
    Spherical Harmonics?: true
    Max angular momentum: 3

	-----------------------------------------------------------
	 ==================> DF-MP2 Energies <==================== 
	-----------------------------------------------------------
	 Reference Energy          =    -157.2911253977068213 [Eh]
	 Singles Energy            =      -0.0000000000000000 [Eh]
	 Same-Spin Energy          =      -0.1248590709160631 [Eh]
	 Opposite-Spin Energy      =      -0.4206606886558687 [Eh]
	 Correlation Energy        =      -0.5455197595719318 [Eh]
	 Total Energy              =    -157.8366451572787525 [Eh]
	-----------------------------------------------------------
	 ================> DF-SCS-MP2 Energies <================== 
	-----------------------------------------------------------
	 SCS Same-Spin Scale       =       0.3333333333333333 [-]
	 SCS Opposite-Spin Scale   =       1.2000000000000000 [-]
	 SCS Same-Spin Energy      =      -0.0416196903053544 [Eh]
	 SCS Opposite-Spin Energy  =      -0.5047928263870424 [Eh]
	 SCS Correlation Energy    =      -0.5464125166923968 [Eh]
	 SCS Total Energy          =    -157.8375379143992063 [Eh]
	-----------------------------------------------------------


  -Total Gradient:
     Atom            X                  Y                   Z
    ------   -----------------  -----------------  -----------------
       1        0.010614757941     0.009288501077    -0.009353987501
       2        0.009919019517    -0.013543503761     0.000544709649
       3        0.006336785859     0.003339427497     0.013822547753
       4       -0.027219497550    -0.007407084669    -0.007187149897
       5       -0.010537023625    -0.011788007854     0.008168907328
       6       -0.002412403636    -0.009211529203    -0.015597131547
       7        0.020351887992     0.030372565352     0.004051422702
       8       -0.015688947931     0.003178355064    -0.008662330852
       9        0.008295648449     0.011074260211    -0.011555343973
      10        0.004176632348    -0.022487190116     0.028527544390
      11       -0.005735792935     0.015391429137     0.005161661798
      12       -0.009769887054    -0.009002548153     0.010296351859
      13        0.010955853325     0.002685628883     0.009688316020
      14        0.000712967301    -0.001890303467    -0.027905517727


			-----------------------------------------
			 OPTKING 2.0: for geometry optimizations 
			  - R.A. King,  Bethel University        
			-----------------------------------------

	Previous internal coordinate definitions found.
	---Fragment 1 Geometry and Gradient---
	 H          -3.6871322745        0.3354096889        1.5070584318
	 H          -3.4206808898        3.4118838332        0.3354282294
	 H          -2.8575425022        0.8342973880       -1.6487842101
	 C          -2.6704596150        1.5353857833        0.2371624705
	 H           1.1600152564        2.7750461264       -0.2881813945
	 H           0.3323152102        2.2780481535        2.8695509736
	 C           0.1433425969        1.5750700320        0.9836042930
	 H           3.0686386506       -1.1536945038        1.6695748792
	 H           0.0129514937       -2.3895753948        1.8509885880
	 C           1.2242659449       -1.1234588857        0.8418748330
	 H           2.1464522977       -3.8314364341       -2.0380677935
	 H           2.6056557480       -0.6926013274       -2.9508055157
	 H          -0.4500314089       -1.9265924922       -2.7693918069
	 C           1.3943412968       -1.9568281103       -1.9398020346
	             0.0106147579        0.0092885011       -0.0093539875
	             0.0099190195       -0.0135435038        0.0005447096
	             0.0063367859        0.0033394275        0.0138225478
	            -0.0272194975       -0.0074070847       -0.0071871499
	            -0.0105370236       -0.0117880079        0.0081689073
	            -0.0024124036       -0.0092115292       -0.0155971315
	             0.0203518880        0.0303725654        0.0040514227
	            -0.0156889479        0.0031783551       -0.0086623309
	             0.0082956484        0.0110742602       -0.0115553440
	             0.0041766323       -0.0224871901        0.0285275444
	            -0.0057357929        0.0153914291        0.0051616618
	            -0.0097698871       -0.0090025482        0.0102963519
	             0.0109558533        0.0026856289        0.0096883160
	             0.0007129673       -0.0018903035       -0.0279055177

	Previous optimization step data not found.  Starting new optimization.

	---Fragment 1 Intrafragment Coordinates---
	 - Coordinate -           - BOHR/RAD -       - ANG/DEG -
	 R(1,4)           =         2.021436	       1.069698
	 R(2,4)           =         2.023298	       1.070683
	 R(3,4)           =         2.020723	       1.069320
	 R(4,7)           =         2.911397	       1.540645
	 R(5,7)           =         2.022623	       1.070326
	 R(6,7)           =         2.021555	       1.069761
	 R(7,10)          =         2.910419	       1.540128
	 R(8,10)          =         2.021809	       1.069895
	 R(9,10)          =         2.022040	       1.070017
	 R(10,14)         =         2.908807	       1.539274
	 R(11,14)         =         2.022247	       1.070127
	 R(12,14)         =         2.021801	       1.069891
	 R(13,14)         =         2.022584	       1.070305
	 B(1,4,2)         =         1.910870	     109.484805
	 B(1,4,3)         =         1.911121	     109.499161
	 B(1,4,7)         =         1.910399	     109.457783
	 B(2,4,3)         =         1.910042	     109.437340
	 B(2,4,7)         =         1.910564	     109.467262
	 B(3,4,7)         =         1.910803	     109.480971
	 B(4,7,5)         =         1.909937	     109.431343
	 B(4,7,6)         =         1.911630	     109.528316
	 B(4,7,10)        =         1.911154	     109.501062
	 B(5,7,6)         =         1.910605	     109.469614
	 B(5,7,10)        =         1.910047	     109.437654
	 B(6,7,10)        =         1.910425	     109.459295
	 B(7,10,8)        =         1.909997	     109.434770
	 B(7,10,9)        =         1.911108	     109.498399
	 B(7,10,14)       =         1.911260	     109.507159
	 B(8,10,9)        =         1.910079	     109.439471
	 B(8,10,14)       =         1.911204	     109.503915
	 B(9,10,14)       =         1.910151	     109.443600
	 B(10,14,11)      =         1.911125	     109.499373
	 B(10,14,12)      =         1.911425	     109.516582
	 B(10,14,13)      =         1.912016	     109.550461
	 B(11,14,12)      =         1.909772	     109.421874
	 B(11,14,13)      =         1.910360	     109.455543
	 B(12,14,13)      =         1.909099	     109.383344
	 D(1,4,7,5)       =         3.140997	     179.965873
	 D(1,4,7,6)       =        -1.047644	     -60.025575
	 D(1,4,7,10)      =         1.047427	      60.013132
	 D(2,4,7,5)       =        -1.047689	     -60.028143
	 D(2,4,7,6)       =         1.046856	      59.980409
	 D(2,4,7,10)      =        -3.141259	    -179.980883
	 D(3,4,7,5)       =         1.046044	      59.933911
	 D(3,4,7,6)       =         3.140588	     179.942463
	 D(3,4,7,10)      =        -1.047526	     -60.018830
	 D(4,7,10,8)      =        -2.966552	    -169.970886
	 D(4,7,10,9)      =        -0.872934	     -50.015451
	 D(4,7,10,14)     =         1.221545	      69.989396
	 D(5,7,10,8)      =         1.223131	      70.080238
	 D(5,7,10,9)      =        -2.966437	    -169.964327
	 D(5,7,10,14)     =        -0.871957	     -49.959480
	 D(6,7,10,8)      =        -0.870744	     -49.889960
	 D(6,7,10,9)      =         1.222873	      70.065474
	 D(6,7,10,14)     =        -2.965832	    -169.929678
	 D(7,10,14,11)    =         3.141007	     179.966437
	 D(7,10,14,12)    =         1.046881	      59.981837
	 D(7,10,14,13)    =        -1.046969	     -59.986890
	 D(8,10,14,11)    =         1.046657	      59.969025
	 D(8,10,14,12)    =        -1.047469	     -60.015575
	 D(8,10,14,13)    =        -3.141319	    -179.984302
	 D(9,10,14,11)    =        -1.047114	     -59.995188
	 D(9,10,14,12)    =        -3.141240	    -179.979788
	 D(9,10,14,13)    =         1.048096	      60.051485

	Current energy   :      -157.8366451573

	Generating empirical Hessian (Schlegel '84) for each fragment.
	Adding user-defined constraint: Fragment 1; Coordinate 49:
		Value =     1.221545; Fixed value    =     1.221730
		Force =     0.000092; Force constant =     0.500000
	Removing off-diagonal coupling between coordinate 49 and others.
	Taking RFO optimization step.
	Going to follow RFO solution 1.
	Using RFO vector 1.

	Determining step-restricting scale parameter for RS-RFO.
	Maximum step size allowed    0.10000

	 Iter      |step|        alpha        rfo_root  
	------------------------------------------------
	    0     0.26101       1.00000           1
	    1     0.19414       5.22111           1
	    2     0.14449      16.64348           1
	    3     0.11533      34.38631           1
	    4     0.10280      48.14990           1
	    5     0.10012      51.88019           1
	    6     0.10000      52.05921           1
	------------------------------------------------
	Norm of target step-size    0.10000
	Projected energy change by RFO approximation:        -0.0056553738

	Back-transformation to cartesian coordinates...
	Could not converge backtransformation.
	Using first guess instead.

	--- Internal Coordinate Step in ANG or DEG, aJ/ANG or AJ/DEG ---
	 ---------------------------------------------------------------------------
	   Coordinate                Previous        Force       Change         New 
	   ----------                --------       ------       ------       ------
	    1 R(1,4)          =      1.069698     0.137823     0.012921     1.082618
	    2 R(2,4)          =      1.070683     0.133569     0.012679     1.083362
	    3 R(3,4)          =      1.069320     0.120664     0.011847     1.081168
	    4 R(4,7)          =      1.540645    -0.008306    -0.000486     1.540159
	    5 R(5,7)          =      1.070326     0.143572     0.013457     1.083783
	    6 R(6,7)          =      1.069761     0.148129     0.013913     1.083674
	    7 R(7,10)         =      1.540128     0.015788     0.001881     1.542009
	    8 R(8,10)         =      1.069895     0.147521     0.013860     1.083755
	    9 R(9,10)         =      1.070017     0.145583     0.013636     1.083653
	   10 R(10,14)        =      1.539274    -0.002934     0.000093     1.539367
	   11 R(11,14)        =      1.070127     0.137190     0.013004     1.083131
	   12 R(12,14)        =      1.069891     0.137020     0.012848     1.082739
	   13 R(13,14)        =      1.070305     0.114718     0.011308     1.081613
	   14 B(1,4,2)        =    109.484805    -0.000268    -0.423603   109.061201
	   15 B(1,4,3)        =    109.499161    -0.000265    -0.429496   109.069665
	   16 B(1,4,7)        =    109.457783     0.000127     0.184214   109.641997
	   17 B(2,4,3)        =    109.437340    -0.000396    -0.618228   108.819112
	   18 B(2,4,7)        =    109.467262     0.000344     0.551116   110.018378
	   19 B(3,4,7)        =    109.480971     0.000457     0.723402   110.204373
	   20 B(4,7,5)        =    109.431343    -0.000245    -0.326569   109.104773
	   21 B(4,7,6)        =    109.528316    -0.000412    -0.562220   108.966096
	   22 B(4,7,10)       =    109.501062     0.001237     1.794176   111.295238
	   23 B(5,7,6)        =    109.469614     0.000062    -0.076390   109.393224
	   24 B(5,7,10)       =    109.437654    -0.000362    -0.491894   108.945760
	   25 B(6,7,10)       =    109.459295    -0.000279    -0.346607   109.112688
	   26 B(7,10,8)       =    109.434770    -0.000280    -0.347427   109.087343
	   27 B(7,10,9)       =    109.498399    -0.000369    -0.504310   108.994089
	   28 B(7,10,14)      =    109.507159     0.001241     1.799925   111.307084
	   29 B(8,10,9)       =    109.439471     0.000064    -0.073349   109.366122
	   30 B(8,10,14)      =    109.503915    -0.000411    -0.558844   108.945071
	   31 B(9,10,14)      =    109.443600    -0.000246    -0.326374   109.117225
	   32 B(10,14,11)     =    109.499373     0.000344     0.549905   110.049278
	   33 B(10,14,12)     =    109.516582     0.000116     0.167020   109.683602
	   34 B(10,14,13)     =    109.550461     0.000448     0.709692   110.260154
	   35 B(11,14,12)     =    109.421874    -0.000260    -0.411196   109.010678
	   36 B(11,14,13)     =    109.455543    -0.000397    -0.622180   108.833363
	   37 B(12,14,13)     =    109.383344    -0.000252    -0.408295   108.975049
	   38 D(1,4,7,5)      =    179.965873     0.000039     0.306010   180.271883
	   39 D(1,4,7,6)      =    -60.025575    -0.000036    -0.321602   -60.347178
	   40 D(1,4,7,10)     =     60.013132     0.000002     0.007696    60.020829
	   41 D(2,4,7,5)      =    -60.028143     0.000030     0.239612   -59.788531
	   42 D(2,4,7,6)      =     59.980409    -0.000045    -0.388001    59.592409
	   43 D(2,4,7,10)     =   -179.980883    -0.000007    -0.058702  -180.039585
	   44 D(3,4,7,5)      =     59.933911     0.000031     0.271960    60.205871
	   45 D(3,4,7,6)      =    179.942463    -0.000044    -0.355652   179.586810
	   46 D(3,4,7,10)     =    -60.018830    -0.000006    -0.026354   -60.045183
	   47 D(4,7,10,8)     =   -169.970886     0.000043     0.304923  -169.665962
	   48 D(4,7,10,9)     =    -50.015451    -0.000030    -0.296137   -50.311589
	   49 D(4,7,10,14)    =     69.989396     0.000024     0.098390    70.087786
	   50 D(5,7,10,8)     =     70.080238    -0.000010    -0.091095    69.989144
	   51 D(5,7,10,9)     =   -169.964327    -0.000084    -0.692155  -170.656483
	   52 D(5,7,10,14)    =    -49.959480    -0.000030    -0.297628   -50.257108
	   53 D(6,7,10,8)     =    -49.889960     0.000062     0.505518   -49.384442
	   54 D(6,7,10,9)     =     70.065474    -0.000011    -0.095543    69.969932
	   55 D(6,7,10,14)    =   -169.929678     0.000043     0.298985  -169.630694
	   56 D(7,10,14,11)   =    179.966437    -0.000006    -0.048891   179.917545
	   57 D(7,10,14,12)   =     59.981837     0.000003     0.013123    59.994960
	   58 D(7,10,14,13)   =    -59.986890    -0.000006    -0.028443   -60.015333
	   59 D(8,10,14,11)   =     59.969025    -0.000044    -0.381681    59.587344
	   60 D(8,10,14,12)   =    -60.015575    -0.000036    -0.319667   -60.335242
	   61 D(8,10,14,13)   =   -179.984302    -0.000044    -0.361233  -180.345535
	   62 D(9,10,14,11)   =    -59.995188     0.000030     0.239505   -59.755683
	   63 D(9,10,14,12)   =   -179.979788     0.000039     0.301519  -179.678269
	   64 D(9,10,14,13)   =     60.051485     0.000030     0.259953    60.311439
	 ---------------------------------------------------------------------------
	 Forces used to impose fixed constraints are not included.
	  Forces zeroed: 49 

  ==> Convergence Check <==

  Measures of convergence in internal coordinates in au.
  Criteria marked as inactive (o), active & met (*), and active & unmet ( ).
  --------------------------------------------------------------------------------------------- ~
   Step     Total Energy     Delta E     MAX Force     RMS Force      MAX Disp      RMS Disp    ~
  --------------------------------------------------------------------------------------------- ~
    Convergence Criteria    1.00e-06 *    3.00e-04 *             o    1.20e-03 *             o  ~
  --------------------------------------------------------------------------------------------- ~
      1    -157.83664516   -1.58e+02      1.80e-02      7.69e-03 o    3.14e-02      1.26e-02 o  ~
  ---------------------------------------------------------------------------------------------

	Writing optimization data to binary file.
	Structure for next step:
	Cartesian Geometry (in Angstrom)
	    H    -1.9833745770   0.1966850927   0.8116836257
	    H    -1.8237944373   1.8472658907   0.2100875907
	    H    -1.5594390172   0.4861497001  -0.8742332580
	    C    -1.4306092318   0.8402680791   0.1391406243
	    H     0.6054108872   1.4789531636  -0.1541593391
	    H     0.1680664778   1.1934929000   1.5358524991
	    C     0.0614144307   0.8287180172   0.5210060601
	    H     1.6393195464  -0.5956791532   0.8768056851
	    H     0.0099617672  -1.2763539805   0.9747051830
	    C     0.6515581184  -0.5930410247   0.4308840796
	    H     1.1796070742  -2.0597710712  -1.0710843064
	    H     1.4063013672  -0.3874040433  -1.5822841561
	    H    -0.2145880569  -1.0722854823  -1.4959725755
	    C     0.7621165450  -1.0611218076  -1.0314180748
			--------------------------
			 OPTKING Finished Execution 
			--------------------------

    Structure for next step:
    Molecular point group: c1
    Full point group: C1

    Geometry (in Angstrom), charge = 0, multiplicity = 1:

    H           -1.982629880401     0.196901117299     0.812703992058
    H           -1.823049740660     1.847481915268     0.211107957092
    H           -1.558694320586     0.486365724715    -0.873212891616
    C           -1.429864535147     0.840484103675     0.140160990643
    H            0.606155583798     1.479169188170    -0.153138972741
    H            0.168811174456     1.193708924596     1.536872865518
    C            0.062159127371     0.828934041846     0.522026426475
    H            1.640064243007    -0.595463128563     0.877826051498
    H            0.010706463842    -1.276137955931     0.975725549400
    C            0.652302815052    -0.592825000046     0.431904445939
    H            1.180351770832    -2.059555046625    -1.070063939985
    H            1.407046063815    -0.387188018723    -1.581263789753
    H           -0.213843360319    -1.072069457649    -1.494952209129
    C            0.762861241641    -1.060905783004    -1.030397708400

gradient() will perform analytic gradient computation.
    SCF Algorithm Type (re)set to DF.

*** tstart() called on lski1497
*** at Thu Feb 16 16:40:50 2017


         ---------------------------------------------------------
                                   SCF
            by Justin Turney, Rob Parrish, and Andy Simmonett
                              RHF Reference
                        1 Threads,   1000 MiB Core
         ---------------------------------------------------------

  ==> Geometry <==

    Molecular point group: c1
    Full point group: C1

    Geometry (in Angstrom), charge = 0, multiplicity = 1:

       Center              X                  Y                   Z               Mass       
    ------------   -----------------  -----------------  -----------------  -----------------
           H         -1.982629880401     0.196901117299     0.812703992058     1.007825032070
           H         -1.823049740660     1.847481915268     0.211107957092     1.007825032070
           H         -1.558694320586     0.486365724715    -0.873212891616     1.007825032070
           C         -1.429864535147     0.840484103675     0.140160990643    12.000000000000
           H          0.606155583798     1.479169188170    -0.153138972741     1.007825032070
           H          0.168811174456     1.193708924596     1.536872865518     1.007825032070
           C          0.062159127371     0.828934041846     0.522026426475    12.000000000000
           H          1.640064243007    -0.595463128563     0.877826051498     1.007825032070
           H          0.010706463842    -1.276137955931     0.975725549400     1.007825032070
           C          0.652302815052    -0.592825000046     0.431904445939    12.000000000000
           H          1.180351770832    -2.059555046625    -1.070063939985     1.007825032070
           H          1.407046063815    -0.387188018723    -1.581263789753     1.007825032070
           H         -0.213843360319    -1.072069457649    -1.494952209129     1.007825032070
           C          0.762861241641    -1.060905783004    -1.030397708400    12.000000000000

  Running in c1 symmetry.

  Rotational constants: A =      0.44142  B =      0.16079  C =      0.13843 [cm^-1]
  Rotational constants: A =  13233.55736  B =   4820.39968  C =   4150.08189 [MHz]
  Nuclear repulsion =  133.104135940115583

  Charge       = 0
  Multiplicity = 1
  Electrons    = 34
  Nalpha       = 17
  Nbeta        = 17

  ==> Algorithm <==

  SCF Algorithm Type is DF.
  DIIS enabled.
  MOM disabled.
  Fractional occupation disabled.
  Guess Type is READ.
  Energy threshold   = 1.00e-10
  Density threshold  = 1.00e-10
  Integral threshold = 0.00e+00

  ==> Primary Basis <==

  Basis Set: 6-31G(D)
    Number of shells: 44
    Number of basis function: 80
    Number of Cartesian functions: 80
    Spherical Harmonics?: false
    Max angular momentum: 2

  ==> Pre-Iterations <==

   -------------------------------------------------------
    Irrep   Nso     Nmo     Nalpha   Nbeta   Ndocc  Nsocc
   -------------------------------------------------------
     A         80      80       0       0       0       0
   -------------------------------------------------------
    Total      80      80      17      17      17       0
   -------------------------------------------------------

  ==> Integral Setup <==

  ==> DFJK: Density-Fitted J/K Matrices <==

    J tasked:                  Yes
    K tasked:                  Yes
    wK tasked:                  No
    OpenMP threads:              1
    Integrals threads:           1
    Memory (MB):               715
    Algorithm:                Core
    Integral Cache:           NONE
    Schwarz Cutoff:          1E-12
    Fitting Condition:       1E-12

   => Auxiliary Basis Set <=

  Basis Set: 
    Number of shells: 186
    Number of basis function: 574
    Number of Cartesian functions: 574
    Spherical Harmonics?: false
    Max angular momentum: 3

  Minimum eigenvalue in the overlap matrix is 5.4448847057E-03.
  Using Symmetric Orthogonalization.
  SCF Guess was Projection but file not found.
  Switching over to SAD guess.

  SCF Guess: Superposition of Atomic Densities via on-the-fly atomic UHF.

  ==> Iterations <==

                           Total Energy        Delta E     RMS |[F,P]|

   @DF-RHF iter   0:  -158.88470840978883   -1.58885e+02   4.65457e-02 
   @DF-RHF iter   1:  -157.20407758894717    1.68063e+00   3.96752e-03 
   @DF-RHF iter   2:  -157.28631511338463   -8.22375e-02   1.09999e-03 DIIS
   @DF-RHF iter   3:  -157.29432865428615   -8.01354e-03   2.55584e-04 DIIS
   @DF-RHF iter   4:  -157.29470799555244   -3.79341e-04   8.00170e-05 DIIS
   @DF-RHF iter   5:  -157.29474480771378   -3.68122e-05   1.33829e-05 DIIS
   @DF-RHF iter   6:  -157.29474619720847   -1.38949e-06   1.67954e-06 DIIS
   @DF-RHF iter   7:  -157.29474621603268   -1.88242e-08   4.41873e-07 DIIS
   @DF-RHF iter   8:  -157.29474621696048   -9.27798e-10   1.17490e-07 DIIS
   @DF-RHF iter   9:  -157.29474621704409   -8.36167e-11   2.79186e-08 DIIS
   @DF-RHF iter  10:  -157.29474621704989   -5.79803e-12   5.47949e-09 DIIS
   @DF-RHF iter  11:  -157.29474621705046   -5.68434e-13   1.25730e-09 DIIS
   @DF-RHF iter  12:  -157.29474621705006    3.97904e-13   3.44888e-10 DIIS
   @DF-RHF iter  13:  -157.29474621705035   -2.84217e-13   6.76526e-11 DIIS

  ==> Post-Iterations <==

    Orbital Energies (a.u.)
    -----------------------

    Doubly Occupied:                                                      

       1A    -11.212887     2A    -11.212316     3A    -11.205771  
       4A    -11.205755     5A     -1.069473     6A     -0.973951  
       7A     -0.871443     8A     -0.779120     9A     -0.625293  
      10A     -0.624030    11A     -0.576503    12A     -0.534127  
      13A     -0.529275    14A     -0.503865    15A     -0.468319  
      16A     -0.456300    17A     -0.452049  

    Virtual:                                                              

      18A      0.231600    19A      0.277237    20A      0.281683  
      21A      0.297979    22A      0.315453    23A      0.316669  
      24A      0.341849    25A      0.350929    26A      0.353569  
      27A      0.386862    28A      0.408584    29A      0.421088  
      30A      0.453351    31A      0.711369    32A      0.722782  
      33A      0.729277    34A      0.742882    35A      0.764754  
      36A      0.837578    37A      0.870408    38A      0.925316  
      39A      0.950259    40A      0.998824    41A      1.093565  
      42A      1.112778    43A      1.162073    44A      1.163526  
      45A      1.185512    46A      1.193246    47A      1.198898  
      48A      1.234409    49A      1.237284    50A      1.252722  
      51A      1.259268    52A      1.281435    53A      1.299701  
      54A      1.533187    55A      1.711230    56A      1.713966  
      57A      1.854594    58A      1.858269    59A      1.981638  
      60A      2.042898    61A      2.181699    62A      2.247737  
      63A      2.296260    64A      2.296844    65A      2.357405  
      66A      2.447837    67A      2.460313    68A      2.614172  
      69A      2.645829    70A      2.656585    71A      2.695526  
      72A      2.752178    73A      2.789877    74A      2.924878  
      75A      2.961854    76A      3.076518    77A      4.563974  
      78A      4.684208    79A      4.828973    80A      4.937367  

    Final Occupation by Irrep:
              A 
    DOCC [    17 ]

  Energy converged.

  @DF-RHF Final Energy:  -157.29474621705035

   => Energetics <=

    Nuclear Repulsion Energy =            133.1041359401155830
    One-Electron Energy =                -474.1968100340209276
    Two-Electron Energy =                 183.7979278768549989
    DFT Exchange-Correlation Energy =       0.0000000000000000
    Empirical Dispersion Energy =           0.0000000000000000
    PCM Polarization Energy =               0.0000000000000000
    EFP Energy =                            0.0000000000000000
    Total Energy =                       -157.2947462170503172


  Saving occupied orbitals to File 180.

*** tstop() called on lski1497 at Thu Feb 16 16:40:56 2017
Module time:
	user time   =       5.02 seconds =       0.08 minutes
	system time =       0.14 seconds =       0.00 minutes
	total time  =          6 seconds =       0.10 minutes
Total time:
	user time   =      28.56 seconds =       0.48 minutes
	system time =       0.82 seconds =       0.01 minutes
	total time  =         33 seconds =       0.55 minutes


Properties will be evaluated at   0.000000,   0.000000,   0.000000 Bohr

Properties computed using the SCF density matrix

  Nuclear Dipole Moment: (a.u.)
     X:    -0.5297      Y:    -0.1751      Z:    -0.7110

  Electronic Dipole Moment: (a.u.)
     X:     0.5484      Y:     0.1811      Z:     0.7356

  Dipole Moment: (a.u.)
     X:     0.0187      Y:     0.0060      Z:     0.0246     Total:     0.0315

  Dipole Moment: (Debye)
     X:     0.0474      Y:     0.0152      Z:     0.0626     Total:     0.0800


  //>>>>>>>>>>>>>>>>>>>>>>>>>>>>>>>>>>>//
  //               DFMP2               //
  //<<<<<<<<<<<<<<<<<<<<<<<<<<<<<<<<<<<//


*** tstart() called on lski1497
*** at Thu Feb 16 16:40:56 2017


*** tstop() called on lski1497 at Thu Feb 16 16:40:57 2017
Module time:
	user time   =       0.53 seconds =       0.01 minutes
	system time =       0.00 seconds =       0.00 minutes
	total time  =          1 seconds =       0.02 minutes
Total time:
	user time   =      29.11 seconds =       0.49 minutes
	system time =       0.82 seconds =       0.01 minutes
	total time  =         34 seconds =       0.57 minutes
	 --------------------------------------------------------
	                          DF-MP2                         
	      2nd-Order Density-Fitted Moller-Plesset Theory     
	              RMP2 Wavefunction,   1 Threads             
	                                                         
	        Rob Parrish, Justin Turney, Andy Simmonett,      
	           Ed Hohenstein, and C. David Sherrill          
	 --------------------------------------------------------

   => Auxiliary Basis Set <=

  Basis Set: 
    Number of shells: 132
    Number of basis function: 364
    Number of Cartesian functions: 414
    Spherical Harmonics?: true
    Max angular momentum: 3

	 --------------------------------------------------------
	                 NBF =    80, NAUX =   364
	 --------------------------------------------------------
	   CLASS    FOCC     OCC    AOCC    AVIR     VIR    FVIR
	   PAIRS       0      17      17      63      63       0
	 --------------------------------------------------------

DGAS Warning! /src/lib/libfock/apps.cc:80 is not currently checking restricted

         ------------------------------------------------------------
                                     CPHF                           
                                  Rob Parrish                       
         ------------------------------------------------------------

  ==> Geometry <==

    Molecular point group: c1
    Full point group: C1

    Geometry (in Angstrom), charge = 0, multiplicity = 1:

       Center              X                  Y                   Z               Mass       
    ------------   -----------------  -----------------  -----------------  -----------------
           H         -1.982629880401     0.196901117299     0.812703992058     1.007825032070
           H         -1.823049740660     1.847481915268     0.211107957092     1.007825032070
           H         -1.558694320586     0.486365724715    -0.873212891616     1.007825032070
           C         -1.429864535147     0.840484103675     0.140160990643    12.000000000000
           H          0.606155583798     1.479169188170    -0.153138972741     1.007825032070
           H          0.168811174456     1.193708924596     1.536872865518     1.007825032070
           C          0.062159127371     0.828934041846     0.522026426475    12.000000000000
           H          1.640064243007    -0.595463128563     0.877826051498     1.007825032070
           H          0.010706463842    -1.276137955931     0.975725549400     1.007825032070
           C          0.652302815052    -0.592825000046     0.431904445939    12.000000000000
           H          1.180351770832    -2.059555046625    -1.070063939985     1.007825032070
           H          1.407046063815    -0.387188018723    -1.581263789753     1.007825032070
           H         -0.213843360319    -1.072069457649    -1.494952209129     1.007825032070
           C          0.762861241641    -1.060905783004    -1.030397708400    12.000000000000

  Nuclear repulsion =  133.104135940115583
  Reference energy  = -157.294746217050346

  ==> Basis Set <==

  Basis Set: 6-31G(D)
    Number of shells: 44
    Number of basis function: 80
    Number of Cartesian functions: 80
    Spherical Harmonics?: false
    Max angular momentum: 2

  ==> CGRSolver (by Rob Parrish) <==

   Number of roots    =         1
   Preconditioning    =    JACOBI
   Convergence cutoff =     1E-06
   Maximum iterations =       100

  ==> CPHFRHamiltonian (by Rob Parrish) <== 

  ==> DFJK: Density-Fitted J/K Matrices <==

    J tasked:                  Yes
    K tasked:                  Yes
    wK tasked:                  No
    OpenMP threads:              1
    Integrals threads:           1
    Memory (MB):               715
    Algorithm:                Core
    Integral Cache:           NONE
    Schwarz Cutoff:          1E-12
    Fitting Condition:       1E-12

   => Auxiliary Basis Set <=

  Basis Set: 
    Number of shells: 186
    Number of basis function: 574
    Number of Cartesian functions: 574
    Spherical Harmonics?: false
    Max angular momentum: 3

  ==> CPHF Iterations <==

  => Iterations <=

             Iter  Converged  Remaining    Residual
  CGR           1          0          1   7.480E-02
  CGR           2          0          1   8.650E-03
  CGR           3          0          1   2.366E-03
  CGR           4          0          1   4.358E-04
  CGR           5          0          1   7.893E-05
  CGR           6          0          1   1.486E-05
  CGR           7          0          1   2.054E-06
  CGR           8          1          0   4.448E-07

    CGRSolver converged.

  ==> DFCorrGrad: Density-Fitted Correlated Gradients <==

    OpenMP threads:              1
    Integrals threads:           1
    Memory (MB):               715
    Schwarz Cutoff:          0E+00
    Fitting Condition:       1E-12

   => Auxiliary Basis Set <=

  Basis Set: 
    Number of shells: 186
    Number of basis function: 510
    Number of Cartesian functions: 574
    Spherical Harmonics?: true
    Max angular momentum: 3

	-----------------------------------------------------------
	 ==================> DF-MP2 Energies <==================== 
	-----------------------------------------------------------
	 Reference Energy          =    -157.2947462170503456 [Eh]
	 Singles Energy            =      -0.0000000000000000 [Eh]
	 Same-Spin Energy          =      -0.1246270980719102 [Eh]
	 Opposite-Spin Energy      =      -0.4217200712525421 [Eh]
	 Correlation Energy        =      -0.5463471693244524 [Eh]
	 Total Energy              =    -157.8410933863748085 [Eh]
	-----------------------------------------------------------
	 ================> DF-SCS-MP2 Energies <================== 
	-----------------------------------------------------------
	 SCS Same-Spin Scale       =       0.3333333333333333 [-]
	 SCS Opposite-Spin Scale   =       1.2000000000000000 [-]
	 SCS Same-Spin Energy      =      -0.0415423660239701 [Eh]
	 SCS Opposite-Spin Energy  =      -0.5060640855030505 [Eh]
	 SCS Correlation Energy    =      -0.5476064515270206 [Eh]
	 SCS Total Energy          =    -157.8423526685773766 [Eh]
	-----------------------------------------------------------


  -Total Gradient:
     Atom            X                  Y                   Z
    ------   -----------------  -----------------  -----------------
       1        0.005665351272     0.003890601012    -0.003617608851
       2        0.004950870049    -0.005376092012     0.000231113584
       3        0.003998355740     0.001304668749     0.006401343841
       4       -0.017797777365    -0.003400142571    -0.004757367066
       5       -0.005737379494    -0.006688095023     0.001701177276
       6       -0.002320801941    -0.005430428372    -0.006034001598
       7        0.012966202585     0.019543684873     0.003864335231
       8       -0.006064280012     0.002645367633    -0.005202394110
       9        0.001920935819     0.005402680549    -0.006983158116
      10        0.003869145767    -0.014056660143     0.018506697983
      11       -0.002546425451     0.006354891001     0.002954711289
      12       -0.004213616123    -0.003419181823     0.005451610590
      13        0.004752622824     0.001736004557     0.005352396828
      14        0.000556796330    -0.002507298430    -0.017868856880


			-----------------------------------------
			 OPTKING 2.0: for geometry optimizations 
			  - R.A. King,  Bethel University        
			-----------------------------------------

	Previous internal coordinate definitions found.
	---Fragment 1 Geometry and Gradient---
	 H          -3.7466274968        0.3720891870        1.5357879721
	 H          -3.4450647365        3.4912348553        0.3989362234
	 H          -2.9455053908        0.9190980201       -1.6501332209
	 C          -2.7020523786        1.5882847750        0.2648658868
	 H           1.1454680473        2.7952246698       -0.2893907188
	 H           0.3190068879        2.2557829499        2.9042688169
	 C           0.1174637274        1.5664583213        0.9864869802
	 H           3.0992722596       -1.1252622352        1.6588508296
	 H           0.0202322845       -2.4115512445        1.8438540692
	 C           1.2326736762       -1.1202768948        0.8161811184
	 H           2.2305415873       -3.8919949937       -2.0221277912
	 H           2.6589317170       -0.7316793173       -2.9881555065
	 H          -0.4041053863       -2.0259176704       -2.8250502570
	 C           1.4415988241       -2.0048213827       -1.9471694768
	             0.0056653513        0.0038906010       -0.0036176089
	             0.0049508700       -0.0053760920        0.0002311136
	             0.0039983557        0.0013046687        0.0064013438
	            -0.0177977774       -0.0034001426       -0.0047573671
	            -0.0057373795       -0.0066880950        0.0017011773
	            -0.0023208019       -0.0054304284       -0.0060340016
	             0.0129662026        0.0195436849        0.0038643352
	            -0.0060642800        0.0026453676       -0.0052023941
	             0.0019209358        0.0054026805       -0.0069831581
	             0.0038691458       -0.0140566601        0.0185066980
	            -0.0025464255        0.0063548910        0.0029547113
	            -0.0042136161       -0.0034191818        0.0054516106
	             0.0047526228        0.0017360046        0.0053523968
	             0.0005567963       -0.0025072984       -0.0178688569

	---Fragment 1 Intrafragment Coordinates---
	 - Coordinate -           - BOHR/RAD -       - ANG/DEG -
	 R(1,4)           =         2.045852	       1.082618
	 R(2,4)           =         2.047257	       1.083362
	 R(3,4)           =         2.043111	       1.081168
	 R(4,7)           =         2.910478	       1.540159
	 R(5,7)           =         2.048054	       1.083783
	 R(6,7)           =         2.047846	       1.083674
	 R(7,10)          =         2.913974	       1.542009
	 R(8,10)          =         2.048001	       1.083755
	 R(9,10)          =         2.047807	       1.083653
	 R(10,14)         =         2.908982	       1.539367
	 R(11,14)         =         2.046820	       1.083131
	 R(12,14)         =         2.046080	       1.082739
	 R(13,14)         =         2.043953	       1.081613
	 B(1,4,2)         =         1.903477	     109.061201
	 B(1,4,3)         =         1.903625	     109.069665
	 B(1,4,7)         =         1.913614	     109.641997
	 B(2,4,3)         =         1.899252	     108.819112
	 B(2,4,7)         =         1.920183	     110.018378
	 B(3,4,7)         =         1.923429	     110.204373
	 B(4,7,5)         =         1.904238	     109.104773
	 B(4,7,6)         =         1.901817	     108.966096
	 B(4,7,10)        =         1.942468	     111.295238
	 B(5,7,6)         =         1.909272	     109.393224
	 B(5,7,10)        =         1.901462	     108.945760
	 B(6,7,10)        =         1.904376	     109.112688
	 B(7,10,8)        =         1.903933	     109.087343
	 B(7,10,9)        =         1.902306	     108.994089
	 B(7,10,14)       =         1.942675	     111.307084
	 B(8,10,9)        =         1.908799	     109.366122
	 B(8,10,14)       =         1.901450	     108.945071
	 B(9,10,14)       =         1.904455	     109.117225
	 B(10,14,11)      =         1.920722	     110.049278
	 B(10,14,12)      =         1.914340	     109.683602
	 B(10,14,13)      =         1.924403	     110.260154
	 B(11,14,12)      =         1.902595	     109.010678
	 B(11,14,13)      =         1.899501	     108.833363
	 B(12,14,13)      =         1.901973	     108.975049
	 D(1,4,7,5)       =        -3.136847	    -179.728117
	 D(1,4,7,6)       =        -1.053257	     -60.347178
	 D(1,4,7,10)      =         1.047561	      60.020829
	 D(2,4,7,5)       =        -1.043507	     -59.788531
	 D(2,4,7,6)       =         1.040084	      59.592409
	 D(2,4,7,10)      =         3.140902	     179.960415
	 D(3,4,7,5)       =         1.050791	      60.205871
	 D(3,4,7,6)       =         3.134381	     179.586810
	 D(3,4,7,10)      =        -1.047986	     -60.045183
	 D(4,7,10,8)      =        -2.961230	    -169.665962
	 D(4,7,10,9)      =        -0.878103	     -50.311589
	 D(4,7,10,14)     =         1.223263	      70.087786
	 D(5,7,10,8)      =         1.221541	      69.989144
	 D(5,7,10,9)      =        -2.978518	    -170.656483
	 D(5,7,10,14)     =        -0.877152	     -50.257108
	 D(6,7,10,8)      =        -0.861921	     -49.384442
	 D(6,7,10,9)      =         1.221206	      69.969932
	 D(6,7,10,14)     =        -2.960614	    -169.630694
	 D(7,10,14,11)    =         3.140154	     179.917545
	 D(7,10,14,12)    =         1.047110	      59.994960
	 D(7,10,14,13)    =        -1.047465	     -60.015333
	 D(8,10,14,11)    =         1.039995	      59.587344
	 D(8,10,14,12)    =        -1.053049	     -60.335242
	 D(8,10,14,13)    =         3.135562	     179.654465
	 D(9,10,14,11)    =        -1.042933	     -59.755683
	 D(9,10,14,12)    =        -3.135977	    -179.678269
	 D(9,10,14,13)    =         1.052633	      60.311439

	Current energy   :      -157.8410933864

	Energy change for the previous step:
		Projected    :        -0.0056553738
		Actual       :        -0.0044482291

	Performing BFGS update.
	Previous computed or guess Hessian on step 1.
	Steps to be used in Hessian update: 1
	Adding user-defined constraint: Fragment 1; Coordinate 49:
		Value =     1.223263; Fixed value    =     1.221730
		Force =    -0.000805; Force constant =     0.525000
	Removing off-diagonal coupling between coordinate 49 and others.
	Taking RFO optimization step.
	Going to follow RFO solution 1.
	Using RFO vector 1.

	Determining step-restricting scale parameter for RS-RFO.
	Maximum step size allowed    0.10000

	 Iter      |step|        alpha        rfo_root  
	------------------------------------------------
	    0     0.17903       1.00000           1
	    1     0.14225       6.07487           1
	    2     0.11533      15.90064           1
	    3     0.10312      24.34362           1
	    4     0.10017      27.02312           1
	    5     0.10000      27.18989           1
	------------------------------------------------
	Norm of target step-size    0.10000
	Projected energy change by RFO approximation:        -0.0025512617

	Back-transformation to cartesian coordinates...
	Could not converge backtransformation.
	Using first guess instead.

	--- Internal Coordinate Step in ANG or DEG, aJ/ANG or AJ/DEG ---
	 ---------------------------------------------------------------------------
	   Coordinate                Previous        Force       Change         New 
	   ----------                --------       ------       ------       ------
	    1 R(1,4)          =      1.082618     0.061400     0.009412     1.092030
	    2 R(2,4)          =      1.083362     0.055849     0.008285     1.091647
	    3 R(3,4)          =      1.081168     0.056878     0.009715     1.090882
	    4 R(4,7)          =      1.540159    -0.028745    -0.007783     1.532376
	    5 R(5,7)          =      1.083783     0.065517     0.010170     1.093954
	    6 R(6,7)          =      1.083674     0.063496     0.009430     1.093104
	    7 R(7,10)         =      1.542009    -0.022696    -0.007631     1.534377
	    8 R(8,10)         =      1.083755     0.063225     0.009391     1.093147
	    9 R(9,10)         =      1.083653     0.066310     0.010270     1.093923
	   10 R(10,14)        =      1.539367    -0.025888    -0.007212     1.532155
	   11 R(11,14)        =      1.083131     0.057251     0.008468     1.091598
	   12 R(12,14)        =      1.082739     0.061032     0.009348     1.092087
	   13 R(13,14)        =      1.081613     0.054445     0.009367     1.090980
	   14 B(1,4,2)        =    109.061201    -0.000194    -0.680737   108.380464
	   15 B(1,4,3)        =    109.069665    -0.000198    -0.721397   108.348268
	   16 B(1,4,7)        =    109.641997     0.000140     0.568407   110.210404
	   17 B(2,4,3)        =    108.819112    -0.000245    -0.767290   108.051822
	   18 B(2,4,7)        =    110.018378     0.000203     0.635546   110.653924
	   19 B(3,4,7)        =    110.204373     0.000282     0.901664   111.106037
	   20 B(4,7,5)        =    109.104773    -0.000081     0.058274   109.163048
	   21 B(4,7,6)        =    108.966096    -0.000143    -0.168654   108.797443
	   22 B(4,7,10)       =    111.295238     0.000538     1.297499   112.592737
	   23 B(5,7,6)        =    109.393224    -0.000072    -0.910846   108.482378
	   24 B(5,7,10)       =    108.945760    -0.000138    -0.165355   108.780405
	   25 B(6,7,10)       =    109.112688    -0.000110    -0.168728   108.943960
	   26 B(7,10,8)       =    109.087343    -0.000109    -0.158035   108.929309
	   27 B(7,10,9)       =    108.994089    -0.000143    -0.185635   108.808454
	   28 B(7,10,14)      =    111.307084     0.000538     1.290439   112.597523
	   29 B(8,10,9)       =    109.366122    -0.000071    -0.903242   108.462880
	   30 B(8,10,14)      =    108.945071    -0.000142    -0.160760   108.784311
	   31 B(9,10,14)      =    109.117225    -0.000081     0.059113   109.176338
	   32 B(10,14,11)     =    110.049278     0.000201     0.620705   110.669983
	   33 B(10,14,12)     =    109.683602     0.000131     0.538221   110.221823
	   34 B(10,14,13)     =    110.260154     0.000274     0.872771   111.132925
	   35 B(11,14,12)     =    109.010678    -0.000187    -0.653746   108.356932
	   36 B(11,14,13)     =    108.833363    -0.000244    -0.769111   108.064252
	   37 B(12,14,13)     =    108.975049    -0.000187    -0.672561   108.302488
	   38 D(1,4,7,5)      =   -179.728117     0.000027     0.596037  -179.132081
	   39 D(1,4,7,6)      =    -60.347178    -0.000024    -0.568409   -60.915586
	   40 D(1,4,7,10)     =     60.020829     0.000001    -0.067629    59.953199
	   41 D(2,4,7,5)      =    -59.788531     0.000021     0.515078   -59.273453
	   42 D(2,4,7,6)      =     59.592409    -0.000029    -0.649367    58.943042
	   43 D(2,4,7,10)     =    179.960415    -0.000005    -0.148588   179.811827
	   44 D(3,4,7,5)      =     60.205871     0.000022     0.551989    60.757859
	   45 D(3,4,7,6)      =    179.586810    -0.000029    -0.612456   178.974354
	   46 D(3,4,7,10)     =    -60.045183    -0.000004    -0.111677   -60.156860
	   47 D(4,7,10,8)     =   -169.665962     0.000026     0.527052  -169.138910
	   48 D(4,7,10,9)     =    -50.311589    -0.000028    -0.761363   -51.072952
	   49 D(4,7,10,14)    =     70.087786     0.000005     0.012000    70.099786
	   50 D(5,7,10,8)     =     69.989144    -0.000008    -0.261491    69.727653
	   51 D(5,7,10,9)     =   -170.656483    -0.000061    -1.549906  -172.206389
	   52 D(5,7,10,14)    =    -50.257108    -0.000028    -0.776543   -51.033651
	   53 D(6,7,10,8)     =    -49.384442     0.000046     1.030396   -48.354046
	   54 D(6,7,10,9)     =     69.969932    -0.000008    -0.258019    69.711912
	   55 D(6,7,10,14)    =   -169.630694     0.000025     0.515344  -169.115350
	   56 D(7,10,14,11)   =    179.917545    -0.000004    -0.124098   179.793447
	   57 D(7,10,14,12)   =     59.994960     0.000001    -0.048487    59.946473
	   58 D(7,10,14,13)   =    -60.015333    -0.000004    -0.115871   -60.131204
	   59 D(8,10,14,11)   =     59.587344    -0.000029    -0.638264    58.949079
	   60 D(8,10,14,12)   =    -60.335242    -0.000024    -0.562652   -60.897895
	   61 D(8,10,14,13)   =    179.654465    -0.000029    -0.630037   179.024428
	   62 D(9,10,14,11)   =    -59.755683     0.000021     0.511702   -59.243981
	   63 D(9,10,14,12)   =   -179.678269     0.000026     0.587314  -179.090955
	   64 D(9,10,14,13)   =     60.311439     0.000021     0.519929    60.831368
	 ---------------------------------------------------------------------------
	 Forces used to impose fixed constraints are not included.
	  Forces zeroed: 49 

  ==> Convergence Check <==

  Measures of convergence in internal coordinates in au.
  Criteria marked as inactive (o), active & met (*), and active & unmet ( ).
  ---------------------------------------------------------------------------------------------
   Step     Total Energy     Delta E     MAX Force     RMS Force      MAX Disp      RMS Disp   
  ---------------------------------------------------------------------------------------------
    Convergence Criteria    1.00e-06 *    3.00e-04 *             o    1.20e-03 *             o
  ---------------------------------------------------------------------------------------------
      2    -157.84109339   -4.45e-03      8.05e-03      3.63e-03 o    2.71e-02      1.25e-02 o  ~
  ---------------------------------------------------------------------------------------------

	Writing optimization data to binary file.
	Structure for next step:
	Cartesian Geometry (in Angstrom)
	    H    -2.0052761373   0.2074413101   0.8169654748
	    H    -1.8286632193   1.8702459813   0.2339403273
	    H    -1.5918570707   0.5167941371  -0.8759460259
	    C    -1.4344604167   0.8558172132   0.1489022303
	    H     0.6047120609   1.4869265422  -0.1493168840
	    H     0.1682075130   1.1838725205   1.5440239791
	    C     0.0519938752   0.8207277620   0.5195749098
	    H     1.6445966706  -0.5842769573   0.8760823040
	    H     0.0161971371  -1.2821481604   0.9777457778
	    C     0.6513747110  -0.5881872894   0.4195030634
	    H     1.2081686584  -2.0752952691  -1.0631659009
	    H     1.4206032200  -0.4007747331  -1.5979332025
	    H    -0.1991006816  -1.1086983147  -1.5166768149
	    C     0.7758803262  -1.0735441173  -1.0284004714
			--------------------------
			 OPTKING Finished Execution 
			--------------------------

    Structure for next step:
    Molecular point group: c1
    Full point group: C1

    Geometry (in Angstrom), charge = 0, multiplicity = 1:

    H           -2.004770770946     0.207606688626     0.817744190635
    H           -1.828157852953     1.870411359794     0.234719043150
    H           -1.591351704353     0.516959515619    -0.875167310041
    C           -1.433955050371     0.855982591717     0.149680946122
    H            0.605217427217     1.487091920701    -0.148538168140
    H            0.168712879321     1.184037899006     1.544802694929
    C            0.052499241505     0.820893140552     0.520353625632
    H            1.645102036955    -0.584111578800     0.876861019865
    H            0.016702503460    -1.281982781898     0.978524493591
    C            0.651880077293    -0.588021910832     0.420281779203
    H            1.208674024740    -2.075129890543    -1.062387185124
    H            1.421108586318    -0.400609354544    -1.597154486648
    H           -0.198595315260    -1.108532936215    -1.515898099095
    C            0.776385692505    -1.073378738765    -1.027621755551

gradient() will perform analytic gradient computation.
    SCF Algorithm Type (re)set to DF.

*** tstart() called on lski1497
*** at Thu Feb 16 16:41:17 2017


         ---------------------------------------------------------
                                   SCF
            by Justin Turney, Rob Parrish, and Andy Simmonett
                              RHF Reference
                        1 Threads,   1000 MiB Core
         ---------------------------------------------------------

  ==> Geometry <==

    Molecular point group: c1
    Full point group: C1

    Geometry (in Angstrom), charge = 0, multiplicity = 1:

       Center              X                  Y                   Z               Mass       
    ------------   -----------------  -----------------  -----------------  -----------------
           H         -2.004770770946     0.207606688626     0.817744190635     1.007825032070
           H         -1.828157852953     1.870411359794     0.234719043150     1.007825032070
           H         -1.591351704353     0.516959515619    -0.875167310041     1.007825032070
           C         -1.433955050371     0.855982591717     0.149680946122    12.000000000000
           H          0.605217427217     1.487091920701    -0.148538168140     1.007825032070
           H          0.168712879321     1.184037899006     1.544802694929     1.007825032070
           C          0.052499241505     0.820893140552     0.520353625632    12.000000000000
           H          1.645102036955    -0.584111578800     0.876861019865     1.007825032070
           H          0.016702503460    -1.281982781898     0.978524493591     1.007825032070
           C          0.651880077293    -0.588021910832     0.420281779203    12.000000000000
           H          1.208674024740    -2.075129890543    -1.062387185124     1.007825032070
           H          1.421108586318    -0.400609354544    -1.597154486648     1.007825032070
           H         -0.198595315260    -1.108532936215    -1.515898099095     1.007825032070
           C          0.776385692505    -1.073378738765    -1.027621755551    12.000000000000

  Running in c1 symmetry.

  Rotational constants: A =      0.44728  B =      0.15820  C =      0.13675 [cm^-1]
  Rotational constants: A =  13409.08649  B =   4742.56872  C =   4099.71701 [MHz]
  Nuclear repulsion =  132.678522434494937

  Charge       = 0
  Multiplicity = 1
  Electrons    = 34
  Nalpha       = 17
  Nbeta        = 17

  ==> Algorithm <==

  SCF Algorithm Type is DF.
  DIIS enabled.
  MOM disabled.
  Fractional occupation disabled.
  Guess Type is READ.
  Energy threshold   = 1.00e-10
  Density threshold  = 1.00e-10
  Integral threshold = 0.00e+00

  ==> Primary Basis <==

  Basis Set: 6-31G(D)
    Number of shells: 44
    Number of basis function: 80
    Number of Cartesian functions: 80
    Spherical Harmonics?: false
    Max angular momentum: 2

  ==> Pre-Iterations <==

   -------------------------------------------------------
    Irrep   Nso     Nmo     Nalpha   Nbeta   Ndocc  Nsocc
   -------------------------------------------------------
     A         80      80       0       0       0       0
   -------------------------------------------------------
    Total      80      80      17      17      17       0
   -------------------------------------------------------

  ==> Integral Setup <==

  ==> DFJK: Density-Fitted J/K Matrices <==

    J tasked:                  Yes
    K tasked:                  Yes
    wK tasked:                  No
    OpenMP threads:              1
    Integrals threads:           1
    Memory (MB):               715
    Algorithm:                Core
    Integral Cache:           NONE
    Schwarz Cutoff:          1E-12
    Fitting Condition:       1E-12

   => Auxiliary Basis Set <=

  Basis Set: 
    Number of shells: 186
    Number of basis function: 574
    Number of Cartesian functions: 574
    Spherical Harmonics?: false
    Max angular momentum: 3

  Minimum eigenvalue in the overlap matrix is 5.4426233875E-03.
  Using Symmetric Orthogonalization.
  SCF Guess was Projection but file not found.
  Switching over to SAD guess.

  SCF Guess: Superposition of Atomic Densities via on-the-fly atomic UHF.

  ==> Iterations <==

                           Total Energy        Delta E     RMS |[F,P]|

   @DF-RHF iter   0:  -158.85073793577288   -1.58851e+02   4.62573e-02 
   @DF-RHF iter   1:  -157.20463365516736    1.64610e+00   3.95745e-03 
   @DF-RHF iter   2:  -157.28720026356137   -8.25666e-02   1.10881e-03 DIIS
   @DF-RHF iter   3:  -157.29533407407189   -8.13381e-03   2.69530e-04 DIIS
   @DF-RHF iter   4:  -157.29574469250946   -4.10618e-04   8.19992e-05 DIIS
   @DF-RHF iter   5:  -157.29578456164165   -3.98691e-05   1.33605e-05 DIIS
   @DF-RHF iter   6:  -157.29578597243750   -1.41080e-06   1.57915e-06 DIIS
   @DF-RHF iter   7:  -157.29578599077712   -1.83396e-08   3.43392e-07 DIIS
   @DF-RHF iter   8:  -157.29578599138017   -6.03052e-10   1.05433e-07 DIIS
   @DF-RHF iter   9:  -157.29578599144469   -6.45173e-11   2.45534e-08 DIIS
   @DF-RHF iter  10:  -157.29578599144935   -4.66116e-12   5.32218e-09 DIIS
   @DF-RHF iter  11:  -157.29578599144980   -4.54747e-13   1.28583e-09 DIIS
   @DF-RHF iter  12:  -157.29578599144975    5.68434e-14   3.22587e-10 DIIS
   @DF-RHF iter  13:  -157.29578599145003   -2.84217e-13   6.34299e-11 DIIS

  ==> Post-Iterations <==

    Orbital Energies (a.u.)
    -----------------------

    Doubly Occupied:                                                      

       1A    -11.215427     2A    -11.214842     3A    -11.209130  
       4A    -11.209128     5A     -1.069709     6A     -0.974010  
       7A     -0.870095     8A     -0.775724     9A     -0.623332  
      10A     -0.621457    11A     -0.574454    12A     -0.532436  
      13A     -0.528956    14A     -0.502518    15A     -0.465020  
      16A     -0.456346    17A     -0.454257  

    Virtual:                                                              

      18A      0.229263    19A      0.274357    20A      0.279770  
      21A      0.295383    22A      0.313953    23A      0.315625  
      24A      0.338532    25A      0.347996    26A      0.351154  
      27A      0.385808    28A      0.402006    29A      0.422664  
      30A      0.458800    31A      0.708486    32A      0.725744  
      33A      0.726389    34A      0.742373    35A      0.766875  
      36A      0.842581    37A      0.874194    38A      0.928475  
      39A      0.954709    40A      1.002237    41A      1.091164  
      42A      1.112387    43A      1.151485    44A      1.153158  
      45A      1.177300    46A      1.182126    47A      1.189222  
      48A      1.229283    49A      1.232525    50A      1.244829  
      51A      1.251772    52A      1.271813    53A      1.287574  
      54A      1.521151    55A      1.713541    56A      1.718241  
      57A      1.850032    58A      1.856916    59A      1.981133  
      60A      2.034777    61A      2.181449    62A      2.247654  
      63A      2.288930    64A      2.298403    65A      2.350930  
      66A      2.437547    67A      2.449174    68A      2.603226  
      69A      2.638473    70A      2.646297    71A      2.692386  
      72A      2.745540    73A      2.787936    74A      2.942039  
      75A      2.964889    76A      3.073548    77A      4.559166  
      78A      4.677460    79A      4.826763    80A      4.934304  

    Final Occupation by Irrep:
              A 
    DOCC [    17 ]

  Energy converged.

  @DF-RHF Final Energy:  -157.29578599145003

   => Energetics <=

    Nuclear Repulsion Energy =            132.6785224344949370
    One-Electron Energy =                -473.3549313763741111
    Two-Electron Energy =                 183.3806229504294834
    DFT Exchange-Correlation Energy =       0.0000000000000000
    Empirical Dispersion Energy =           0.0000000000000000
    PCM Polarization Energy =               0.0000000000000000
    EFP Energy =                            0.0000000000000000
    Total Energy =                       -157.2957859914496908


  Saving occupied orbitals to File 180.

*** tstop() called on lski1497 at Thu Feb 16 16:41:24 2017
Module time:
	user time   =       4.99 seconds =       0.08 minutes
	system time =       0.15 seconds =       0.00 minutes
	total time  =          7 seconds =       0.12 minutes
Total time:
	user time   =      52.04 seconds =       0.87 minutes
	system time =       1.45 seconds =       0.02 minutes
	total time  =         61 seconds =       1.02 minutes


Properties will be evaluated at   0.000000,   0.000000,   0.000000 Bohr

Properties computed using the SCF density matrix

  Nuclear Dipole Moment: (a.u.)
     X:    -0.5225      Y:    -0.1727      Z:    -0.6998

  Electronic Dipole Moment: (a.u.)
     X:     0.5398      Y:     0.1784      Z:     0.7227

  Dipole Moment: (a.u.)
     X:     0.0173      Y:     0.0057      Z:     0.0229     Total:     0.0292

  Dipole Moment: (Debye)
     X:     0.0439      Y:     0.0144      Z:     0.0583     Total:     0.0743


  //>>>>>>>>>>>>>>>>>>>>>>>>>>>>>>>>>>>//
  //               DFMP2               //
  //<<<<<<<<<<<<<<<<<<<<<<<<<<<<<<<<<<<//


*** tstart() called on lski1497
*** at Thu Feb 16 16:41:24 2017


*** tstop() called on lski1497 at Thu Feb 16 16:41:24 2017
Module time:
	user time   =       0.54 seconds =       0.01 minutes
	system time =       0.01 seconds =       0.00 minutes
	total time  =          0 seconds =       0.00 minutes
Total time:
	user time   =      52.60 seconds =       0.88 minutes
	system time =       1.46 seconds =       0.02 minutes
	total time  =         61 seconds =       1.02 minutes
	 --------------------------------------------------------
	                          DF-MP2                         
	      2nd-Order Density-Fitted Moller-Plesset Theory     
	              RMP2 Wavefunction,   1 Threads             
	                                                         
	        Rob Parrish, Justin Turney, Andy Simmonett,      
	           Ed Hohenstein, and C. David Sherrill          
	 --------------------------------------------------------

   => Auxiliary Basis Set <=

  Basis Set: 
    Number of shells: 132
    Number of basis function: 364
    Number of Cartesian functions: 414
    Spherical Harmonics?: true
    Max angular momentum: 3

	 --------------------------------------------------------
	                 NBF =    80, NAUX =   364
	 --------------------------------------------------------
	   CLASS    FOCC     OCC    AOCC    AVIR     VIR    FVIR
	   PAIRS       0      17      17      63      63       0
	 --------------------------------------------------------

DGAS Warning! /src/lib/libfock/apps.cc:80 is not currently checking restricted

         ------------------------------------------------------------
                                     CPHF                           
                                  Rob Parrish                       
         ------------------------------------------------------------

  ==> Geometry <==

    Molecular point group: c1
    Full point group: C1

    Geometry (in Angstrom), charge = 0, multiplicity = 1:

       Center              X                  Y                   Z               Mass       
    ------------   -----------------  -----------------  -----------------  -----------------
           H         -2.004770770946     0.207606688626     0.817744190635     1.007825032070
           H         -1.828157852953     1.870411359794     0.234719043150     1.007825032070
           H         -1.591351704353     0.516959515619    -0.875167310041     1.007825032070
           C         -1.433955050371     0.855982591717     0.149680946122    12.000000000000
           H          0.605217427217     1.487091920701    -0.148538168140     1.007825032070
           H          0.168712879321     1.184037899006     1.544802694929     1.007825032070
           C          0.052499241505     0.820893140552     0.520353625632    12.000000000000
           H          1.645102036955    -0.584111578800     0.876861019865     1.007825032070
           H          0.016702503460    -1.281982781898     0.978524493591     1.007825032070
           C          0.651880077293    -0.588021910832     0.420281779203    12.000000000000
           H          1.208674024740    -2.075129890543    -1.062387185124     1.007825032070
           H          1.421108586318    -0.400609354544    -1.597154486648     1.007825032070
           H         -0.198595315260    -1.108532936215    -1.515898099095     1.007825032070
           C          0.776385692505    -1.073378738765    -1.027621755551    12.000000000000

  Nuclear repulsion =  132.678522434494965
  Reference energy  = -157.295785991450032

  ==> Basis Set <==

  Basis Set: 6-31G(D)
    Number of shells: 44
    Number of basis function: 80
    Number of Cartesian functions: 80
    Spherical Harmonics?: false
    Max angular momentum: 2

  ==> CGRSolver (by Rob Parrish) <==

   Number of roots    =         1
   Preconditioning    =    JACOBI
   Convergence cutoff =     1E-06
   Maximum iterations =       100

  ==> CPHFRHamiltonian (by Rob Parrish) <== 

  ==> DFJK: Density-Fitted J/K Matrices <==

    J tasked:                  Yes
[...]
    Integral Cache:           NONE
    Schwarz Cutoff:          1E-12
    Fitting Condition:       1E-12

   => Auxiliary Basis Set <=

  Basis Set: 
    Number of shells: 186
    Number of basis function: 574
    Number of Cartesian functions: 574
    Spherical Harmonics?: false
    Max angular momentum: 3

  ==> CPHF Iterations <==

  => Iterations <=

             Iter  Converged  Remaining    Residual
  CGR           1          0          1   7.638E-02
  CGR           2          0          1   9.015E-03
  CGR           3          0          1   2.470E-03
  CGR           4          0          1   4.344E-04
  CGR           5          0          1   8.061E-05
  CGR           6          0          1   1.536E-05
  CGR           7          0          1   2.054E-06
  CGR           8          1          0   4.262E-07

    CGRSolver converged.

  ==> DFCorrGrad: Density-Fitted Correlated Gradients <==

    OpenMP threads:              1
    Integrals threads:           1
    Memory (MB):               715
    Schwarz Cutoff:          0E+00
    Fitting Condition:       1E-12

   => Auxiliary Basis Set <=

  Basis Set: 
    Number of shells: 186
    Number of basis function: 510
    Number of Cartesian functions: 574
    Spherical Harmonics?: true
    Max angular momentum: 3

	-----------------------------------------------------------
	 ==================> DF-MP2 Energies <==================== 
	-----------------------------------------------------------
	 Reference Energy          =    -157.2962575737827819 [Eh]
	 Singles Energy            =      -0.0000000000000000 [Eh]
	 Same-Spin Energy          =      -0.1246219755795590 [Eh]
	 Opposite-Spin Energy      =      -0.4224466506635584 [Eh]
	 Correlation Energy        =      -0.5470686262431174 [Eh]
	 Total Energy              =    -157.8433262000258992 [Eh]
	-----------------------------------------------------------
	 ================> DF-SCS-MP2 Energies <================== 
	-----------------------------------------------------------
	 SCS Same-Spin Scale       =       0.3333333333333333 [-]
	 SCS Opposite-Spin Scale   =       1.2000000000000000 [-]
	 SCS Same-Spin Energy      =      -0.0415406585265197 [Eh]
	 SCS Opposite-Spin Energy  =      -0.5069359807962700 [Eh]
	 SCS Correlation Energy    =      -0.5484766393227897 [Eh]
	 SCS Total Energy          =    -157.8447342131055677 [Eh]
	-----------------------------------------------------------


  -Total Gradient:
     Atom            X                  Y                   Z
    ------   -----------------  -----------------  -----------------
       1       -0.000004716573     0.000005123067    -0.000005634085
       2       -0.000004910373     0.000008566960     0.000000597527
       3       -0.000002189246    -0.000004671279    -0.000008213782
       4       -0.000167115771    -0.000150226271     0.000804591349
       5       -0.000014479861     0.000000170572    -0.000006519269
       6        0.000029047065    -0.000001972483    -0.000006922415
       7        0.000551345059     0.000322074705    -0.001114241871
       8       -0.000015005214     0.000005658630     0.000021805105
       9       -0.000002042596    -0.000005157776    -0.000012753747
      10       -0.001125631417    -0.000513482593     0.000368712610
      11        0.000003224506    -0.000007694435     0.000001385403
      12       -0.000003951655    -0.000007323063    -0.000002938821
      13       -0.000005900860     0.000002176720    -0.000002493533
      14        0.000762326935     0.000346757245    -0.000037374472


			-----------------------------------------
			 OPTKING 2.0: for geometry optimizations 
			  - R.A. King,  Bethel University        
			-----------------------------------------

	Previous internal coordinate definitions found.
	---Fragment 1 Geometry and Gradient---
	 H          -3.8019974687        0.3948703743        1.5103943063
	 H          -3.4603237530        3.5638800466        0.5083743988
	 H          -3.0450300724        1.0763043818       -1.6707072445
	 C          -2.7093934778        1.6516068436        0.2842887717
	 H           1.1586782189        2.8336581390       -0.2647671280
	 H           0.3352486434        2.2562117989        2.8951727120
	 C           0.0908598775        1.5492736830        0.9631516697
	 H           3.1094159184       -1.0828854611        1.6563665423
	 H           0.0810291227       -2.4113468619        1.9028971853
	 C           1.2307343417       -1.0990799874        0.7831627189
	 H           2.3599855939       -3.9386930651       -1.9622913406
	 H           2.6337263214       -0.7928007874       -3.0540712757
	 H          -0.3693758706       -2.2394212399       -2.8409316963
	 C           1.4716707388       -2.0732267951       -1.9197790630
	            -0.0000047166        0.0000051231       -0.0000056341
	            -0.0000049104        0.0000085670        0.0000005975
	            -0.0000021892       -0.0000046713       -0.0000082138
	            -0.0001671158       -0.0001502263        0.0008045913
	            -0.0000144799        0.0000001706       -0.0000065193
	             0.0000290471       -0.0000019725       -0.0000069224
	             0.0005513451        0.0003220747       -0.0011142419
	            -0.0000150052        0.0000056586        0.0000218051
	            -0.0000020426       -0.0000051578       -0.0000127537
	            -0.0011256314       -0.0005134826        0.0003687126
	             0.0000032245       -0.0000076944        0.0000013854
	            -0.0000039517       -0.0000073231       -0.0000029388
	            -0.0000059009        0.0000021767       -0.0000024935
	             0.0007623269        0.0003467572       -0.0000373745

	---Fragment 1 Intrafragment Coordinates---
	 - Coordinate -           - BOHR/RAD -       - ANG/DEG -
	 R(1,4)           =         2.067971	       1.094323
	 R(2,4)           =         2.066615	       1.093606
	 R(3,4)           =         2.065341	       1.092931
	 R(4,7)           =         2.883183	       1.525715
	 R(5,7)           =         2.073081	       1.097027
	 R(6,7)           =         2.071761	       1.096329
	 R(7,10)          =         2.888856	       1.528717
	 R(8,10)          =         2.071761	       1.096328
	 R(9,10)          =         2.073083	       1.097028
	 R(10,14)         =         2.883211	       1.525730
	 R(11,14)         =         2.066610	       1.093603
	 R(12,14)         =         2.067966	       1.094320
	 R(13,14)         =         2.065332	       1.092927
	 B(1,4,2)         =         1.881846	     107.821841
	 B(1,4,3)         =         1.881874	     107.823462
	 B(1,4,7)         =         1.930478	     110.608266
	 B(2,4,3)         =         1.876890	     107.537865
	 B(2,4,7)         =         1.939303	     111.113857
	 B(3,4,7)         =         1.950693	     111.766469
	 B(4,7,5)         =         1.916456	     109.804864
	 B(4,7,6)         =         1.898672	     108.785875
	 B(4,7,10)        =         1.983509	     113.646676
	 B(5,7,6)         =         1.854795	     106.271907
	 B(5,7,10)        =         1.904801	     109.137068
	 B(6,7,10)        =         1.901148	     108.927733
	 B(7,10,8)        =         1.901150	     108.927869
	 B(7,10,9)        =         1.904796	     109.136784
	 B(7,10,14)       =         1.983538	     113.648373
	 B(8,10,9)        =         1.854795	     106.271941
	 B(8,10,14)       =         1.898627	     108.783333
	 B(9,10,14)       =         1.916471	     109.805706
	 B(10,14,11)      =         1.939266	     111.111779
	 B(10,14,12)      =         1.930472	     110.607905
	 B(10,14,13)      =         1.950686	     111.766096
	 B(11,14,12)      =         1.881872	     107.823314
	 B(11,14,13)      =         1.876906	     107.538793
	 B(12,14,13)      =         1.881885	     107.824044
	 D(1,4,7,5)       =        -3.129936	    -179.332098
	 D(1,4,7,6)       =        -1.106808	     -63.415422
	 D(1,4,7,10)      =         1.014322	      58.116390
	 D(2,4,7,5)       =        -1.040476	     -59.614881
	 D(2,4,7,6)       =         0.982652	      56.301796
	 D(2,4,7,10)      =         3.103782	     177.833608
	 D(3,4,7,5)       =         1.056236	      60.517882
	 D(3,4,7,6)       =         3.079364	     176.434559
	 D(3,4,7,10)      =        -1.082691	     -62.033629
	 D(4,7,10,8)      =        -2.943613	    -168.656588
	 D(4,7,10,9)      =        -0.925516	     -53.028133
	 D(4,7,10,14)     =         1.219858	      69.892707
	 D(5,7,10,8)      =         1.194235	      68.424634
	 D(5,7,10,9)      =        -3.070853	    -175.946912
	 D(5,7,10,14)     =        -0.925480	     -53.026072
	 D(6,7,10,8)      =        -0.823863	     -47.203862
	 D(6,7,10,9)      =         1.194234	      68.424593
	 D(6,7,10,14)     =        -2.943577	    -168.654567
	 D(7,10,14,11)    =         3.103746	     177.831571
	 D(7,10,14,12)    =         1.014282	      58.114098
	 D(7,10,14,13)    =        -1.082735	     -62.036164
	 D(8,10,14,11)    =         0.982625	      56.300288
	 D(8,10,14,12)    =        -1.106839	     -63.417185
	 D(8,10,14,13)    =         3.079329	     176.432552
	 D(9,10,14,11)    =        -1.040486	     -59.615457
	 D(9,10,14,12)    =        -3.129950	    -179.332929
	 D(9,10,14,13)    =         1.056218	      60.516808

	Current energy   :      -157.8433262000

	Energy change for the previous step:
		Projected    :        -0.0000010649
		Actual       :        -0.0000024965

	Performing BFGS update.
	Previous computed or guess Hessian on step 1.
	Steps to be used in Hessian update: 5 4
	Adding user-defined constraint: Fragment 1; Coordinate 49:
		Value =     1.219858; Fixed value    =     1.221730
		Force =     0.001170; Force constant =     0.625000
	Removing off-diagonal coupling between coordinate 49 and others.
	Taking RFO optimization step.
	Going to follow RFO solution 1.
	Rejecting RFO root 1 because normalization gives large value.
	Using RFO vector 2.
	Norm of target step-size    0.00308
	Projected energy change by RFO approximation:        -0.0000007663

	Back-transformation to cartesian coordinates...
	Successfully converged to displaced geometry.

	--- Internal Coordinate Step in ANG or DEG, aJ/ANG or AJ/DEG ---
	 ---------------------------------------------------------------------------
	   Coordinate                Previous        Force       Change         New 
	   ----------                --------       ------       ------       ------
	    1 R(1,4)          =      1.094323     0.000032    -0.000021     1.094302
	    2 R(2,4)          =      1.093606    -0.000080    -0.000035     1.093571
	    3 R(3,4)          =      1.092931    -0.000078     0.000014     1.092945
	    4 R(4,7)          =      1.525715     0.000144     0.000142     1.525857
	    5 R(5,7)          =      1.097027     0.000029    -0.000012     1.097016
	    6 R(6,7)          =      1.096329     0.000030     0.000131     1.096460
	    7 R(7,10)         =      1.528717     0.000080    -0.000025     1.528691
	    8 R(8,10)         =      1.096328     0.000036     0.000130     1.096459
	    9 R(9,10)         =      1.097028     0.000021    -0.000012     1.097016
	   10 R(10,14)        =      1.525730     0.000088     0.000134     1.525864
	   11 R(11,14)        =      1.093603    -0.000068    -0.000036     1.093567
	   12 R(12,14)        =      1.094320     0.000041    -0.000021     1.094299
	   13 R(13,14)        =      1.092927    -0.000051     0.000018     1.092944
	   14 B(1,4,2)        =    107.821841     0.000000     0.000083   107.821924
	   15 B(1,4,3)        =    107.823462     0.000000     0.000223   107.823685
	   16 B(1,4,7)        =    110.608266    -0.000001    -0.024481   110.583785
	   17 B(2,4,3)        =    107.537865     0.000000     0.002289   107.540154
	   18 B(2,4,7)        =    111.113857    -0.000000     0.022199   111.136056
	   19 B(3,4,7)        =    111.766469     0.000000    -0.000181   111.766288
	   20 B(4,7,5)        =    109.804864    -0.000002     0.019419   109.824282
	   21 B(4,7,6)        =    108.785875     0.000002    -0.018252   108.767623
	   22 B(4,7,10)       =    113.646676    -0.000000    -0.008579   113.638097
	   23 B(5,7,6)        =    106.271907     0.000000    -0.012220   106.259688
	   24 B(5,7,10)       =    109.137068    -0.000000    -0.000129   109.136939
	   25 B(6,7,10)       =    108.927733     0.000001     0.019396   108.947130
	   26 B(7,10,8)       =    108.927869     0.000001     0.021352   108.949221
	   27 B(7,10,9)       =    109.136784    -0.000000     0.000022   109.136806
	   28 B(7,10,14)      =    113.648373    -0.000000    -0.011167   113.637206
	   29 B(8,10,9)       =    106.271941     0.000000    -0.011861   106.260079
	   30 B(8,10,14)      =    108.783333     0.000002    -0.018174   108.765160
	   31 B(9,10,14)      =    109.805706    -0.000002     0.019670   109.825376
	   32 B(10,14,11)     =    111.111779     0.000000     0.032311   111.144090
	   33 B(10,14,12)     =    110.607905    -0.000001    -0.018600   110.589305
	   34 B(10,14,13)     =    111.766096     0.000000    -0.003854   111.762242
	   35 B(11,14,12)     =    107.823314     0.000000    -0.007566   107.815748
	   36 B(11,14,13)     =    107.538793    -0.000000    -0.001529   107.537263
	   37 B(12,14,13)     =    107.824044     0.000000    -0.001369   107.822675
	   38 D(1,4,7,5)      =   -179.332098    -0.000000     0.016228  -179.315870
	   39 D(1,4,7,6)      =    -63.415422    -0.000000     0.002000   -63.413422
	   40 D(1,4,7,10)     =     58.116390     0.000000     0.007909    58.124299
	   41 D(2,4,7,5)      =    -59.614881    -0.000000     0.014692   -59.600189
	   42 D(2,4,7,6)      =     56.301796    -0.000000     0.000463    56.302259
	   43 D(2,4,7,10)     =    177.833608     0.000000     0.006372   177.839980
	   44 D(3,4,7,5)      =     60.517882    -0.000000     0.032712    60.550594
	   45 D(3,4,7,6)      =    176.434559    -0.000000     0.018483   176.453042
	   46 D(3,4,7,10)     =    -62.033629     0.000000     0.024392   -62.009237
	   47 D(4,7,10,8)     =   -168.656588    -0.000001    -0.038103  -168.694690
	   48 D(4,7,10,9)     =    -53.028133    -0.000001    -0.040491   -53.068624
	   49 D(4,7,10,14)    =     69.892707    -0.000002    -0.022782    69.869925
	   50 D(5,7,10,8)     =     68.424634    -0.000000    -0.057177    68.367457
	   51 D(5,7,10,9)     =   -175.946912    -0.000000    -0.059566  -176.006477
	   52 D(5,7,10,14)    =    -53.026072    -0.000001    -0.041856   -53.067928
	   53 D(6,7,10,8)     =    -47.203862    -0.000000    -0.053204   -47.257066
	   54 D(6,7,10,9)     =     68.424593    -0.000000    -0.055593    68.369000
	   55 D(6,7,10,14)    =   -168.654567    -0.000001    -0.037883  -168.692451
	   56 D(7,10,14,11)   =    177.831571     0.000000     0.008160   177.839731
	   57 D(7,10,14,12)   =     58.114098     0.000000     0.008816    58.122914
	   58 D(7,10,14,13)   =    -62.036164     0.000000     0.025765   -62.010400
	   59 D(8,10,14,11)   =     56.300288    -0.000000     0.001419    56.301707
	   60 D(8,10,14,12)   =    -63.417185    -0.000000     0.002075   -63.415109
	   61 D(8,10,14,13)   =    176.432552    -0.000000     0.019024   176.451576
	   62 D(9,10,14,11)   =    -59.615457    -0.000000     0.015036   -59.600421
	   63 D(9,10,14,12)   =   -179.332929    -0.000000     0.015691  -179.317238
	   64 D(9,10,14,13)   =     60.516808    -0.000000     0.032640    60.549448
	 ---------------------------------------------------------------------------
	 Forces used to impose fixed constraints are not included.
	  Forces zeroed: 49 

  ==> Convergence Check <==

  Measures of convergence in internal coordinates in au.
  Criteria marked as inactive (o), active & met (*), and active & unmet ( ).
  ---------------------------------------------------------------------------------------------
   Step     Total Energy     Delta E     MAX Force     RMS Force      MAX Disp      RMS Disp   
  ---------------------------------------------------------------------------------------------
    Convergence Criteria    1.00e-06 *    3.00e-04 *             o    1.20e-03 *             o
  ---------------------------------------------------------------------------------------------
      6    -157.84332620   -2.50e-06      5.39e-05 *    1.68e-05 o    1.04e-03 *    3.84e-04 o  ~
  ---------------------------------------------------------------------------------------------


  **** Optimization is complete! (in 6 steps) ****

  ==> Optimization Summary <==

  Measures of convergence in internal coordinates in au.
  --------------------------------------------------------------------------------------------------------------- ~
   Step         Total Energy             Delta E       MAX Force       RMS Force        MAX Disp        RMS Disp  ~
  --------------------------------------------------------------------------------------------------------------- ~
      1    -157.836645157279   -157.836645157279      0.01797957      0.00769041      0.03141462      0.01259183  ~
      2    -157.841093386375     -0.004448229096      0.00804856      0.00362698      0.02705097      0.01253286  ~
      3    -157.842835503237     -0.001742116862      0.00253884      0.00111406      0.04258392      0.01251219  ~
      4    -157.843275267810     -0.000439764574      0.00110841      0.00030528      0.02557862      0.01249884  ~
      5    -157.843323703547     -0.000048435737      0.00028917      0.00007428      0.00187962      0.00059426  ~
      6    -157.843326200026     -0.000002496478      0.00008760      0.00002002      0.00103961      0.00038448  ~
  --------------------------------------------------------------------------------------------------------------- ~

	Writing optimization data to binary file.
	Final energy is   -157.8433262000259
	Final (previous) structure:
	Cartesian Geometry (in Angstrom)
	    H    -2.0119304075   0.2089564024   0.7992662429
	    H    -1.8311244644   1.8859240948   0.2690201453
	    H    -1.6113605138   0.5695557484  -0.8841001960
	    C    -1.4337492776   0.8739926992   0.1504391386
	    H     0.6131461055   1.4995073041  -0.1401087297
	    H     0.1774059413   1.1939358617   1.5320594141
	    C     0.0480809764   0.8198403229   0.5096779120
	    H     1.6454320361  -0.5730383055   0.8765114233
	    H     0.0428787650  -1.2760298013   1.0069698208
	    C     0.6512765635  -0.5816080798   0.4144318615
	    H     1.2488505889  -2.0842666017  -1.0383998540
	    H     1.3937079429  -0.4195321077  -1.6161449125
	    H    -0.1954652921  -1.1850506806  -1.5033563048
	    C     0.7787746135  -1.0971043682  -1.0159033257
	Saving final (previous) structure.
			--------------------------
			 OPTKING Finished Execution 
			--------------------------

    Final optimized geometry and variables:
    Molecular point group: c1
    Full point group: C1

    Geometry (in Angstrom), charge = 0, multiplicity = 1:

    H           -2.011930407534     0.208956402425     0.799266242866
    H           -1.831124464442     1.885924094829     0.269020145255
    H           -1.611360513795     0.569555748353    -0.884100196023
    C           -1.433749277550     0.873992699170     0.150439138625
    H            0.613146105507     1.499507304089    -0.140108729738
    H            0.177405941273     1.193935861708     1.532059414140
    C            0.048080976364     0.819840322896     0.509677912021
    H            1.645432036059    -0.573038305507     0.876511423259
    H            0.042878764989    -1.276029801341     1.006969820765
    C            0.651276563452    -0.581608079755     0.414431861453
    H            1.248850588882    -2.084266601680    -1.038399854033
    H            1.393707942928    -0.419532107666    -1.616144912533
    H           -0.195465292115    -1.185050680588    -1.503356304822
    C            0.778774613502    -1.097104368214    -1.015903325653

	Cleaning optimization helper files.

*** Psi4 exiting successfully. Buy a developer a beer!
