    -----------------------------------------------------------------------
          Psi4: An Open-Source Ab Initio Electronic Structure Package
                              Psi4 1.0.0 Driver

                          Git: Rev {master} 6a9a71b 

    J. M. Turney, A. C. Simmonett, R. M. Parrish, E. G. Hohenstein,
    F. A. Evangelista, J. T. Fermann, B. J. Mintz, L. A. Burns, J. J. Wilke,
    M. L. Abrams, N. J. Russ, M. L. Leininger, C. L. Janssen, E. T. Seidl,
    W. D. Allen, H. F. Schaefer, R. A. King, E. F. Valeev, C. D. Sherrill,
    and T. D. Crawford, WIREs Comput. Mol. Sci. 2, 556-565 (2012)
    (doi: 10.1002/wcms.93)

                         Additional Contributions by
    A. E. DePrince, U. Bozkaya, A. Yu. Sokolov, D. G. A. Smith, R. Di Remigio,
    R. M. Richard, J. F. Gonthier, H. R. McAlexander, M. Saitow, and
    B. P. Pritchard
    -----------------------------------------------------------------------


    Psi4 started on: Mon Feb 20 17:24:16 2017

    Process ID:  28130
    PSI4DATADIR: /Users/sternc1/anaconda/share/psi4
    Memory level set to 256.000 MB

  ==> Input File <==

--------------------------------------------------------------------------

memory 1000 mb

molecule butane {
  symmetry C1
  0 1 
  H      1.604   0.760   -8.260
  H      1.745   2.388   -8.880
  H      2.043   1.024   -9.930
  C      2.142   1.395   -8.932
  H      4.169   2.051   -9.210
  H      3.731   1.788   -7.539
  C      3.631   1.416   -8.537
  H      3.434   -0.688   -8.921
  H      5.006   -0.038   -9.318
  C      4.203   -0.012   -8.612
  H      5.123   -1.421   -7.278
  H      3.924   -0.404   -6.519
  H      5.496   0.246   -6.916
  C      4.726   -0.430   -7.226
  units Angstrom
}

dih_string = "4 7 10 14 240"
set optking fixed_dihedral = $dih_string

optimize('MP2/6-31G(d)')
--------------------------------------------------------------------------

  Memory set to 1000.000 MiB by Python script.
gradient() will perform analytic gradient computation.
    SCF Algorithm Type (re)set to DF.

*** tstart() called on lski1497
*** at Mon Feb 20 17:24:18 2017


         ---------------------------------------------------------
                                   SCF
            by Justin Turney, Rob Parrish, and Andy Simmonett
                              RHF Reference
                        1 Threads,   1000 MiB Core
         ---------------------------------------------------------

  ==> Geometry <==

    Molecular point group: c1
    Full point group: C1

    Geometry (in Angstrom), charge = 0, multiplicity = 1:

       Center              X                  Y                   Z               Mass       
    ------------   -----------------  -----------------  -----------------  -----------------
           H         -2.063170616578     0.171506898981     0.058134294023     1.007825032070
           H         -1.922170616578     1.799506898981    -0.561865705977     1.007825032070
           H         -1.624170616578     0.435506898981    -1.611865705977     1.007825032070
           C         -1.525170616578     0.806506898981    -0.613865705977    12.000000000000
           H          0.501829383422     1.462506898981    -0.891865705977     1.007825032070
           H          0.063829383422     1.199506898981     0.779134294023     1.007825032070
           C         -0.036170616578     0.827506898981    -0.218865705977    12.000000000000
           H         -0.233170616578    -1.276493101019    -0.602865705977     1.007825032070
           H          1.338829383422    -0.626493101019    -0.999865705977     1.007825032070
           C          0.535829383422    -0.600493101019    -0.293865705977    12.000000000000
           H          1.455829383422    -2.009493101019     1.040134294023     1.007825032070
           H          0.256829383422    -0.992493101019     1.799134294023     1.007825032070
           H          1.828829383422    -0.342493101019     1.402134294023     1.007825032070
           C          1.058829383422    -1.018493101019     1.092134294023    12.000000000000

  Running in c1 symmetry.

  Rotational constants: A =      0.58975  B =      0.13122  C =      0.13112 [cm^-1]
  Rotational constants: A =  17680.11081  B =   3933.97258  C =   3930.98071 [MHz]
  Nuclear repulsion =  132.581039688683205

  Charge       = 0
  Multiplicity = 1
  Electrons    = 34
  Nalpha       = 17
  Nbeta        = 17

  ==> Algorithm <==

  SCF Algorithm Type is DF.
  DIIS enabled.
  MOM disabled.
  Fractional occupation disabled.
  Guess Type is SAD.
  Energy threshold   = 1.00e-10
  Density threshold  = 1.00e-10
  Integral threshold = 0.00e+00

  ==> Primary Basis <==

  Basis Set: 6-31G(D)
    Number of shells: 44
    Number of basis function: 80
    Number of Cartesian functions: 80
    Spherical Harmonics?: false
    Max angular momentum: 2

  ==> Pre-Iterations <==

   -------------------------------------------------------
    Irrep   Nso     Nmo     Nalpha   Nbeta   Ndocc  Nsocc
   -------------------------------------------------------
     A         80      80       0       0       0       0
   -------------------------------------------------------
    Total      80      80      17      17      17       0
   -------------------------------------------------------

  ==> Integral Setup <==

  ==> DFJK: Density-Fitted J/K Matrices <==

    J tasked:                  Yes
    K tasked:                  Yes
    wK tasked:                  No
    OpenMP threads:              1
    Integrals threads:           1
    Memory (MB):               715
    Algorithm:                Core
    Integral Cache:           NONE
    Schwarz Cutoff:          1E-12
    Fitting Condition:       1E-12

   => Auxiliary Basis Set <=

  Basis Set: 
    Number of shells: 186
    Number of basis function: 574
    Number of Cartesian functions: 574
    Spherical Harmonics?: false
    Max angular momentum: 3

  Minimum eigenvalue in the overlap matrix is 4.8197485743E-03.
  Using Symmetric Orthogonalization.
  SCF Guess: Superposition of Atomic Densities via on-the-fly atomic UHF.

  ==> Iterations <==

                           Total Energy        Delta E     RMS |[F,P]|

   @DF-RHF iter   0:  -158.96390921000429   -1.58964e+02   4.73687e-02 
   @DF-RHF iter   1:  -157.19895695831994    1.76495e+00   3.97200e-03 
   @DF-RHF iter   2:  -157.27944294321352   -8.04860e-02   1.09993e-03 DIIS
   @DF-RHF iter   3:  -157.28741456114969   -7.97162e-03   2.65664e-04 DIIS
   @DF-RHF iter   4:  -157.28779613681033   -3.81576e-04   8.23491e-05 DIIS
   @DF-RHF iter   5:  -157.28783420762088   -3.80708e-05   1.38914e-05 DIIS
   @DF-RHF iter   6:  -157.28783568672483   -1.47910e-06   2.38214e-06 DIIS
   @DF-RHF iter   7:  -157.28783571968049   -3.29557e-08   7.30112e-07 DIIS
   @DF-RHF iter   8:  -157.28783572264783   -2.96734e-09   1.49969e-07 DIIS
   @DF-RHF iter   9:  -157.28783572282620   -1.78375e-10   3.66053e-08 DIIS
   @DF-RHF iter  10:  -157.28783572283723   -1.10276e-11   6.59829e-09 DIIS
   @DF-RHF iter  11:  -157.28783572283740   -1.70530e-13   1.79652e-09 DIIS
   @DF-RHF iter  12:  -157.28783572283751   -1.13687e-13   4.59573e-10 DIIS
   @DF-RHF iter  13:  -157.28783572283746    5.68434e-14   8.58467e-11 DIIS

  ==> Post-Iterations <==

    Orbital Energies (a.u.)
    -----------------------

    Doubly Occupied:                                                      

       1A    -11.206139     2A    -11.205532     3A    -11.201033  
       4A    -11.200782     5A     -1.071561     6A     -0.979991  
       7A     -0.864927     8A     -0.793099     9A     -0.638559  
      10A     -0.604862    11A     -0.583927    12A     -0.554119  
      13A     -0.514691    14A     -0.510364    15A     -0.471100  
      16A     -0.463029    17A     -0.442219  

    Virtual:                                                              

      18A      0.234935    19A      0.272539    20A      0.290189  
      21A      0.298302    22A      0.320759    23A      0.329905  
      24A      0.335759    25A      0.345688    26A      0.350719  
      27A      0.360084    28A      0.414545    29A      0.447230  
      30A      0.453979    31A      0.712435    32A      0.727106  
      33A      0.734512    34A      0.791660    35A      0.806061  
      36A      0.812807    37A      0.826017    38A      0.937439  
      39A      0.938607    40A      1.000670    41A      1.052798  
      42A      1.098980    43A      1.175670    44A      1.178012  
      45A      1.193105    46A      1.210595    47A      1.210930  
      48A      1.226067    49A      1.245439    50A      1.258730  
      51A      1.265976    52A      1.276594    53A      1.286654  
      54A      1.449732    55A      1.672349    56A      1.735537  
      57A      1.785189    58A      1.914288    59A      2.018699  
      60A      2.083561    61A      2.191883    62A      2.243687  
      63A      2.276194    64A      2.305508    65A      2.374806  
      66A      2.460365    67A      2.516566    68A      2.634993  
      69A      2.666736    70A      2.674667    71A      2.731033  
      72A      2.756337    73A      2.784922    74A      2.896075  
      75A      3.009951    76A      3.088658    77A      4.575467  
      78A      4.664213    79A      4.822614    80A      4.970307  

    Final Occupation by Irrep:
              A 
    DOCC [    17 ]

  Energy converged.

  @DF-RHF Final Energy:  -157.28783572283746

   => Energetics <=

    Nuclear Repulsion Energy =            132.5810396886832052
    One-Electron Energy =                -473.1258846482095919
    Two-Electron Energy =                 183.2570092366890719
    DFT Exchange-Correlation Energy =       0.0000000000000000
    Empirical Dispersion Energy =           0.0000000000000000
    PCM Polarization Energy =               0.0000000000000000
    EFP Energy =                            0.0000000000000000
    Total Energy =                       -157.2878357228372863


  Saving occupied orbitals to File 180.

*** tstop() called on lski1497 at Mon Feb 20 17:24:25 2017
Module time:
	user time   =       4.90 seconds =       0.08 minutes
	system time =       0.16 seconds =       0.00 minutes
	total time  =          7 seconds =       0.12 minutes
Total time:
	user time   =       4.90 seconds =       0.08 minutes
	system time =       0.16 seconds =       0.00 minutes
	total time  =          7 seconds =       0.12 minutes


Properties will be evaluated at   0.000000,   0.000000,   0.000000 Bohr

Properties computed using the SCF density matrix

  Nuclear Dipole Moment: (a.u.)
     X:    -0.3719      Y:    -0.1677      Z:     0.3847

  Electronic Dipole Moment: (a.u.)
     X:     0.3949      Y:     0.1771      Z:    -0.4085

  Dipole Moment: (a.u.)
     X:     0.0230      Y:     0.0094      Z:    -0.0238     Total:     0.0344

  Dipole Moment: (Debye)
     X:     0.0585      Y:     0.0238      Z:    -0.0605     Total:     0.0875


  //>>>>>>>>>>>>>>>>>>>>>>>>>>>>>>>>>>>//
  //               DFMP2               //
  //<<<<<<<<<<<<<<<<<<<<<<<<<<<<<<<<<<<//


*** tstart() called on lski1497
*** at Mon Feb 20 17:24:25 2017


*** tstop() called on lski1497 at Mon Feb 20 17:24:25 2017
Module time:
	user time   =       0.53 seconds =       0.01 minutes
	system time =       0.00 seconds =       0.00 minutes
	total time  =          0 seconds =       0.00 minutes
Total time:
	user time   =       5.45 seconds =       0.09 minutes
	system time =       0.16 seconds =       0.00 minutes
	total time  =          7 seconds =       0.12 minutes
	 --------------------------------------------------------
	                          DF-MP2                         
	      2nd-Order Density-Fitted Moller-Plesset Theory     
	              RMP2 Wavefunction,   1 Threads             
	                                                         
	        Rob Parrish, Justin Turney, Andy Simmonett,      
	           Ed Hohenstein, and C. David Sherrill          
	 --------------------------------------------------------

   => Auxiliary Basis Set <=

  Basis Set: 
    Number of shells: 132
    Number of basis function: 364
    Number of Cartesian functions: 414
    Spherical Harmonics?: true
    Max angular momentum: 3

	 --------------------------------------------------------
	                 NBF =    80, NAUX =   364
	 --------------------------------------------------------
	   CLASS    FOCC     OCC    AOCC    AVIR     VIR    FVIR
	   PAIRS       0      17      17      63      63       0
	 --------------------------------------------------------

DGAS Warning! /src/lib/libfock/apps.cc:80 is not currently checking restricted

         ------------------------------------------------------------
                                     CPHF                           
                                  Rob Parrish                       
         ------------------------------------------------------------

  ==> Geometry <==

    Molecular point group: c1
    Full point group: C1

    Geometry (in Angstrom), charge = 0, multiplicity = 1:

       Center              X                  Y                   Z               Mass       
    ------------   -----------------  -----------------  -----------------  -----------------
           H         -2.063170616578     0.171506898981     0.058134294023     1.007825032070
           H         -1.922170616578     1.799506898981    -0.561865705977     1.007825032070
           H         -1.624170616578     0.435506898981    -1.611865705977     1.007825032070
           C         -1.525170616578     0.806506898981    -0.613865705977    12.000000000000
           H          0.501829383422     1.462506898981    -0.891865705977     1.007825032070
           H          0.063829383422     1.199506898981     0.779134294023     1.007825032070
           C         -0.036170616578     0.827506898981    -0.218865705977    12.000000000000
           H         -0.233170616578    -1.276493101019    -0.602865705977     1.007825032070
           H          1.338829383422    -0.626493101019    -0.999865705977     1.007825032070
           C          0.535829383422    -0.600493101019    -0.293865705977    12.000000000000
           H          1.455829383422    -2.009493101019     1.040134294023     1.007825032070
           H          0.256829383422    -0.992493101019     1.799134294023     1.007825032070
           H          1.828829383422    -0.342493101019     1.402134294023     1.007825032070
           C          1.058829383422    -1.018493101019     1.092134294023    12.000000000000

  Nuclear repulsion =  132.581039688683205
  Reference energy  = -157.287835722837457

  ==> Basis Set <==

  Basis Set: 6-31G(D)
    Number of shells: 44
    Number of basis function: 80
    Number of Cartesian functions: 80
    Spherical Harmonics?: false
    Max angular momentum: 2

  ==> CGRSolver (by Rob Parrish) <==

   Number of roots    =         1
   Preconditioning    =    JACOBI
   Convergence cutoff =     1E-06
   Maximum iterations =       100

  ==> CPHFRHamiltonian (by Rob Parrish) <== 

  ==> DFJK: Density-Fitted J/K Matrices <==

    J tasked:                  Yes
    K tasked:                  Yes
    wK tasked:                  No
    OpenMP threads:              1
    Integrals threads:           1
    Memory (MB):               715
    Algorithm:                Core
    Integral Cache:           NONE
    Schwarz Cutoff:          1E-12
    Fitting Condition:       1E-12

   => Auxiliary Basis Set <=

  Basis Set: 
    Number of shells: 186
    Number of basis function: 574
    Number of Cartesian functions: 574
    Spherical Harmonics?: false
    Max angular momentum: 3

  ==> CPHF Iterations <==

  => Iterations <=

             Iter  Converged  Remaining    Residual
  CGR           1          0          1   7.344E-02
  CGR           2          0          1   8.867E-03
  CGR           3          0          1   2.664E-03
  CGR           4          0          1   4.198E-04
  CGR           5          0          1   8.154E-05
  CGR           6          0          1   1.992E-05
  CGR           7          0          1   3.646E-06
  CGR           8          1          0   6.369E-07

    CGRSolver converged.

  ==> DFCorrGrad: Density-Fitted Correlated Gradients <==

    OpenMP threads:              1
    Integrals threads:           1
    Memory (MB):               715
    Schwarz Cutoff:          0E+00
    Fitting Condition:       1E-12

   => Auxiliary Basis Set <=

  Basis Set: 
    Number of shells: 186
    Number of basis function: 510
    Number of Cartesian functions: 574
    Spherical Harmonics?: true
    Max angular momentum: 3

	-----------------------------------------------------------
	 ==================> DF-MP2 Energies <==================== 
	-----------------------------------------------------------
	 Reference Energy          =    -157.2878357228374568 [Eh]
	 Singles Energy            =      -0.0000000000000000 [Eh]
	 Same-Spin Energy          =      -0.1244268521493322 [Eh]
	 Opposite-Spin Energy      =      -0.4204139745379028 [Eh]
	 Correlation Energy        =      -0.5448408266872350 [Eh]
	 Total Energy              =    -157.8326765495247059 [Eh]
	-----------------------------------------------------------
	 ================> DF-SCS-MP2 Energies <================== 
	-----------------------------------------------------------
	 SCS Same-Spin Scale       =       0.3333333333333333 [-]
	 SCS Opposite-Spin Scale   =       1.2000000000000000 [-]
	 SCS Same-Spin Energy      =      -0.0414756173831107 [Eh]
	 SCS Opposite-Spin Energy  =      -0.5044967694454834 [Eh]
	 SCS Correlation Energy    =      -0.5459723868285941 [Eh]
	 SCS Total Energy          =    -157.8338081096660517 [Eh]
	-----------------------------------------------------------


  -Total Gradient:
     Atom            X                  Y                   Z
    ------   -----------------  -----------------  -----------------
       1        0.010444794335     0.009568349438    -0.009233561794
       2        0.010754157261    -0.013709999588     0.000451274534
       3        0.004040395659     0.005577782001     0.015379334397
       4       -0.027200361467    -0.009105060903    -0.008473376133
       5       -0.008056299730    -0.013629094743     0.007385840030
       6       -0.002621828655    -0.009591546057    -0.014471590873
       7        0.021225475713     0.025284513702     0.014922355478
       8        0.009770325963     0.012847615118     0.007504336759
       9       -0.011631950903     0.004824593816     0.012895424957
      10       -0.005238564583    -0.018414906144    -0.030733009666
      11       -0.007699601025     0.016661774898    -0.004017991446
      12        0.011214988207     0.000162558067    -0.012923450633
      13       -0.011605875669    -0.008726360152    -0.006730369257
      14        0.006604344892    -0.001750219453     0.028044783646


			-----------------------------------------
			 OPTKING 2.0: for geometry optimizations 
			  - R.A. King,  Bethel University        
			-----------------------------------------

	Internal coordinates to be generated automatically.
	Detected frag 1 with atoms:  1 2 3 4 5 6 7 8 9 10 11 12 13 14
	---Fragment 1 Bond Connectivity---
	 1 : 4
	 2 : 4
	 3 : 4
	 4 : 1 2 3 7
	 5 : 7
	 6 : 7
	 7 : 4 5 6 10
	 8 : 10
	 9 : 10
	 10 : 7 8 9 14
	 11 : 14
	 12 : 14
	 13 : 14
	 14 : 10 11 12 13

	Assuming in current code that numbering for constraints corresponds to unified fragment.
	Fixed dihedral atom list: 
	     4     7    10    14
	---Fragment 1 Geometry and Gradient---
	 H          -3.8988274307        0.3241010690        0.1098578946
	 H          -3.6323760460        3.4005752133       -1.0617723078
	 H          -3.0692376584        0.8229887681       -3.0459847473
	 C          -2.8821547713        1.5240771634       -1.1600380667
	 H           0.9483201001        2.7637375065       -1.6853819316
	 H           0.1206200539        2.2667395336        1.4723504364
	 C          -0.0683525594        1.5637614121       -0.4135962442
	 H          -0.4406286076       -2.4122223714       -1.1392510792
	 H           2.5300208733       -1.1839003851       -1.8894723540
	 C           1.0125707886       -1.1347675056       -0.5553257041
	 H           2.7511188309       -3.7973916268        1.9655689571
	 H           0.4853371975       -1.8755401497        3.3998710920
	 H           3.4559866784       -0.6472181633        2.6496498172
	 C           2.0008975561       -1.9246730292        2.0638347160
	             0.0104447943        0.0095683494       -0.0092335618
	             0.0107541573       -0.0137099996        0.0004512745
	             0.0040403957        0.0055777820        0.0153793344
	            -0.0272003615       -0.0091050609       -0.0084733761
	            -0.0080562997       -0.0136290947        0.0073858400
	            -0.0026218287       -0.0095915461       -0.0144715909
	             0.0212254757        0.0252845137        0.0149223555
	             0.0097703260        0.0128476151        0.0075043368
	            -0.0116319509        0.0048245938        0.0128954250
	            -0.0052385646       -0.0184149061       -0.0307330097
	            -0.0076996010        0.0166617749       -0.0040179914
	             0.0112149882        0.0001625581       -0.0129234506
	            -0.0116058757       -0.0087263602       -0.0067303693
	             0.0066043449       -0.0017502195        0.0280447836

	Previous optimization step data not found.  Starting new optimization.

	---Fragment 1 Intrafragment Coordinates---
	 - Coordinate -           - BOHR/RAD -       - ANG/DEG -
	 R(1,4)           =         2.021436	       1.069698
	 R(2,4)           =         2.023298	       1.070683
	 R(3,4)           =         2.020723	       1.069320
	 R(4,7)           =         2.911397	       1.540645
	 R(5,7)           =         2.022623	       1.070326
	 R(6,7)           =         2.021555	       1.069761
	 R(7,10)          =         2.910419	       1.540128
	 R(8,10)          =         2.021051	       1.069494
	 R(9,10)          =         2.021142	       1.069542
	 R(10,14)         =         2.908735	       1.539236
	 R(11,14)         =         2.019793	       1.068828
	 R(12,14)         =         2.020973	       1.069453
	 R(13,14)         =         2.022957	       1.070503
	 B(1,4,2)         =         1.910870	     109.484805
	 B(1,4,3)         =         1.911121	     109.499161
	 B(1,4,7)         =         1.910399	     109.457783
	 B(2,4,3)         =         1.910042	     109.437340
	 B(2,4,7)         =         1.910564	     109.467262
	 B(3,4,7)         =         1.910803	     109.480971
	 B(4,7,5)         =         1.909937	     109.431343
	 B(4,7,6)         =         1.911630	     109.528316
	 B(4,7,10)        =         1.911154	     109.501062
	 B(5,7,6)         =         1.910605	     109.469614
	 B(5,7,10)        =         1.910047	     109.437654
	 B(6,7,10)        =         1.910425	     109.459295
	 B(7,10,8)        =         1.910364	     109.455816
	 B(7,10,9)        =         1.910837	     109.482906
	 B(7,10,14)       =         1.911485	     109.520015
	 B(8,10,9)        =         1.911085	     109.497105
	 B(8,10,14)       =         1.910091	     109.440145
	 B(9,10,14)       =         1.909937	     109.431337
	 B(10,14,11)      =         1.911538	     109.523084
	 B(10,14,12)      =         1.911197	     109.503507
	 B(10,14,13)      =         1.910987	     109.491497
	 B(11,14,12)      =         1.910544	     109.466094
	 B(11,14,13)      =         1.909661	     109.415539
	 B(12,14,13)      =         1.909871	     109.427523
	 D(1,4,7,5)       =         3.140997	     179.965873
	 D(1,4,7,6)       =        -1.047644	     -60.025575
	 D(1,4,7,10)      =         1.047427	      60.013132
	 D(2,4,7,5)       =        -1.047689	     -60.028143
	 D(2,4,7,6)       =         1.046856	      59.980409
	 D(2,4,7,10)      =        -3.141259	    -179.980883
	 D(3,4,7,5)       =         1.046044	      59.933911
	 D(3,4,7,6)       =         3.140588	     179.942463
	 D(3,4,7,10)      =        -1.047526	     -60.018830
	 D(4,7,10,8)      =        -0.000019	      -0.001086
	 D(4,7,10,9)      =         2.094890	     120.028337
	 D(4,7,10,14)     =        -2.094106	    -119.983464
	 D(5,7,10,8)      =        -2.093522	    -119.949962
	 D(5,7,10,9)      =         0.001387	       0.079461
	 D(5,7,10,14)     =         2.095576	     120.067660
	 D(6,7,10,8)      =         2.095789	     120.079839
	 D(6,7,10,9)      =        -2.092488	    -119.890737
	 D(6,7,10,14)     =         0.001701	       0.097462
	 D(7,10,14,11)    =        -3.141564	    -179.998331
	 D(7,10,14,12)    =         1.046435	      59.956338
	 D(7,10,14,13)    =        -1.047587	     -60.022338
	 D(8,10,14,11)    =         1.047367	      60.009703
	 D(8,10,14,12)    =        -1.047819	     -60.035629
	 D(8,10,14,13)    =         3.141343	     179.985696
	 D(9,10,14,11)    =        -1.046824	     -59.978581
	 D(9,10,14,12)    =         3.141175	     179.976087
	 D(9,10,14,13)    =         1.047152	      59.997411

	Current energy   :      -157.8326765495

	Generating empirical Hessian (Schlegel '84) for each fragment.
	Adding user-defined constraint: Fragment 1; Coordinate 49:
		Value =    -2.094106; Fixed value    =    -2.094395
		Force =    -0.000144; Force constant =     0.500000
	Removing off-diagonal coupling between coordinate 49 and others.
	Taking RFO optimization step.
	Going to follow RFO solution 1.
	Using RFO vector 1.

	Determining step-restricting scale parameter for RS-RFO.
	Maximum step size allowed    0.10000

	 Iter      |step|        alpha        rfo_root  
	------------------------------------------------
	    0     0.23586       1.00000           1
	    1     0.17300       6.54259           1
	    2     0.13231      18.87411           1
	    3     0.10972      35.19013           1
	    4     0.10129      44.97815           1
	    5     0.10003      46.70476           1
	    6     0.10000      46.74391           1
	------------------------------------------------
	Norm of target step-size    0.10000
	Projected energy change by RFO approximation:        -0.0053409921

	Back-transformation to cartesian coordinates...
	Successfully converged to displaced geometry.

	--- Internal Coordinate Step in ANG or DEG, aJ/ANG or AJ/DEG ---
	 ---------------------------------------------------------------------------
	   Coordinate                Previous        Force       Change         New 
	   ----------                --------       ------       ------       ------
	    1 R(1,4)          =      1.069698     0.137866     0.013793     1.083491
	    2 R(2,4)          =      1.070683     0.137429     0.013776     1.084459
	    3 R(3,4)          =      1.069320     0.137281     0.013725     1.083045
	    4 R(4,7)          =      1.540645    -0.020438    -0.002370     1.538275
	    5 R(5,7)          =      1.070326     0.138241     0.013848     1.084174
	    6 R(6,7)          =      1.069761     0.140728     0.014081     1.083842
	    7 R(7,10)         =      1.540128     0.066696     0.007727     1.547855
	    8 R(8,10)         =      1.069494     0.142645     0.014266     1.083760
	    9 R(9,10)         =      1.069542     0.143046     0.014307     1.083850
	   10 R(10,14)        =      1.539236    -0.014078    -0.001629     1.537608
	   11 R(11,14)        =      1.068828     0.149227     0.014904     1.083733
	   12 R(12,14)        =      1.069453     0.139645     0.013965     1.083417
	   13 R(13,14)        =      1.070503     0.130234     0.013050     1.083553
	   14 B(1,4,2)        =    109.484805    -0.000290    -0.507958   108.976847
	   15 B(1,4,3)        =    109.499161    -0.000191    -0.357664   109.141497
	   16 B(1,4,7)        =    109.457783     0.000132     0.225321   109.683103
	   17 B(2,4,3)        =    109.437340    -0.000287    -0.492866   108.944474
	   18 B(2,4,7)        =    109.467262     0.000489     0.871343   110.338605
	   19 B(3,4,7)        =    109.480971     0.000147     0.250865   109.731837
	   20 B(4,7,5)        =    109.431343    -0.000252    -0.402234   109.029109
	   21 B(4,7,6)        =    109.528316    -0.000230    -0.370186   109.158130
	   22 B(4,7,10)       =    109.501062     0.000736     1.195958   110.697020
	   23 B(5,7,6)        =    109.469614    -0.000053    -0.275709   109.193905
	   24 B(5,7,10)       =    109.437654    -0.000065    -0.005722   109.431932
	   25 B(6,7,10)       =    109.459295    -0.000137    -0.151053   109.308241
	   26 B(7,10,8)       =    109.455816    -0.000139    -0.155676   109.300140
	   27 B(7,10,9)       =    109.482906    -0.000069    -0.015588   109.467319
	   28 B(7,10,14)      =    109.520015     0.000733     1.191343   110.711359
	   29 B(8,10,9)       =    109.497105    -0.000056    -0.281981   109.215123
	   30 B(8,10,14)      =    109.440145    -0.000220    -0.349960   109.090185
	   31 B(9,10,14)      =    109.431337    -0.000249    -0.397150   109.034187
	   32 B(10,14,11)     =    109.523084     0.000482     0.858215   110.381300
	   33 B(10,14,12)     =    109.503507     0.000124     0.212693   109.716200
	   34 B(10,14,13)     =    109.491497     0.000149     0.254396   109.745893
	   35 B(11,14,12)     =    109.466094    -0.000285    -0.498254   108.967840
	   36 B(11,14,13)     =    109.415539    -0.000285    -0.490071   108.925468
	   37 B(12,14,13)     =    109.427523    -0.000187    -0.349644   109.077879
	   38 D(1,4,7,5)      =    179.965873     0.000036     0.347044   180.312916
	   39 D(1,4,7,6)      =    -60.025575    -0.000046    -0.453359   -60.478934
	   40 D(1,4,7,10)     =     60.013132    -0.000013    -0.131304    59.881829
	   41 D(2,4,7,5)      =    -60.028143     0.000042     0.402455   -59.625688
	   42 D(2,4,7,6)      =     59.980409    -0.000041    -0.397948    59.582462
	   43 D(2,4,7,10)     =   -179.980883    -0.000008    -0.075892  -180.056775
	   44 D(3,4,7,5)      =     59.933911     0.000051     0.492698    60.426609
	   45 D(3,4,7,6)      =    179.942463    -0.000032    -0.307704   179.634758
	   46 D(3,4,7,10)     =    -60.018830     0.000001     0.014351   -60.004479
	   47 D(4,7,10,8)     =     -0.001086     0.000023     0.225749     0.224662
	   48 D(4,7,10,9)     =    120.028337    -0.000022    -0.223271   119.805066
	   49 D(4,7,10,14)    =   -119.983464     0.000001     0.017318  -119.966146
	   50 D(5,7,10,8)     =   -119.949962    -0.000001    -0.016099  -119.966061
	   51 D(5,7,10,9)     =      0.079461    -0.000046    -0.465118    -0.385657
	   52 D(5,7,10,14)    =    120.067660    -0.000022    -0.224530   119.843131
	   53 D(6,7,10,8)     =    120.079839     0.000042     0.416020   120.495859
	   54 D(6,7,10,9)     =   -119.890737    -0.000002    -0.033000  -119.923737
	   55 D(6,7,10,14)    =      0.097462     0.000021     0.207589     0.305051
	   56 D(7,10,14,11)   =   -179.998331    -0.000007    -0.071867  -180.070198
	   57 D(7,10,14,12)   =     59.956338    -0.000013    -0.124680    59.831658
	   58 D(7,10,14,13)   =    -60.022338     0.000001     0.016713   -60.005625
	   59 D(8,10,14,11)   =     60.009703    -0.000040    -0.396028    59.613674
	   60 D(8,10,14,12)   =    -60.035629    -0.000046    -0.448841   -60.484470
	   61 D(8,10,14,13)   =    179.985696    -0.000032    -0.307448   179.678247
	   62 D(9,10,14,11)   =    -59.978581     0.000041     0.395428   -59.583154
	   63 D(9,10,14,12)   =    179.976087     0.000036     0.342615   180.318702
	   64 D(9,10,14,13)   =     59.997411     0.000050     0.484008    60.481419
	 ---------------------------------------------------------------------------
	 Forces used to impose fixed constraints are not included.
	  Forces zeroed: 49 

  ==> Convergence Check <==

  Measures of convergence in internal coordinates in au.
  Criteria marked as inactive (o), active & met (*), and active & unmet ( ).
  --------------------------------------------------------------------------------------------- ~
   Step     Total Energy     Delta E     MAX Force     RMS Force      MAX Disp      RMS Disp    ~
  --------------------------------------------------------------------------------------------- ~
    Convergence Criteria    1.00e-06 *    3.00e-04 *             o    1.20e-03 *             o  ~
  --------------------------------------------------------------------------------------------- ~
      1    -157.83267655   -1.58e+02      1.81e-02      7.33e-03 o    2.82e-02      1.25e-02 o  ~
  ---------------------------------------------------------------------------------------------

	Writing optimization data to binary file.
	Structure for next step:
	Cartesian Geometry (in Angstrom)
	    H    -2.0895672641   0.1736471931   0.0523354176
	    H    -1.9484878292   1.8108572693  -0.5909629410
	    H    -1.6391844571   0.4239356032  -1.6361599589
	    C    -1.5359605186   0.8086473445  -0.6290213518
	    H     0.4919705061   1.4685494305  -0.9141331347
	    H     0.0425340111   1.2186300117   0.7765304671
	    C    -0.0505691819   0.8263579087  -0.2295352393
	    H    -0.2211158803  -1.2994613516  -0.5915888138
	    H     1.3626954049  -0.6261054877  -0.9923136495
	    C     0.5464612908  -0.6008405809  -0.2796751418
	    H     1.4901327453  -2.0183058339   1.0618394832
	    H     0.2656284556  -1.0022014775   1.8231977444
	    H     1.8474489690  -0.3293862748   1.4226281357
	    C     1.0746251164  -1.0182271689   1.1027390991
			--------------------------
			 OPTKING Finished Execution 
			--------------------------

    Structure for next step:
    Molecular point group: c1
    Full point group: C1

    Geometry (in Angstrom), charge = 0, multiplicity = 1:

    H           -2.089801796059     0.173474979551     0.052530324461
    H           -1.948722361160     1.810685055750    -0.590768034072
    H           -1.639418989099     0.423763389636    -1.635965052040
    C           -1.536195050572     0.808475130918    -0.628826444942
    H            0.491735974161     1.468377216935    -0.913938227771
    H            0.042299479113     1.218457798096     0.776725373999
    C           -0.050803713907     0.826185695174    -0.229340332412
    H           -0.221350412280    -1.299633565167    -0.591393906939
    H            1.362460872979    -0.626277701298    -0.992118742582
    C            0.546226758873    -0.601012794428    -0.279480234898
    H            1.489898213364    -2.018478047484     1.062034390064
    H            0.265393923641    -1.002373691023     1.823392651314
    H            1.847214437033    -0.329558488387     1.422823042631
    C            1.074390584401    -1.018399382488     1.102934005957

gradient() will perform analytic gradient computation.
    SCF Algorithm Type (re)set to DF.

*** tstart() called on lski1497
*** at Mon Feb 20 17:24:46 2017


         ---------------------------------------------------------
                                   SCF
            by Justin Turney, Rob Parrish, and Andy Simmonett
                              RHF Reference
                        1 Threads,   1000 MiB Core
         ---------------------------------------------------------

  ==> Geometry <==

    Molecular point group: c1
    Full point group: C1

    Geometry (in Angstrom), charge = 0, multiplicity = 1:

       Center              X                  Y                   Z               Mass       
    ------------   -----------------  -----------------  -----------------  -----------------
           H         -2.089801796059     0.173474979551     0.052530324461     1.007825032070
           H         -1.948722361160     1.810685055750    -0.590768034072     1.007825032070
           H         -1.639418989099     0.423763389636    -1.635965052040     1.007825032070
           C         -1.536195050572     0.808475130918    -0.628826444942    12.000000000000
           H          0.491735974161     1.468377216935    -0.913938227771     1.007825032070
           H          0.042299479113     1.218457798096     0.776725373999     1.007825032070
           C         -0.050803713907     0.826185695174    -0.229340332412    12.000000000000
           H         -0.221350412280    -1.299633565167    -0.591393906939     1.007825032070
           H          1.362460872979    -0.626277701298    -0.992118742582     1.007825032070
           C          0.546226758873    -0.601012794428    -0.279480234898    12.000000000000
           H          1.489898213364    -2.018478047484     1.062034390064     1.007825032070
           H          0.265393923641    -1.002373691023     1.823392651314     1.007825032070
           H          1.847214437033    -0.329558488387     1.422823042631     1.007825032070
           C          1.074390584401    -1.018399382488     1.102934005957    12.000000000000

  Running in c1 symmetry.

  Rotational constants: A =      0.59084  B =      0.12871  C =      0.12870 [cm^-1]
  Rotational constants: A =  17712.82449  B =   3858.66361  C =   3858.42625 [MHz]
  Nuclear repulsion =  131.597450983860710

  Charge       = 0
  Multiplicity = 1
  Electrons    = 34
  Nalpha       = 17
  Nbeta        = 17

  ==> Algorithm <==

  SCF Algorithm Type is DF.
  DIIS enabled.
  MOM disabled.
  Fractional occupation disabled.
  Guess Type is READ.
  Energy threshold   = 1.00e-10
  Density threshold  = 1.00e-10
  Integral threshold = 0.00e+00

  ==> Primary Basis <==

  Basis Set: 6-31G(D)
    Number of shells: 44
    Number of basis function: 80
    Number of Cartesian functions: 80
    Spherical Harmonics?: false
    Max angular momentum: 2

  ==> Pre-Iterations <==

   -------------------------------------------------------
    Irrep   Nso     Nmo     Nalpha   Nbeta   Ndocc  Nsocc
   -------------------------------------------------------
     A         80      80       0       0       0       0
   -------------------------------------------------------
    Total      80      80      17      17      17       0
   -------------------------------------------------------

  ==> Integral Setup <==

  ==> DFJK: Density-Fitted J/K Matrices <==

    J tasked:                  Yes
    K tasked:                  Yes
    wK tasked:                  No
    OpenMP threads:              1
    Integrals threads:           1
    Memory (MB):               715
    Algorithm:                Core
    Integral Cache:           NONE
    Schwarz Cutoff:          1E-12
    Fitting Condition:       1E-12

   => Auxiliary Basis Set <=

  Basis Set: 
    Number of shells: 186
    Number of basis function: 574
    Number of Cartesian functions: 574
    Spherical Harmonics?: false
    Max angular momentum: 3

  Minimum eigenvalue in the overlap matrix is 4.9541488172E-03.
  Using Symmetric Orthogonalization.
  SCF Guess was Projection but file not found.
  Switching over to SAD guess.

  SCF Guess: Superposition of Atomic Densities via on-the-fly atomic UHF.

  ==> Iterations <==

                           Total Energy        Delta E     RMS |[F,P]|

   @DF-RHF iter   0:  -158.85129651816487   -1.58851e+02   4.63661e-02 
   @DF-RHF iter   1:  -157.20137652723764    1.64992e+00   3.93683e-03 
   @DF-RHF iter   2:  -157.28224156320317   -8.08650e-02   1.10697e-03 DIIS
   @DF-RHF iter   3:  -157.29044716836444   -8.20561e-03   2.59630e-04 DIIS
   @DF-RHF iter   4:  -157.29082294276299   -3.75774e-04   8.05621e-05 DIIS
   @DF-RHF iter   5:  -157.29086017579988   -3.72330e-05   1.39259e-05 DIIS
   @DF-RHF iter   6:  -157.29086162995787   -1.45416e-06   2.62953e-06 DIIS
   @DF-RHF iter   7:  -157.29086166682924   -3.68714e-08   7.86834e-07 DIIS
   @DF-RHF iter   8:  -157.29086167033375   -3.50451e-09   1.47613e-07 DIIS
   @DF-RHF iter   9:  -157.29086167051486   -1.81103e-10   3.51166e-08 DIIS
   @DF-RHF iter  10:  -157.29086167052498   -1.01181e-11   6.09230e-09 DIIS
   @DF-RHF iter  11:  -157.29086167052554   -5.68434e-13   1.51686e-09 DIIS
   @DF-RHF iter  12:  -157.29086167052554    0.00000e+00   4.45928e-10 DIIS
   @DF-RHF iter  13:  -157.29086167052554    0.00000e+00   8.15743e-11 DIIS

  ==> Post-Iterations <==

    Orbital Energies (a.u.)
    -----------------------

    Doubly Occupied:                                                      

       1A    -11.211737     2A    -11.211182     3A    -11.206692  
       4A    -11.206581     5A     -1.067687     6A     -0.977889  
       7A     -0.860927     8A     -0.787835     9A     -0.634033  
      10A     -0.601796    11A     -0.580424    12A     -0.551739  
      13A     -0.511135    14A     -0.507624    15A     -0.467443  
      16A     -0.460213    17A     -0.446197  

    Virtual:                                                              

      18A      0.232790    19A      0.269931    20A      0.286660  
      21A      0.294782    22A      0.318366    23A      0.326548  
      24A      0.331696    25A      0.340841    26A      0.347176  
      27A      0.356476    28A      0.411464    29A      0.447426  
      30A      0.454311    31A      0.714101    32A      0.725986  
      33A      0.735604    34A      0.790458    35A      0.806562  
      36A      0.816026    37A      0.831628    38A      0.933948  
      39A      0.938264    40A      0.996047    41A      1.058699  
      42A      1.098804    43A      1.163589    44A      1.165263  
      45A      1.178104    46A      1.197127    47A      1.197231  
      48A      1.212800    49A      1.239384    50A      1.243938  
      51A      1.255815    52A      1.261516    53A      1.270912  
      54A      1.446106    55A      1.676666    56A      1.737773  
      57A      1.776926    58A      1.906850    59A      2.000972  
      60A      2.075819    61A      2.190350    62A      2.233888  
      63A      2.276439    64A      2.304635    65A      2.358244  
      66A      2.447582    67A      2.494903    68A      2.615653  
      69A      2.648445    70A      2.656048    71A      2.719068  
      72A      2.738564    73A      2.774639    74A      2.888181  
      75A      3.007478    76A      3.077393    77A      4.561769  
      78A      4.655292    79A      4.816063    80A      4.962978  

    Final Occupation by Irrep:
              A 
    DOCC [    17 ]

  Energy converged.

  @DF-RHF Final Energy:  -157.29086167052554

   => Energetics <=

    Nuclear Repulsion Energy =            131.5974509838607105
    One-Electron Energy =                -471.1943561977863624
    Two-Electron Energy =                 182.3060435434001363
    DFT Exchange-Correlation Energy =       0.0000000000000000
    Empirical Dispersion Energy =           0.0000000000000000
    PCM Polarization Energy =               0.0000000000000000
    EFP Energy =                            0.0000000000000000
    Total Energy =                       -157.2908616705255156


  Saving occupied orbitals to File 180.

*** tstop() called on lski1497 at Mon Feb 20 17:24:53 2017
Module time:
	user time   =       4.85 seconds =       0.08 minutes
	system time =       0.14 seconds =       0.00 minutes
	total time  =          7 seconds =       0.12 minutes
Total time:
	user time   =      27.15 seconds =       0.45 minutes
	system time =       0.80 seconds =       0.01 minutes
	total time  =         35 seconds =       0.58 minutes


Properties will be evaluated at   0.000000,   0.000000,   0.000000 Bohr

Properties computed using the SCF density matrix

  Nuclear Dipole Moment: (a.u.)
     X:    -0.3753      Y:    -0.1702      Z:     0.3875

  Electronic Dipole Moment: (a.u.)
     X:     0.3963      Y:     0.1794      Z:    -0.4092

  Dipole Moment: (a.u.)
     X:     0.0211      Y:     0.0092      Z:    -0.0218     Total:     0.0317

  Dipole Moment: (Debye)
     X:     0.0536      Y:     0.0234      Z:    -0.0553     Total:     0.0805


  //>>>>>>>>>>>>>>>>>>>>>>>>>>>>>>>>>>>//
  //               DFMP2               //
  //<<<<<<<<<<<<<<<<<<<<<<<<<<<<<<<<<<<//


*** tstart() called on lski1497
*** at Mon Feb 20 17:24:53 2017


*** tstop() called on lski1497 at Mon Feb 20 17:24:54 2017
Module time:
	user time   =       0.51 seconds =       0.01 minutes
	system time =       0.00 seconds =       0.00 minutes
	total time  =          1 seconds =       0.02 minutes
Total time:
	user time   =      27.68 seconds =       0.46 minutes
	system time =       0.80 seconds =       0.01 minutes
	total time  =         36 seconds =       0.60 minutes
	 --------------------------------------------------------
	                          DF-MP2                         
	      2nd-Order Density-Fitted Moller-Plesset Theory     
	              RMP2 Wavefunction,   1 Threads             
	                                                         
	        Rob Parrish, Justin Turney, Andy Simmonett,      
	           Ed Hohenstein, and C. David Sherrill          
	 --------------------------------------------------------

   => Auxiliary Basis Set <=

  Basis Set: 
    Number of shells: 132
    Number of basis function: 364
    Number of Cartesian functions: 414
    Spherical Harmonics?: true
    Max angular momentum: 3

	 --------------------------------------------------------
	                 NBF =    80, NAUX =   364
	 --------------------------------------------------------
	   CLASS    FOCC     OCC    AOCC    AVIR     VIR    FVIR
	   PAIRS       0      17      17      63      63       0
	 --------------------------------------------------------

DGAS Warning! /src/lib/libfock/apps.cc:80 is not currently checking restricted

         ------------------------------------------------------------
                                     CPHF                           
                                  Rob Parrish                       
         ------------------------------------------------------------

  ==> Geometry <==

    Molecular point group: c1
    Full point group: C1

    Geometry (in Angstrom), charge = 0, multiplicity = 1:

       Center              X                  Y                   Z               Mass       
    ------------   -----------------  -----------------  -----------------  -----------------
           H         -2.089801796059     0.173474979551     0.052530324461     1.007825032070
           H         -1.948722361160     1.810685055750    -0.590768034072     1.007825032070
           H         -1.639418989099     0.423763389636    -1.635965052040     1.007825032070
           C         -1.536195050572     0.808475130918    -0.628826444942    12.000000000000
           H          0.491735974161     1.468377216935    -0.913938227771     1.007825032070
           H          0.042299479113     1.218457798096     0.776725373999     1.007825032070
           C         -0.050803713907     0.826185695174    -0.229340332412    12.000000000000
           H         -0.221350412280    -1.299633565167    -0.591393906939     1.007825032070
           H          1.362460872979    -0.626277701298    -0.992118742582     1.007825032070
           C          0.546226758873    -0.601012794428    -0.279480234898    12.000000000000
           H          1.489898213364    -2.018478047484     1.062034390064     1.007825032070
           H          0.265393923641    -1.002373691023     1.823392651314     1.007825032070
           H          1.847214437033    -0.329558488387     1.422823042631     1.007825032070
           C          1.074390584401    -1.018399382488     1.102934005957    12.000000000000

  Nuclear repulsion =  131.597450983860710
  Reference energy  = -157.290861670525544

  ==> Basis Set <==

  Basis Set: 6-31G(D)
    Number of shells: 44
    Number of basis function: 80
    Number of Cartesian functions: 80
    Spherical Harmonics?: false
    Max angular momentum: 2

  ==> CGRSolver (by Rob Parrish) <==

   Number of roots    =         1
   Preconditioning    =    JACOBI
   Convergence cutoff =     1E-06
   Maximum iterations =       100

  ==> CPHFRHamiltonian (by Rob Parrish) <== 

  ==> DFJK: Density-Fitted J/K Matrices <==

    J tasked:                  Yes
    K tasked:                  Yes
    wK tasked:                  No
    OpenMP threads:              1
    Integrals threads:           1
    Memory (MB):               715
    Algorithm:                Core
    Integral Cache:           NONE
    Schwarz Cutoff:          1E-12
    Fitting Condition:       1E-12

   => Auxiliary Basis Set <=

  Basis Set: 
    Number of shells: 186
    Number of basis function: 574
    Number of Cartesian functions: 574
    Spherical Harmonics?: false
    Max angular momentum: 3

  ==> CPHF Iterations <==

  => Iterations <=

             Iter  Converged  Remaining    Residual
  CGR           1          0          1   7.376E-02
  CGR           2          0          1   8.959E-03
  CGR           3          0          1   2.684E-03
  CGR           4          0          1   4.202E-04
  CGR           5          0          1   8.223E-05
  CGR           6          0          1   1.988E-05
  CGR           7          0          1   3.564E-06
  CGR           8          1          0   6.342E-07

    CGRSolver converged.

  ==> DFCorrGrad: Density-Fitted Correlated Gradients <==

    OpenMP threads:              1
    Integrals threads:           1
    Memory (MB):               715
    Schwarz Cutoff:          0E+00
    Fitting Condition:       1E-12

   => Auxiliary Basis Set <=

  Basis Set: 
    Number of shells: 186
    Number of basis function: 510
    Number of Cartesian functions: 574
    Spherical Harmonics?: true
    Max angular momentum: 3

	-----------------------------------------------------------
	 ==================> DF-MP2 Energies <==================== 
	-----------------------------------------------------------
	 Reference Energy          =    -157.2908616705255440 [Eh]
	 Singles Energy            =      -0.0000000000000000 [Eh]
	 Same-Spin Energy          =      -0.1242750083264855 [Eh]
	 Opposite-Spin Energy      =      -0.4216819339675734 [Eh]
	 Correlation Energy        =      -0.5459569422940589 [Eh]
	 Total Energy              =    -157.8368186128195987 [Eh]
	-----------------------------------------------------------
	 ================> DF-SCS-MP2 Energies <================== 
	-----------------------------------------------------------
	 SCS Same-Spin Scale       =       0.3333333333333333 [-]
	 SCS Opposite-Spin Scale   =       1.2000000000000000 [-]
	 SCS Same-Spin Energy      =      -0.0414250027754952 [Eh]
	 SCS Opposite-Spin Energy  =      -0.5060183207610880 [Eh]
	 SCS Correlation Energy    =      -0.5474433235365832 [Eh]
	 SCS Total Energy          =    -157.8383049940621277 [Eh]
	-----------------------------------------------------------


  -Total Gradient:
     Atom            X                  Y                   Z
    ------   -----------------  -----------------  -----------------
       1        0.005203220850     0.003825622963    -0.003006741142
       2        0.005193118111    -0.004822177155     0.000505488533
       3        0.002797391869     0.002411318512     0.006069564445
       4       -0.016011046182    -0.005374668580    -0.005143879258
       5       -0.003693771027    -0.007135812899     0.000962653551
       6       -0.002205257288    -0.005895284000    -0.005191439085
       7        0.012356766485     0.016952835342     0.009391181165
       8        0.002652317172     0.006090962611     0.004910039764
       9       -0.003445886851     0.003924549930     0.006405272824
      10       -0.002832008556    -0.012730623481    -0.018875496701
      11       -0.003181719662     0.006297298166    -0.002689378596
      12        0.003764075404     0.000216896096    -0.006098598659
      13       -0.004664002170    -0.003139299716    -0.003803325576
      14        0.004066801845    -0.000621617789     0.016564658737


			-----------------------------------------
			 OPTKING 2.0: for geometry optimizations 
			  - R.A. King,  Bethel University        
			-----------------------------------------

	Previous internal coordinate definitions found.
	---Fragment 1 Geometry and Gradient---
	 H          -3.9491530666        0.3278202023        0.0992679269
	 H          -3.6825515716        3.4216988683       -1.1163897925
	 H          -3.0980529064        0.8007967516       -3.0915259113
	 C          -2.9029879323        1.5277965827       -1.1883097661
	 H           0.9292463209        2.7748307998       -1.7270929529
	 H           0.0799344311        2.3025515429        1.4677982373
	 C          -0.0960051058        1.5612646988       -0.4333904195
	 H          -0.4182916586       -2.4559515113       -1.1175725208
	 H           2.5746779167       -1.1834933386       -1.8748327148
	 C           1.0322189807       -1.1357495838       -0.5281411035
	 H           2.8154995891       -3.8143707150        2.0069541409
	 H           0.5015218330       -1.8942117588        3.4457127437
	 H           3.4907293947       -0.6227752878        2.6887458861
	 C           2.0303039643       -1.9244959268        2.0842432139
	             0.0052032208        0.0038256230       -0.0030067411
	             0.0051931181       -0.0048221772        0.0005054885
	             0.0027973919        0.0024113185        0.0060695644
	            -0.0160110462       -0.0053746686       -0.0051438793
	            -0.0036937710       -0.0071358129        0.0009626536
	            -0.0022052573       -0.0058952840       -0.0051914391
	             0.0123567665        0.0169528353        0.0093911812
	             0.0026523172        0.0060909626        0.0049100398
	            -0.0034458869        0.0039245499        0.0064052728
	            -0.0028320086       -0.0127306235       -0.0188754967
	            -0.0031817197        0.0062972982       -0.0026893786
	             0.0037640754        0.0002168961       -0.0060985987
	            -0.0046640022       -0.0031392997       -0.0038033256
	             0.0040668018       -0.0006216178        0.0165646587

	---Fragment 1 Intrafragment Coordinates---
	 - Coordinate -           - BOHR/RAD -       - ANG/DEG -
	 R(1,4)           =         2.047501	       1.083491
	 R(2,4)           =         2.049331	       1.084459
	 R(3,4)           =         2.046658	       1.083045
	 R(4,7)           =         2.906919	       1.538275
	 R(5,7)           =         2.048792	       1.084174
	 R(6,7)           =         2.048165	       1.083842
	 R(7,10)          =         2.925022	       1.547855
	 R(8,10)          =         2.048010	       1.083760
	 R(9,10)          =         2.048179	       1.083850
	 R(10,14)         =         2.905658	       1.537608
	 R(11,14)         =         2.047958	       1.083733
	 R(12,14)         =         2.047362	       1.083417
	 R(13,14)         =         2.047619	       1.083553
	 B(1,4,2)         =         1.902005	     108.976847
	 B(1,4,3)         =         1.904878	     109.141497
	 B(1,4,7)         =         1.914331	     109.683103
	 B(2,4,3)         =         1.901440	     108.944474
	 B(2,4,7)         =         1.925772	     110.338605
	 B(3,4,7)         =         1.915182	     109.731837
	 B(4,7,5)         =         1.902917	     109.029109
	 B(4,7,6)         =         1.905169	     109.158130
	 B(4,7,10)        =         1.932027	     110.697020
	 B(5,7,6)         =         1.905793	     109.193905
	 B(5,7,10)        =         1.909948	     109.431932
	 B(6,7,10)        =         1.907789	     109.308241
	 B(7,10,8)        =         1.907647	     109.300140
	 B(7,10,9)        =         1.910565	     109.467319
	 B(7,10,14)       =         1.932278	     110.711359
	 B(8,10,9)        =         1.906163	     109.215123
	 B(8,10,14)       =         1.903983	     109.090185
	 B(9,10,14)       =         1.903006	     109.034187
	 B(10,14,11)      =         1.926517	     110.381300
	 B(10,14,12)      =         1.914909	     109.716200
	 B(10,14,13)      =         1.915427	     109.745893
	 B(11,14,12)      =         1.901848	     108.967840
	 B(11,14,13)      =         1.901108	     108.925468
	 B(12,14,13)      =         1.903768	     109.077879
	 D(1,4,7,5)       =        -3.136131	    -179.687084
	 D(1,4,7,6)       =        -1.055557	     -60.478934
	 D(1,4,7,10)      =         1.045135	      59.881829
	 D(2,4,7,5)       =        -1.040665	     -59.625688
	 D(2,4,7,6)       =         1.039910	      59.582462
	 D(2,4,7,10)      =         3.140602	     179.943225
	 D(3,4,7,5)       =         1.054643	      60.426609
	 D(3,4,7,6)       =         3.135218	     179.634758
	 D(3,4,7,10)      =        -1.047276	     -60.004479
	 D(4,7,10,8)      =         0.003921	       0.224662
	 D(4,7,10,9)      =         2.090993	     119.805066
	 D(4,7,10,14)     =        -2.093804	    -119.966146
	 D(5,7,10,8)      =        -2.093803	    -119.966061
	 D(5,7,10,9)      =        -0.006731	      -0.385657
	 D(5,7,10,14)     =         2.091657	     119.843131
	 D(6,7,10,8)      =         2.103049	     120.495859
	 D(6,7,10,9)      =        -2.093064	    -119.923737
	 D(6,7,10,14)     =         0.005324	       0.305051
	 D(7,10,14,11)    =         3.140367	     179.929802
	 D(7,10,14,12)    =         1.044259	      59.831658
	 D(7,10,14,13)    =        -1.047296	     -60.005625
	 D(8,10,14,11)    =         1.040455	      59.613674
	 D(8,10,14,12)    =        -1.055653	     -60.484470
	 D(8,10,14,13)    =         3.135977	     179.678247
	 D(9,10,14,11)    =        -1.039922	     -59.583154
	 D(9,10,14,12)    =        -3.136030	    -179.681298
	 D(9,10,14,13)    =         1.055600	      60.481419

	Current energy   :      -157.8368186128

	Energy change for the previous step:
		Projected    :        -0.0053409921
		Actual       :        -0.0041420633

	Performing BFGS update.
	Previous computed or guess Hessian on step 1.
	Steps to be used in Hessian update: 1
	Adding user-defined constraint: Fragment 1; Coordinate 49:
		Value =    -2.093804; Fixed value    =    -2.094400
		Force =    -0.000313; Force constant =     0.525000
	Removing off-diagonal coupling between coordinate 49 and others.
	Taking RFO optimization step.
	Going to follow RFO solution 1.
	Using RFO vector 1.

	Determining step-restricting scale parameter for RS-RFO.
	Maximum step size allowed    0.10000

	 Iter      |step|        alpha        rfo_root  
	------------------------------------------------
	    0     0.17870       1.00000           1
	    1     0.13915       7.69213           1
	    2     0.11299      18.47431           1
	    3     0.10224      26.28586           1
	    4     0.10009      28.23901           1
	    5     0.10000      28.32117           1
	------------------------------------------------
	Norm of target step-size    0.10000
	Projected energy change by RFO approximation:        -0.0026753801

	Back-transformation to cartesian coordinates...
	Successfully converged to displaced geometry.

	--- Internal Coordinate Step in ANG or DEG, aJ/ANG or AJ/DEG ---
	 ---------------------------------------------------------------------------
	   Coordinate                Previous        Force       Change         New 
	   ----------                --------       ------       ------       ------
	    1 R(1,4)          =      1.083491     0.055953     0.008434     1.091925
	    2 R(2,4)          =      1.084459     0.052844     0.007712     1.092172
	    3 R(3,4)          =      1.083045     0.055755     0.008402     1.091447
	    4 R(4,7)          =      1.538275    -0.026159    -0.006787     1.531488
	    5 R(5,7)          =      1.084174     0.055060     0.008213     1.092387
	    6 R(6,7)          =      1.083842     0.058841     0.009025     1.092867
	    7 R(7,10)         =      1.547855     0.010899    -0.000307     1.547548
	    8 R(8,10)         =      1.083760     0.059467     0.009102     1.092862
	    9 R(9,10)         =      1.083850     0.056831     0.008454     1.092304
	   10 R(10,14)        =      1.537608    -0.023231    -0.006227     1.531381
	   11 R(11,14)        =      1.083733     0.057090     0.008282     1.092015
	   12 R(12,14)        =      1.083417     0.056542     0.008507     1.091925
	   13 R(13,14)        =      1.083553     0.053100     0.008036     1.091589
	   14 B(1,4,2)        =    108.976847    -0.000199    -0.715274   108.261572
	   15 B(1,4,3)        =    109.141497    -0.000176    -0.772483   108.369014
	   16 B(1,4,7)        =    109.683103     0.000140     0.594125   110.277229
	   17 B(2,4,3)        =    108.944474    -0.000195    -0.680952   108.263522
	   18 B(2,4,7)        =    110.338605     0.000276     0.909682   111.248288
	   19 B(3,4,7)        =    109.731837     0.000145     0.602613   110.334450
	   20 B(4,7,5)        =    109.029109    -0.000112    -0.176288   108.852821
	   21 B(4,7,6)        =    109.158130    -0.000098    -0.180505   108.977625
	   22 B(4,7,10)       =    110.697020     0.000373     1.176289   111.873309
	   23 B(5,7,6)        =    109.193905    -0.000114    -1.120535   108.073370
	   24 B(5,7,10)       =    109.431932    -0.000003     0.242331   109.674263
	   25 B(6,7,10)       =    109.308241    -0.000053     0.000561   109.308803
	   26 B(7,10,8)       =    109.300140    -0.000053     0.000431   109.300571
	   27 B(7,10,9)       =    109.467319    -0.000005     0.227466   109.694785
	   28 B(7,10,14)      =    110.711359     0.000369     1.162898   111.874257
	   29 B(8,10,9)       =    109.215123    -0.000116    -1.131159   108.083964
	   30 B(8,10,14)      =    109.090185    -0.000091    -0.144353   108.945831
	   31 B(9,10,14)      =    109.034187    -0.000110    -0.173293   108.860894
	   32 B(10,14,11)     =    110.381300     0.000270     0.883046   111.264346
	   33 B(10,14,12)     =    109.716200     0.000134     0.569521   110.285721
	   34 B(10,14,13)     =    109.745893     0.000145     0.599229   110.345122
	   35 B(11,14,12)     =    108.967840    -0.000195    -0.703480   108.264360
	   36 B(11,14,13)     =    108.925468    -0.000192    -0.669326   108.256142
	   37 B(12,14,13)     =    109.077879    -0.000171    -0.741218   108.336660
	   38 D(1,4,7,5)      =   -179.687084     0.000027     0.699371  -178.987713
	   39 D(1,4,7,6)      =    -60.478934    -0.000033    -0.857547   -61.336481
	   40 D(1,4,7,10)     =     59.881829    -0.000009    -0.231043    59.650786
	   41 D(2,4,7,5)      =    -59.625688     0.000030     0.776124   -58.849563
	   42 D(2,4,7,6)      =     59.582462    -0.000029    -0.780793    58.801669
	   43 D(2,4,7,10)     =    179.943225    -0.000006    -0.154289   179.788936
	   44 D(3,4,7,5)      =     60.426609     0.000036     0.902464    61.329073
	   45 D(3,4,7,6)      =    179.634758    -0.000024    -0.654454   178.980305
	   46 D(3,4,7,10)     =    -60.004479     0.000000    -0.027949   -60.032428
	   47 D(4,7,10,8)     =      0.224662     0.000020     0.586087     0.810749
	   48 D(4,7,10,9)     =    119.805066    -0.000021    -0.655378   119.149688
	   49 D(4,7,10,14)    =   -119.966146     0.000001     0.026687  -119.939459
	   50 D(5,7,10,8)     =   -119.966061    -0.000002    -0.109236  -120.075297
	   51 D(5,7,10,9)     =     -0.385657    -0.000042    -1.350701    -1.736358
	   52 D(5,7,10,14)    =    119.843131    -0.000021    -0.668636   119.174495
	   53 D(6,7,10,8)     =    120.495859     0.000038     1.110005   121.605864
	   54 D(6,7,10,9)     =   -119.923737    -0.000003    -0.131460  -120.055197
	   55 D(6,7,10,14)    =      0.305051     0.000019     0.550606     0.855657
	   56 D(7,10,14,11)   =    179.929802    -0.000005    -0.146310   179.783492
	   57 D(7,10,14,12)   =     59.831658    -0.000008    -0.205951    59.625707
	   58 D(7,10,14,13)   =    -60.005625     0.000000    -0.023902   -60.029527
	   59 D(8,10,14,11)   =     59.613674    -0.000029    -0.786291    58.827383
	   60 D(8,10,14,12)   =    -60.484470    -0.000033    -0.845932   -61.330402
	   61 D(8,10,14,13)   =    179.678247    -0.000024    -0.663883   179.014364
	   62 D(9,10,14,11)   =    -59.583154     0.000030     0.760007   -58.823147
	   63 D(9,10,14,12)   =   -179.681298     0.000027     0.700366  -178.980932
	   64 D(9,10,14,13)   =     60.481419     0.000035     0.882415    61.363834
	 ---------------------------------------------------------------------------
	 Forces used to impose fixed constraints are not included.
	  Forces zeroed: 49 

  ==> Convergence Check <==

  Measures of convergence in internal coordinates in au.
  Criteria marked as inactive (o), active & met (*), and active & unmet ( ).
  ---------------------------------------------------------------------------------------------
   Step     Total Energy     Delta E     MAX Force     RMS Force      MAX Disp      RMS Disp   
  ---------------------------------------------------------------------------------------------
    Convergence Criteria    1.00e-06 *    3.00e-04 *             o    1.20e-03 *             o
  ---------------------------------------------------------------------------------------------
      2    -157.83681861   -4.14e-03      7.22e-03      3.24e-03 o    2.36e-02      1.25e-02 o  ~
  ---------------------------------------------------------------------------------------------

	Writing optimization data to binary file.
	Structure for next step:
	Cartesian Geometry (in Angstrom)
	    H    -2.1129868265   0.1806205283   0.0437402621
	    H    -1.9636946878   1.8189920885  -0.6089353470
	    H    -1.6560287442   0.4213928777  -1.6497528777
	    C    -1.5398653062   0.8128168427  -0.6375519821
	    H     0.4856684688   1.4737701023  -0.9209660879
	    H     0.0306519212   1.2336100363   0.7712777666
	    C    -0.0617927902   0.8215580675  -0.2367035413
	    H    -0.2089024362  -1.3144657113  -0.5874364675
	    H     1.3718729063  -0.6298294167  -0.9886772444
	    C     0.5522799892  -0.5986122708  -0.2672757913
	    H     1.5120797754  -2.0240682044   1.0734207812
	    H     0.2787647048  -1.0140021678   1.8421183333
	    H     1.8605555394  -0.3284390935   1.4399108024
	    C     1.0847254065  -1.0196580830   1.1054402063
			--------------------------
			 OPTKING Finished Execution 
			--------------------------

    Structure for next step:
    Molecular point group: c1
    Full point group: C1

    Geometry (in Angstrom), charge = 0, multiplicity = 1:

    H           -2.113314012651     0.180458535076     0.044001088487
    H           -1.964021873906     1.818830095293    -0.608674520624
    H           -1.656355930365     0.421230884462    -1.649492051291
    C           -1.540192492337     0.812654849465    -0.637291155746
    H            0.485341282709     1.473608109108    -0.920705261588
    H            0.030324735091     1.233448043094     0.771538592998
    C           -0.062119976378     0.821396074288    -0.236442714926
    H           -0.209229622358    -1.314627704461    -0.587175641164
    H            1.371545720218    -0.629991409920    -0.988416418004
    C            0.551952803109    -0.598774263993    -0.267014964923
    H            1.511752589254    -2.024230197633     1.073681607523
    H            0.278437518690    -1.014164161010     1.842379159624
    H            1.860228353263    -0.328601086721     1.440171628742
    C            1.084398220356    -1.019820076180     1.105701032710

gradient() will perform analytic gradient computation.
    SCF Algorithm Type (re)set to DF.

*** tstart() called on lski1497
*** at Mon Feb 20 17:25:16 2017


         ---------------------------------------------------------
                                   SCF
            by Justin Turney, Rob Parrish, and Andy Simmonett
                              RHF Reference
                        1 Threads,   1000 MiB Core
         ---------------------------------------------------------

  ==> Geometry <==

    Molecular point group: c1
    Full point group: C1

    Geometry (in Angstrom), charge = 0, multiplicity = 1:

       Center              X                  Y                   Z               Mass       
    ------------   -----------------  -----------------  -----------------  -----------------
           H         -2.113314012651     0.180458535076     0.044001088487     1.007825032070
           H         -1.964021873906     1.818830095293    -0.608674520624     1.007825032070
           H         -1.656355930365     0.421230884462    -1.649492051291     1.007825032070
           C         -1.540192492337     0.812654849465    -0.637291155746    12.000000000000
           H          0.485341282709     1.473608109108    -0.920705261588     1.007825032070
           H          0.030324735091     1.233448043094     0.771538592998     1.007825032070
           C         -0.062119976378     0.821396074288    -0.236442714926    12.000000000000
           H         -0.209229622358    -1.314627704461    -0.587175641164     1.007825032070
           H          1.371545720218    -0.629991409920    -0.988416418004     1.007825032070
           C          0.551952803109    -0.598774263993    -0.267014964923    12.000000000000
           H          1.511752589254    -2.024230197633     1.073681607523     1.007825032070
           H          0.278437518690    -1.014164161010     1.842379159624     1.007825032070
           H          1.860228353263    -0.328601086721     1.440171628742     1.007825032070
           C          1.084398220356    -1.019820076180     1.105701032710    12.000000000000

  Running in c1 symmetry.

  Rotational constants: A =      0.59590  B =      0.12728  C =      0.12723 [cm^-1]
  Rotational constants: A =  17864.66296  B =   3815.67360  C =   3814.31888 [MHz]
  Nuclear repulsion =  131.143845191795378

  Charge       = 0
  Multiplicity = 1
  Electrons    = 34
  Nalpha       = 17
  Nbeta        = 17

  ==> Algorithm <==

  SCF Algorithm Type is DF.
  DIIS enabled.
  MOM disabled.
  Fractional occupation disabled.
  Guess Type is READ.
  Energy threshold   = 1.00e-10
  Density threshold  = 1.00e-10
  Integral threshold = 0.00e+00

  ==> Primary Basis <==

  Basis Set: 6-31G(D)
    Number of shells: 44
    Number of basis function: 80
    Number of Cartesian functions: 80
    Spherical Harmonics?: false
    Max angular momentum: 2

  ==> Pre-Iterations <==

   -------------------------------------------------------
    Irrep   Nso     Nmo     Nalpha   Nbeta   Ndocc  Nsocc
   -------------------------------------------------------
     A         80      80       0       0       0       0
   -------------------------------------------------------
    Total      80      80      17      17      17       0
   -------------------------------------------------------

  ==> Integral Setup <==

  ==> DFJK: Density-Fitted J/K Matrices <==

    J tasked:                  Yes
    K tasked:                  Yes
    wK tasked:                  No
    OpenMP threads:              1
    Integrals threads:           1
    Memory (MB):               715
    Algorithm:                Core
    Integral Cache:           NONE
    Schwarz Cutoff:          1E-12
    Fitting Condition:       1E-12

   => Auxiliary Basis Set <=

  Basis Set: 
    Number of shells: 186
    Number of basis function: 574
    Number of Cartesian functions: 574
    Spherical Harmonics?: false
    Max angular momentum: 3

  Minimum eigenvalue in the overlap matrix is 5.0162309023E-03.
  Using Symmetric Orthogonalization.
  SCF Guess was Projection but file not found.
  Switching over to SAD guess.

  SCF Guess: Superposition of Atomic Densities via on-the-fly atomic UHF.

  ==> Iterations <==

                           Total Energy        Delta E     RMS |[F,P]|

   @DF-RHF iter   0:  -158.81002380407728   -1.58810e+02   4.60030e-02 
   @DF-RHF iter   1:  -157.20207683576439    1.60795e+00   3.91748e-03 
   @DF-RHF iter   2:  -157.28301665659950   -8.09398e-02   1.11172e-03 DIIS
   @DF-RHF iter   3:  -157.29133286280859   -8.31621e-03   2.60481e-04 DIIS
   @DF-RHF iter   4:  -157.29171335764443   -3.80495e-04   7.94500e-05 DIIS
   @DF-RHF iter   5:  -157.29175055643805   -3.71988e-05   1.37453e-05 DIIS
   @DF-RHF iter   6:  -157.29175197169138   -1.41525e-06   2.63730e-06 DIIS
   @DF-RHF iter   7:  -157.29175200831929   -3.66279e-08   8.01538e-07 DIIS
   @DF-RHF iter   8:  -157.29175201190259   -3.58330e-09   1.46489e-07 DIIS
   @DF-RHF iter   9:  -157.29175201208130   -1.78716e-10   3.42886e-08 DIIS
   @DF-RHF iter  10:  -157.29175201209176   -1.04592e-11   5.74209e-09 DIIS
   @DF-RHF iter  11:  -157.29175201209193   -1.70530e-13   1.17502e-09 DIIS
   @DF-RHF iter  12:  -157.29175201209199   -5.68434e-14   3.97214e-10 DIIS
   @DF-RHF iter  13:  -157.29175201209199    0.00000e+00   7.96006e-11 DIIS

  ==> Post-Iterations <==

    Orbital Energies (a.u.)
    -----------------------

    Doubly Occupied:                                                      

       1A    -11.214798     2A    -11.214252     3A    -11.209746  
       4A    -11.209724     5A     -1.066836     6A     -0.977878  
       7A     -0.859537     8A     -0.785398     9A     -0.630881  
      10A     -0.599949    11A     -0.578905    12A     -0.550457  
      13A     -0.508884    14A     -0.506917    15A     -0.466046  
      16A     -0.457199    17A     -0.450298  

    Virtual:                                                              

      18A      0.231887    19A      0.268604    20A      0.284303  
      21A      0.292262    22A      0.317022    23A      0.324470  
      24A      0.329015    25A      0.336857    26A      0.345119  
      27A      0.355050    28A      0.411654    29A      0.450513  
      30A      0.457420    31A      0.713924    32A      0.723761  
      33A      0.734968    34A      0.790038    35A      0.807582  
      36A      0.818185    37A      0.836720    38A      0.935187  
      39A      0.941694    40A      0.995658    41A      1.063657  
      42A      1.098738    43A      1.154798    44A      1.155800  
      45A      1.169098    46A      1.188754    47A      1.190874  
      48A      1.205320    49A      1.235150    50A      1.235569  
      51A      1.248654    52A      1.253988    53A      1.262477  
      54A      1.445222    55A      1.679237    56A      1.740252  
      57A      1.774386    58A      1.903223    59A      1.987828  
      60A      2.068278    61A      2.195227    62A      2.226041  
      63A      2.276558    64A      2.302187    65A      2.348990  
      66A      2.438186    67A      2.479278    68A      2.605078  
      69A      2.640705    70A      2.649047    71A      2.718194  
      72A      2.730475    73A      2.774638    74A      2.892015  
      75A      3.012643    76A      3.071728    77A      4.556027  
      78A      4.651022    79A      4.812756    80A      4.959329  

    Final Occupation by Irrep:
              A 
    DOCC [    17 ]

  Energy converged.

  @DF-RHF Final Energy:  -157.29175201209199

   => Energetics <=

    Nuclear Repulsion Energy =            131.1438451917953785
    One-Electron Energy =                -470.2957821146496826
    Two-Electron Energy =                 181.8601849107622854
    DFT Exchange-Correlation Energy =       0.0000000000000000
    Empirical Dispersion Energy =           0.0000000000000000
    PCM Polarization Energy =               0.0000000000000000
    EFP Energy =                            0.0000000000000000
    Total Energy =                       -157.2917520120920187


  Saving occupied orbitals to File 180.

*** tstop() called on lski1497 at Mon Feb 20 17:25:23 2017
Module time:
	user time   =       5.07 seconds =       0.08 minutes
	system time =       0.15 seconds =       0.00 minutes
	total time  =          7 seconds =       0.12 minutes
Total time:
	user time   =      49.82 seconds =       0.83 minutes
	system time =       1.42 seconds =       0.02 minutes
	total time  =         65 seconds =       1.08 minutes


Properties will be evaluated at   0.000000,   0.000000,   0.000000 Bohr

Properties computed using the SCF density matrix

  Nuclear Dipole Moment: (a.u.)
     X:    -0.3799      Y:    -0.1725      Z:     0.3912

  Electronic Dipole Moment: (a.u.)
     X:     0.3993      Y:     0.1813      Z:    -0.4111

  Dipole Moment: (a.u.)
     X:     0.0193      Y:     0.0087      Z:    -0.0199     Total:     0.0291

  Dipole Moment: (Debye)
     X:     0.0491      Y:     0.0222      Z:    -0.0507     Total:     0.0740


  //>>>>>>>>>>>>>>>>>>>>>>>>>>>>>>>>>>>//
  //               DFMP2               //
  //<<<<<<<<<<<<<<<<<<<<<<<<<<<<<<<<<<<//


*** tstart() called on lski1497
*** at Mon Feb 20 17:25:23 2017


*** tstop() called on lski1497 at Mon Feb 20 17:25:24 2017
Module time:
	user time   =       0.53 seconds =       0.01 minutes
	system time =       0.00 seconds =       0.00 minutes
	total time  =          1 seconds =       0.02 minutes
Total time:
	user time   =      50.36 seconds =       0.84 minutes
	system time =       1.42 seconds =       0.02 minutes
	total time  =         66 seconds =       1.10 minutes
	 --------------------------------------------------------
	                          DF-MP2                         
	      2nd-Order Density-Fitted Moller-Plesset Theory     
	              RMP2 Wavefunction,   1 Threads             
	                                                         
	        Rob Parrish, Justin Turney, Andy Simmonett,      
	           Ed Hohenstein, and C. David Sherrill          
	 --------------------------------------------------------

   => Auxiliary Basis Set <=

  Basis Set: 
    Number of shells: 132
    Number of basis function: 364
    Number of Cartesian functions: 414
    Spherical Harmonics?: true
    Max angular momentum: 3

	 --------------------------------------------------------
	                 NBF =    80, NAUX =   364
	 --------------------------------------------------------
	   CLASS    FOCC     OCC    AOCC    AVIR     VIR    FVIR
	   PAIRS       0      17      17      63      63       0
	 --------------------------------------------------------

DGAS Warning! /src/lib/libfock/apps.cc:80 is not currently checking restricted

         ------------------------------------------------------------
                                     CPHF                           
                                  Rob Parrish                       
         ------------------------------------------------------------

  ==> Geometry <==

    Molecular point group: c1
    Full point group: C1

    Geometry (in Angstrom), charge = 0, multiplicity = 1:

       Center              X                  Y                   Z               Mass       
    ------------   -----------------  -----------------  -----------------  -----------------
           H         -2.113314012651     0.180458535076     0.044001088487     1.007825032070
           H         -1.964021873906     1.818830095293    -0.608674520624     1.007825032070
           H         -1.656355930365     0.421230884462    -1.649492051291     1.007825032070
           C         -1.540192492337     0.812654849465    -0.637291155746    12.000000000000
           H          0.485341282709     1.473608109108    -0.920705261588     1.007825032070
           H          0.030324735091     1.233448043094     0.771538592998     1.007825032070
           C         -0.062119976378     0.821396074288    -0.236442714926    12.000000000000
           H         -0.209229622358    -1.314627704461    -0.587175641164     1.007825032070
           H          1.371545720218    -0.629991409920    -0.988416418004     1.007825032070
           C          0.551952803109    -0.598774263993    -0.267014964923    12.000000000000
           H          1.511752589254    -2.024230197633     1.073681607523     1.007825032070
           H          0.278437518690    -1.014164161010     1.842379159624     1.007825032070
           H          1.860228353263    -0.328601086721     1.440171628742     1.007825032070
           C          1.084398220356    -1.019820076180     1.105701032710    12.000000000000

  Nuclear repulsion =  131.143845191795378
  Reference energy  = -157.291752012091990

  ==> Basis Set <==

  Basis Set: 6-31G(D)
    Number of shells: 44
    Number of basis function: 80
    Number of Cartesian functions: 80
[...]
    Memory (MB):               715
    Algorithm:                Core
    Integral Cache:           NONE
    Schwarz Cutoff:          1E-12
    Fitting Condition:       1E-12

   => Auxiliary Basis Set <=

  Basis Set: 
    Number of shells: 186
    Number of basis function: 574
    Number of Cartesian functions: 574
    Spherical Harmonics?: false
    Max angular momentum: 3

  ==> CPHF Iterations <==

  => Iterations <=

             Iter  Converged  Remaining    Residual
  CGR           1          0          1   7.520E-02
  CGR           2          0          1   9.295E-03
  CGR           3          0          1   2.774E-03
  CGR           4          0          1   4.129E-04
  CGR           5          0          1   8.041E-05
  CGR           6          0          1   1.825E-05
  CGR           7          0          1   2.906E-06
  CGR           8          1          0   5.503E-07

    CGRSolver converged.

  ==> DFCorrGrad: Density-Fitted Correlated Gradients <==

    OpenMP threads:              1
    Integrals threads:           1
    Memory (MB):               715
    Schwarz Cutoff:          0E+00
    Fitting Condition:       1E-12

   => Auxiliary Basis Set <=

  Basis Set: 
    Number of shells: 186
    Number of basis function: 510
    Number of Cartesian functions: 574
    Spherical Harmonics?: true
    Max angular momentum: 3

	-----------------------------------------------------------
	 ==================> DF-MP2 Energies <==================== 
	-----------------------------------------------------------
	 Reference Energy          =    -157.2920389510126142 [Eh]
	 Singles Energy            =      -0.0000000000000000 [Eh]
	 Same-Spin Energy          =      -0.1242727415277226 [Eh]
	 Opposite-Spin Energy      =      -0.4224170591251055 [Eh]
	 Correlation Energy        =      -0.5466898006528280 [Eh]
	 Total Energy              =    -157.8387287516654283 [Eh]
	-----------------------------------------------------------
	 ================> DF-SCS-MP2 Energies <================== 
	-----------------------------------------------------------
	 SCS Same-Spin Scale       =       0.3333333333333333 [-]
	 SCS Opposite-Spin Scale   =       1.2000000000000000 [-]
	 SCS Same-Spin Energy      =      -0.0414242471759075 [Eh]
	 SCS Opposite-Spin Energy  =      -0.5069004709501266 [Eh]
	 SCS Correlation Energy    =      -0.5483247181260341 [Eh]
	 SCS Total Energy          =    -157.8403636691386396 [Eh]
	-----------------------------------------------------------


  -Total Gradient:
     Atom            X                  Y                   Z
    ------   -----------------  -----------------  -----------------
       1        0.000003109588     0.000006192418     0.000002366119
       2       -0.000011040576     0.000001797261    -0.000007248738
       3        0.000001007579    -0.000006590326     0.000003131192
       4        0.000024646012     0.000001484368     0.000089197582
       5       -0.000029058070     0.000007426672     0.000001003354
       6        0.000016331425     0.000008344853    -0.000023658544
       7       -0.000043039207     0.000042612306    -0.000075241522
       8        0.000023019177     0.000009535356    -0.000016601759
       9        0.000005365555    -0.000018088000     0.000023417495
      10        0.000089673450    -0.000021676354     0.000026842547
      11        0.000008693068    -0.000003284759     0.000009568476
      12       -0.000000278548    -0.000005250371    -0.000006179966
      13       -0.000005884876     0.000004278368     0.000001339223
      14       -0.000082544578    -0.000026781793    -0.000027935459


			-----------------------------------------
			 OPTKING 2.0: for geometry optimizations 
			  - R.A. King,  Bethel University        
			-----------------------------------------

	Previous internal coordinate definitions found.
	---Fragment 1 Geometry and Gradient---
	 H          -4.0175142272        0.3408272393        0.0544550753
	 H          -3.7192210569        3.4451318223       -1.1499635223
	 H          -3.1507869165        0.8164031949       -3.1348010258
	 C          -2.9126649924        1.5430259378       -1.2142824393
	 H           0.9200007121        2.8020835085       -1.7132776596
	 H           0.0495612884        2.3525693949        1.4425081357
	 C          -0.1316578741        1.5398575517       -0.4545645415
	 H          -0.3717162014       -2.4989417789       -1.1113084856
	 H           2.5743479191       -1.2144756744       -1.8791409732
	 C           1.0464791577       -1.1242233372       -0.4859328249
	 H           2.8606055822       -3.8352322766        2.0327204984
	 H           0.5547823147       -1.9141288688        3.5054191700
	 H           3.5421225110       -0.6385438878        2.7324638735
	 C           2.0614893776       -1.9297433572        2.0893488579
	             0.0000031096        0.0000061924        0.0000023661
	            -0.0000110406        0.0000017973       -0.0000072487
	             0.0000010076       -0.0000065903        0.0000031312
	             0.0000246460        0.0000014844        0.0000891976
	            -0.0000290581        0.0000074267        0.0000010034
	             0.0000163314        0.0000083449       -0.0000236585
	            -0.0000430392        0.0000426123       -0.0000752415
	             0.0000230192        0.0000095354       -0.0000166018
	             0.0000053656       -0.0000180880        0.0000234175
	             0.0000896735       -0.0000216764        0.0000268425
	             0.0000086931       -0.0000032848        0.0000095685
	            -0.0000002785       -0.0000052504       -0.0000061800
	            -0.0000058849        0.0000042784        0.0000013392
	            -0.0000825446       -0.0000267818       -0.0000279355

	---Fragment 1 Intrafragment Coordinates---
	 - Coordinate -           - BOHR/RAD -       - ANG/DEG -
	 R(1,4)           =         2.067769	       1.094216
	 R(2,4)           =         2.067045	       1.093833
	 R(3,4)           =         2.067142	       1.093884
	 R(4,7)           =         2.882912	       1.525571
	 R(5,7)           =         2.069676	       1.095225
	 R(6,7)           =         2.071769	       1.096333
	 R(7,10)          =         2.913129	       1.541561
	 R(8,10)          =         2.071768	       1.096333
	 R(9,10)          =         2.069676	       1.095225
	 R(10,14)         =         2.882912	       1.525572
	 R(11,14)         =         2.067047	       1.093834
	 R(12,14)         =         2.067768	       1.094216
	 R(13,14)         =         2.067140	       1.093883
	 B(1,4,2)         =         1.883281	     107.904049
	 B(1,4,3)         =         1.879830	     107.706333
	 B(1,4,7)         =         1.931679	     110.677080
	 B(2,4,3)         =         1.883280	     107.904000
	 B(2,4,7)         =         1.948962	     111.667293
	 B(3,4,7)         =         1.934318	     110.828275
	 B(4,7,5)         =         1.906282	     109.221937
	 B(4,7,6)         =         1.902074	     108.980797
	 B(4,7,10)        =         1.969577	     112.848465
	 B(5,7,6)         =         1.847517	     105.854942
	 B(5,7,10)        =         1.923761	     110.223366
	 B(6,7,10)        =         1.910521	     109.464784
	 B(7,10,8)        =         1.910523	     109.464916
	 B(7,10,9)        =         1.923759	     110.223272
	 B(7,10,14)       =         1.969576	     112.848404
	 B(8,10,9)        =         1.847518	     105.854987
	 B(8,10,14)       =         1.902074	     108.980811
	 B(9,10,14)       =         1.906282	     109.221908
	 B(10,14,11)      =         1.948959	     111.667132
	 B(10,14,12)      =         1.931675	     110.676851
	 B(10,14,13)      =         1.934319	     110.828332
	 B(11,14,12)      =         1.883280	     107.903967
	 B(11,14,13)      =         1.883282	     107.904096
	 B(12,14,13)      =         1.879836	     107.706674
	 D(1,4,7,5)       =        -3.110017	    -178.190854
	 D(1,4,7,6)       =        -1.099271	     -62.983591
	 D(1,4,7,10)      =         1.026967	      58.840887
	 D(2,4,7,5)       =        -1.011561	     -57.958177
	 D(2,4,7,6)       =         0.999185	      57.249086
	 D(2,4,7,10)      =         3.125423	     179.073564
	 D(3,4,7,5)       =         1.088692	      62.377454
	 D(3,4,7,6)       =         3.099438	     177.584717
	 D(3,4,7,10)      =        -1.057509	     -60.590805
	 D(4,7,10,8)      =         0.027131	       1.554467
	 D(4,7,10,9)      =         2.052414	     117.594655
	 D(4,7,10,14)     =        -2.094338	    -119.996708
	 D(5,7,10,8)      =        -2.109306	    -120.854320
	 D(5,7,10,9)      =        -0.084022	      -4.814132
	 D(5,7,10,14)     =         2.052411	     117.594505
	 D(6,7,10,8)      =         2.148598	     123.105571
	 D(6,7,10,9)      =        -2.109304	    -120.854242
	 D(6,7,10,14)     =         0.027129	       1.554396
	 D(7,10,14,11)    =         3.125458	     179.075552
	 D(7,10,14,12)    =         1.027008	      58.843242
	 D(7,10,14,13)    =        -1.057473	     -60.588764
	 D(8,10,14,11)    =         0.999217	      57.250936
	 D(8,10,14,12)    =        -1.099232	     -62.981374
	 D(8,10,14,13)    =         3.099471	     177.586621
	 D(9,10,14,11)    =        -1.011530	     -57.956372
	 D(9,10,14,12)    =        -3.109979	    -178.188682
	 D(9,10,14,13)    =         1.088724	      62.379312

	Current energy   :      -157.8387287517

	Energy change for the previous step:
		Projected    :        -0.0000014000
		Actual       :        -0.0000007877

	Performing BFGS update.
	Previous computed or guess Hessian on step 1.
	Steps to be used in Hessian update: 5 4
	Adding user-defined constraint: Fragment 1; Coordinate 49:
		Value =    -2.094338; Fixed value    =    -2.094400
		Force =    -0.000039; Force constant =     0.625000
	Removing off-diagonal coupling between coordinate 49 and others.
	Taking RFO optimization step.
	Going to follow RFO solution 1.
	Using RFO vector 1.
	Norm of target step-size    0.00456
	Projected energy change by RFO approximation:        -0.0000003629

	Back-transformation to cartesian coordinates...
	Could not converge backtransformation.
	Using first guess instead.

	--- Internal Coordinate Step in ANG or DEG, aJ/ANG or AJ/DEG ---
	 ---------------------------------------------------------------------------
	   Coordinate                Previous        Force       Change         New 
	   ----------                --------       ------       ------       ------
	    1 R(1,4)          =      1.094216     0.000032    -0.000017     1.094199
	    2 R(2,4)          =      1.093833    -0.000048    -0.000026     1.093807
	    3 R(3,4)          =      1.093884     0.000007    -0.000017     1.093867
	    4 R(4,7)          =      1.525571     0.000332     0.000078     1.525649
	    5 R(5,7)          =      1.095225     0.000089     0.000005     1.095231
	    6 R(6,7)          =      1.096333     0.000139     0.000022     1.096354
	    7 R(7,10)         =      1.541561    -0.000590    -0.000107     1.541454
	    8 R(8,10)         =      1.096333     0.000140     0.000022     1.096354
	    9 R(9,10)         =      1.095225     0.000091     0.000005     1.095230
	   10 R(10,14)        =      1.525572     0.000333     0.000077     1.525648
	   11 R(11,14)        =      1.093834    -0.000051    -0.000029     1.093805
	   12 R(12,14)        =      1.094216     0.000034    -0.000017     1.094199
	   13 R(13,14)        =      1.093883     0.000010    -0.000015     1.093868
	   14 B(1,4,2)        =    107.904049     0.000000     0.002298   107.906347
	   15 B(1,4,3)        =    107.706333    -0.000000     0.001042   107.707376
	   16 B(1,4,7)        =    110.677080     0.000001    -0.000553   110.676527
	   17 B(2,4,3)        =    107.904000     0.000000     0.000709   107.904709
	   18 B(2,4,7)        =    111.667293    -0.000001    -0.005503   111.661790
	   19 B(3,4,7)        =    110.828275     0.000000     0.002256   110.830531
	   20 B(4,7,5)        =    109.221937    -0.000001     0.012867   109.234804
	   21 B(4,7,6)        =    108.980797     0.000002    -0.012386   108.968410
	   22 B(4,7,10)       =    112.848465     0.000000     0.002996   112.851461
	   23 B(5,7,6)        =    105.854942     0.000001     0.001264   105.856205
	   24 B(5,7,10)       =    110.223366    -0.000001     0.001570   110.224936
	   25 B(6,7,10)       =    109.464784    -0.000000    -0.006593   109.458191
	   26 B(7,10,8)       =    109.464916    -0.000000    -0.006714   109.458203
	   27 B(7,10,9)       =    110.223272    -0.000001     0.001625   110.224897
	   28 B(7,10,14)      =    112.848404     0.000000     0.003074   112.851479
	   29 B(8,10,9)       =    105.854987     0.000001     0.001188   105.856175
	   30 B(8,10,14)      =    108.980811     0.000002    -0.012312   108.968499
	   31 B(9,10,14)      =    109.221908    -0.000001     0.012845   109.234753
	   32 B(10,14,11)     =    111.667132    -0.000001    -0.005363   111.661770
	   33 B(10,14,12)     =    110.676851     0.000001    -0.000262   110.676589
	   34 B(10,14,13)     =    110.828332     0.000000     0.002303   110.830635
	   35 B(11,14,12)     =    107.903967     0.000000     0.002279   107.906246
	   36 B(11,14,13)     =    107.904096     0.000000     0.000573   107.904668
	   37 B(12,14,13)     =    107.706674    -0.000000     0.000691   107.707365
	   38 D(1,4,7,5)      =   -178.190854    -0.000000    -0.048238  -178.239093
	   39 D(1,4,7,6)      =    -62.983591    -0.000000    -0.046511   -63.030103
	   40 D(1,4,7,10)     =     58.840887     0.000000    -0.061696    58.779191
	   41 D(2,4,7,5)      =    -57.958177    -0.000000    -0.049381   -58.007558
	   42 D(2,4,7,6)      =     57.249086    -0.000000    -0.047654    57.201432
	   43 D(2,4,7,10)     =    179.073564     0.000000    -0.062839   179.010725
	   44 D(3,4,7,5)      =     62.377454    -0.000000    -0.050645    62.326809
	   45 D(3,4,7,6)      =    177.584717    -0.000000    -0.048918   177.535799
	   46 D(3,4,7,10)     =    -60.590805     0.000000    -0.064103   -60.654907
	   47 D(4,7,10,8)     =      1.554467    -0.000001    -0.029198     1.525270
	   48 D(4,7,10,9)     =    117.594655    -0.000001    -0.030740   117.563914
	   49 D(4,7,10,14)    =   -119.996708    -0.000001    -0.010769  -120.007477
	   50 D(5,7,10,8)     =   -120.854320    -0.000000    -0.049101  -120.903421
	   51 D(5,7,10,9)     =     -4.814132    -0.000000    -0.050644    -4.864776
	   52 D(5,7,10,14)    =    117.594505    -0.000001    -0.030672   117.563833
	   53 D(6,7,10,8)     =    123.105571    -0.000000    -0.047689   123.057882
	   54 D(6,7,10,9)     =   -120.854242    -0.000000    -0.049232  -120.903473
	   55 D(6,7,10,14)    =      1.554396    -0.000001    -0.029260     1.525136
	   56 D(7,10,14,11)   =    179.075552     0.000000    -0.064631   179.010921
	   57 D(7,10,14,12)   =     58.843242     0.000000    -0.063756    58.779486
	   58 D(7,10,14,13)   =    -60.588764     0.000000    -0.065942   -60.654706
	   59 D(8,10,14,11)   =     57.250936    -0.000000    -0.049399    57.201538
	   60 D(8,10,14,12)   =    -62.981374    -0.000000    -0.048523   -63.029897
	   61 D(8,10,14,13)   =    177.586621    -0.000000    -0.050710   177.535911
	   62 D(9,10,14,11)   =    -57.956372    -0.000000    -0.051065   -58.007437
	   63 D(9,10,14,12)   =   -178.188682    -0.000000    -0.050189  -178.238871
	   64 D(9,10,14,13)   =     62.379312    -0.000000    -0.052376    62.326936
	 ---------------------------------------------------------------------------
	 Forces used to impose fixed constraints are not included.
	  Forces zeroed: 49 

  ==> Convergence Check <==

  Measures of convergence in internal coordinates in au.
  Criteria marked as inactive (o), active & met (*), and active & unmet ( ).
  ---------------------------------------------------------------------------------------------
   Step     Total Energy     Delta E     MAX Force     RMS Force      MAX Disp      RMS Disp   
  ---------------------------------------------------------------------------------------------
    Convergence Criteria    1.00e-06 *    3.00e-04 *             o    1.20e-03 *             o
  ---------------------------------------------------------------------------------------------
      6    -157.83872875   -7.88e-07 *    7.16e-05 *    1.77e-05 o    1.15e-03 *    5.70e-04 o  ~
  ---------------------------------------------------------------------------------------------


  **** Optimization is complete! (in 6 steps) ****

  ==> Optimization Summary <==

  Measures of convergence in internal coordinates in au.
  --------------------------------------------------------------------------------------------------------------- ~
   Step         Total Energy             Delta E       MAX Force       RMS Force        MAX Disp        RMS Disp  ~
  --------------------------------------------------------------------------------------------------------------- ~
      1    -157.832676549525   -157.832676549525      0.01811287      0.00732866      0.02816530      0.01250802  ~
      2    -157.836818612820     -0.004142063295      0.00721802      0.00324463      0.02357418      0.01252108  ~
      3    -157.838322842152     -0.001504229332      0.00169834      0.00098245      0.03808956      0.01251262  ~
      4    -157.838704927463     -0.000382085311      0.00136456      0.00025875      0.01427727      0.00536162  ~
      5    -157.838727963922     -0.000023036459      0.00013521      0.00005562      0.00471296      0.00207117  ~
      6    -157.838728751665     -0.000000787744      0.00007158      0.00001926      0.00115091      0.00057050  ~
  --------------------------------------------------------------------------------------------------------------- ~

	Writing optimization data to binary file.
	Final energy is   -157.8387287516654
	Final (previous) structure:
	Cartesian Geometry (in Angstrom)
	    H    -2.1259769642   0.1803580071   0.0288163848
	    H    -1.9681270170   1.8230852410  -0.6085344867
	    H    -1.6673246253   0.4320219638  -1.6588652563
	    C    -1.5413159303   0.8165341586  -0.6425705917
	    H     0.4868434087   1.4827987292  -0.9066274895
	    H     0.0262267042   1.2449261054   0.7633424286
	    C    -0.0696703463   0.8148575208  -0.2405451952
	    H    -0.1967037419  -1.3223830350  -0.5880791223
	    H     1.3622862457  -0.6426728473  -0.9943985748
	    C     0.5537729195  -0.5949133674  -0.2571445759
	    H     1.5137672769  -2.0295175104   1.0756693592
	    H     0.2935781567  -1.0129133717   1.8549879313
	    H     1.8744105029  -0.3379028721   1.4459576052
	    C     1.0908931944  -1.0211762030   1.1056357964
	Saving final (previous) structure.
			--------------------------
			 OPTKING Finished Execution 
			--------------------------

    Final optimized geometry and variables:
    Molecular point group: c1
    Full point group: C1

    Geometry (in Angstrom), charge = 0, multiplicity = 1:

    H           -2.125976964196     0.180358007092     0.028816384752
    H           -1.968127017038     1.823085240973    -0.608534486690
    H           -1.667324625310     0.432021963761    -1.658865256306
    C           -1.541315930261     0.816534158550    -0.642570591666
    H            0.486843408717     1.482798729247    -0.906627489463
    H            0.026226704224     1.244926105393     0.763342428613
    C           -0.069670346309     0.814857520842    -0.240545195190
    H           -0.196703741857    -1.322383034975    -0.588079122284
    H            1.362286245744    -0.642672847258    -0.994398574762
    C            0.553772919541    -0.594913367394    -0.257144575853
    H            1.513767276859    -2.029517510407     1.075669359164
    H            0.293578156694    -1.012913371669     1.854987931339
    H            1.874410502864    -0.337902872118     1.445957605160
    C            1.090893194369    -1.021176203033     1.105635796380

	Cleaning optimization helper files.

*** Psi4 exiting successfully. Buy a developer a beer!
