    -----------------------------------------------------------------------
          Psi4: An Open-Source Ab Initio Electronic Structure Package
                              Psi4 1.0.0 Driver

                          Git: Rev {master} 6a9a71b 

    J. M. Turney, A. C. Simmonett, R. M. Parrish, E. G. Hohenstein,
    F. A. Evangelista, J. T. Fermann, B. J. Mintz, L. A. Burns, J. J. Wilke,
    M. L. Abrams, N. J. Russ, M. L. Leininger, C. L. Janssen, E. T. Seidl,
    W. D. Allen, H. F. Schaefer, R. A. King, E. F. Valeev, C. D. Sherrill,
    and T. D. Crawford, WIREs Comput. Mol. Sci. 2, 556-565 (2012)
    (doi: 10.1002/wcms.93)

                         Additional Contributions by
    A. E. DePrince, U. Bozkaya, A. Yu. Sokolov, D. G. A. Smith, R. Di Remigio,
    R. M. Richard, J. F. Gonthier, H. R. McAlexander, M. Saitow, and
    B. P. Pritchard
    -----------------------------------------------------------------------


    Psi4 started on: Tue Feb 21 17:40:07 2017

    Process ID:  34278
    PSI4DATADIR: /Users/sternc1/anaconda/share/psi4
    Memory level set to 256.000 MB

  ==> Input File <==

--------------------------------------------------------------------------

memory 1000 mb

molecule butane {
  symmetry C1
  0 1 
  H      1.604   0.760   -8.260
  H      1.745   2.388   -8.880
  H      2.043   1.024   -9.930
  C      2.142   1.395   -8.932
  H      4.169   2.051   -9.210
  H      3.731   1.788   -7.539
  C      3.631   1.416   -8.537
  H      5.109   -0.003   -9.180
  H      4.406   -0.367   -7.624
  C      4.203   -0.012   -8.612
  H      3.578   -1.932   -9.343
  H      2.976   -0.586   -10.279
  H      2.273   -0.950   -8.723
  C      3.180   -0.941   -9.291
  units Angstrom
}

dih_string = "4 7 10 14 10"
set optking fixed_dihedral = $dih_string

optimize('B3LYP/cc-PVDZ')
--------------------------------------------------------------------------

  Memory set to 1000.000 MiB by Python script.
gradient() will perform analytic gradient computation.

*** tstart() called on lski1497
*** at Tue Feb 21 17:40:09 2017


         ---------------------------------------------------------
                                   SCF
            by Justin Turney, Rob Parrish, and Andy Simmonett
                              RKS Reference
                        1 Threads,   1000 MiB Core
         ---------------------------------------------------------

  ==> Geometry <==

    Molecular point group: c1
    Full point group: C1

    Geometry (in Angstrom), charge = 0, multiplicity = 1:

       Center              X                  Y                   Z               Mass       
    ------------   -----------------  -----------------  -----------------  -----------------
           H         -1.663204780046     0.303690560365     0.592335850585     1.007825032070
           H         -1.522204780046     1.931690560365    -0.027664149415     1.007825032070
           H         -1.224204780046     0.567690560365    -1.077664149415     1.007825032070
           C         -1.125204780046     0.938690560365    -0.079664149415    12.000000000000
           H          0.901795219954     1.594690560365    -0.357664149415     1.007825032070
           H          0.463795219954     1.331690560365     1.313335850585     1.007825032070
           C          0.363795219954     0.959690560365     0.315335850585    12.000000000000
           H          1.841795219954    -0.459309439635    -0.327664149415     1.007825032070
           H          1.138795219954    -0.823309439635     1.228335850585     1.007825032070
           C          0.935795219954    -0.468309439635     0.240335850585    12.000000000000
           H          0.310795219954    -2.388309439635    -0.490664149415     1.007825032070
           H         -0.291204780046    -1.042309439635    -1.426664149415     1.007825032070
           H         -0.994204780046    -1.406309439635     0.129335850585     1.007825032070
           C         -0.087204780046    -1.397309439635    -0.438664149415    12.000000000000

  Running in c1 symmetry.

  Rotational constants: A =      0.37833  B =      0.21012  C =      0.15021 [cm^-1]
  Rotational constants: A =  11341.96486  B =   6299.21102  C =   4503.17018 [MHz]
  Nuclear repulsion =  136.518515952497324

  Charge       = 0
  Multiplicity = 1
  Electrons    = 34
  Nalpha       = 17
  Nbeta        = 17

  ==> Algorithm <==

  SCF Algorithm Type is DF.
  DIIS enabled.
  MOM disabled.
  Fractional occupation disabled.
  Guess Type is SAD.
  Energy threshold   = 1.00e-08
  Density threshold  = 1.00e-08
  Integral threshold = 0.00e+00

  ==> Primary Basis <==

  Basis Set: CC-PVDZ
    Number of shells: 54
    Number of basis function: 106
    Number of Cartesian functions: 110
    Spherical Harmonics?: true
    Max angular momentum: 2

  ==> DFT Potential <==

   => B3LYP Composite Functional <= 

    B3LYP Hybrid-GGA Exchange-Correlation Functional (VWN1-RPA)

    P.J. Stephens et. al., J. Phys. Chem., 98, 11623-11627, 1994

    Points   =           5000
    Deriv    =              1
    GGA      =           TRUE
    Meta     =          FALSE

    X_LRC        =          FALSE
    X_Hybrid     =           TRUE
    X_Alpha      =   2.000000E-01
    X_Omega      =   0.000000E+00
    C_LRC        =          FALSE
    C_Hybrid     =          FALSE
    C_Alpha      =   0.000000E+00
    C_Omega      =   0.000000E+00

   => Exchange Functionals <=

    0.8000    B3_X
    0.2000      HF 

   => Correlation Functionals <=

    0.1900 VWN3RPA_C
    0.8100   LYP_C

   => Molecular Quadrature <=

    Radial Scheme    =       TREUTLER
    Pruning Scheme   =           FLAT
    Nuclear Scheme   =       TREUTLER

    BS radius alpha  =              1
    Pruning alpha    =              1
    Radial Points    =             75
    Spherical Points =            302
    Total Points     =         312648
    Total Blocks     =            264
    Max Points       =           4856
    Max Functions    =            106

  ==> Pre-Iterations <==

   -------------------------------------------------------
    Irrep   Nso     Nmo     Nalpha   Nbeta   Ndocc  Nsocc
   -------------------------------------------------------
     A        106     106       0       0       0       0
   -------------------------------------------------------
    Total     106     106      17      17      17       0
   -------------------------------------------------------

  ==> Integral Setup <==

  ==> DFJK: Density-Fitted J/K Matrices <==

    J tasked:                  Yes
    K tasked:                  Yes
    wK tasked:                  No
    OpenMP threads:              1
    Integrals threads:           1
    Memory (MB):               715
    Algorithm:                Core
    Integral Cache:           NONE
    Schwarz Cutoff:          1E-12
    Fitting Condition:       1E-12

   => Auxiliary Basis Set <=

  Basis Set: 
    Number of shells: 186
    Number of basis function: 510
    Number of Cartesian functions: 574
    Spherical Harmonics?: true
    Max angular momentum: 3

  Minimum eigenvalue in the overlap matrix is 2.8200851131E-03.
  Using Symmetric Orthogonalization.
  SCF Guess: Superposition of Atomic Densities via on-the-fly atomic UHF.

  ==> Iterations <==

                           Total Energy        Delta E     RMS |[F,P]|

   @DF-RKS iter   0:  -159.04487436945607   -1.59045e+02   3.37963e-02 
   @DF-RKS iter   1:  -158.24715068754591    7.97724e-01   5.40025e-03 
   @DF-RKS iter   2:  -158.16686793403630    8.02828e-02   6.58143e-03 DIIS
   @DF-RKS iter   3:  -158.43057996260984   -2.63712e-01   4.06013e-04 DIIS
   @DF-RKS iter   4:  -158.43150796823966   -9.28006e-04   1.08408e-04 DIIS
   @DF-RKS iter   5:  -158.43156618306685   -5.82148e-05   4.25306e-05 DIIS
   @DF-RKS iter   6:  -158.43157579975716   -9.61669e-06   7.73298e-06 DIIS
   @DF-RKS iter   7:  -158.43157616503581   -3.65279e-07   9.98092e-07 DIIS
   @DF-RKS iter   8:  -158.43157617158474   -6.54893e-09   1.78497e-07 DIIS
   @DF-RKS iter   9:  -158.43157617173728   -1.52539e-10   8.76929e-08 DIIS
   @DF-RKS iter  10:  -158.43157617177997   -4.26894e-11   1.38085e-08 DIIS
   @DF-RKS iter  11:  -158.43157617178025   -2.84217e-13   1.41258e-09 DIIS

  ==> Post-Iterations <==

    Orbital Energies (a.u.)
    -----------------------

    Doubly Occupied:                                                      

       1A    -10.168711     2A    -10.168468     3A    -10.161111  
       4A    -10.160959     5A     -0.800107     6A     -0.710514  
       7A     -0.652880     8A     -0.558105     9A     -0.477036  
      10A     -0.457700    11A     -0.404025    12A     -0.390766  
      13A     -0.380499    14A     -0.360452    15A     -0.321051  
      16A     -0.317137    17A     -0.312441  

    Virtual:                                                              

      18A      0.059329    19A      0.092998    20A      0.097769  
      21A      0.112104    22A      0.131287    23A      0.131991  
      24A      0.158746    25A      0.180129    26A      0.188643  
      27A      0.191502    28A      0.239804    29A      0.244010  
      30A      0.294175    31A      0.410695    32A      0.424240  
      33A      0.433451    34A      0.447225    35A      0.466865  
      36A      0.495321    37A      0.509156    38A      0.585073  
      39A      0.601714    40A      0.630782    41A      0.645549  
      42A      0.657445    43A      0.666269    44A      0.668366  
      45A      0.673145    46A      0.696963    47A      0.704588  
      48A      0.718252    49A      0.740845    50A      0.757285  
      51A      0.774620    52A      0.843144    53A      0.862542  
      54A      0.908239    55A      0.964492    56A      1.066987  
      57A      1.192492    58A      1.237503    59A      1.248943  
      60A      1.265264    61A      1.316957    62A      1.331833  
      63A      1.397246    64A      1.517638    65A      1.525192  
      66A      1.565632    67A      1.581420    68A      1.603340  
      69A      1.618550    70A      1.650356    71A      1.664575  
      72A      1.668154    73A      1.686893    74A      1.696579  
      75A      1.709776    76A      1.717432    77A      1.722357  
      78A      1.744092    79A      1.757037    80A      1.811884  
      81A      1.827841    82A      1.898555    83A      1.914565  
      84A      1.927288    85A      1.960836    86A      2.001104  
      87A      2.028017    88A      2.111104    89A      2.143611  
      90A      2.163432    91A      2.244397    92A      2.246990  
      93A      2.268932    94A      2.325952    95A      2.388789  
      96A      2.430467    97A      2.484607    98A      2.499885  
      99A      2.514047   100A      2.521006   101A      2.615052  
     102A      2.623769   103A      2.647595   104A      2.659113  
     105A      2.688007   106A      2.797749  

    Final Occupation by Irrep:
              A 
    DOCC [    17 ]

  Energy converged.

  @DF-RKS Final Energy:  -158.43157617178025

   => Energetics <=

    Nuclear Repulsion Energy =            136.5185159524973244
    One-Electron Energy =                -481.4187501135745606
    Two-Electron Energy =                 207.1675253770177960
    DFT Exchange-Correlation Energy =     -20.6988673877207923
    Empirical Dispersion Energy =           0.0000000000000000
    PCM Polarization Energy =               0.0000000000000000
    EFP Energy =                            0.0000000000000000
    Total Energy =                       -158.4315761717802502


  Saving occupied orbitals to File 180.

*** tstop() called on lski1497 at Tue Feb 21 17:42:24 2017
Module time:
	user time   =     121.07 seconds =       2.02 minutes
	system time =       1.20 seconds =       0.02 minutes
	total time  =        135 seconds =       2.25 minutes
Total time:
	user time   =     121.07 seconds =       2.02 minutes
	system time =       1.20 seconds =       0.02 minutes
	total time  =        135 seconds =       2.25 minutes


Properties will be evaluated at   0.000000,   0.000000,   0.000000 Bohr

Properties computed using the SCF density matrix

  Nuclear Dipole Moment: (a.u.)
     X:    -0.9731      Y:    -0.3657      Z:    -0.4168

  Electronic Dipole Moment: (a.u.)
     X:     0.9820      Y:     0.3683      Z:     0.4204

  Dipole Moment: (a.u.)
     X:     0.0089      Y:     0.0026      Z:     0.0035     Total:     0.0099

  Dipole Moment: (Debye)
     X:     0.0226      Y:     0.0067      Z:     0.0089     Total:     0.0252


*** tstart() called on lski1497
*** at Tue Feb 21 17:42:24 2017


         ------------------------------------------------------------
                                   SCF GRAD                          
                          Rob Parrish, Justin Turney,                
                       Andy Simmonett, and Alex Sokolov              
         ------------------------------------------------------------

  ==> Geometry <==

    Molecular point group: c1
    Full point group: C1

    Geometry (in Angstrom), charge = 0, multiplicity = 1:

       Center              X                  Y                   Z               Mass       
    ------------   -----------------  -----------------  -----------------  -----------------
           H         -1.663204780046     0.303690560365     0.592335850585     1.007825032070
           H         -1.522204780046     1.931690560365    -0.027664149415     1.007825032070
           H         -1.224204780046     0.567690560365    -1.077664149415     1.007825032070
           C         -1.125204780046     0.938690560365    -0.079664149415    12.000000000000
           H          0.901795219954     1.594690560365    -0.357664149415     1.007825032070
           H          0.463795219954     1.331690560365     1.313335850585     1.007825032070
           C          0.363795219954     0.959690560365     0.315335850585    12.000000000000
           H          1.841795219954    -0.459309439635    -0.327664149415     1.007825032070
           H          1.138795219954    -0.823309439635     1.228335850585     1.007825032070
           C          0.935795219954    -0.468309439635     0.240335850585    12.000000000000
           H          0.310795219954    -2.388309439635    -0.490664149415     1.007825032070
           H         -0.291204780046    -1.042309439635    -1.426664149415     1.007825032070
           H         -0.994204780046    -1.406309439635     0.129335850585     1.007825032070
           C         -0.087204780046    -1.397309439635    -0.438664149415    12.000000000000

  Nuclear repulsion =  136.518515952497324

  ==> Basis Set <==

  Basis Set: CC-PVDZ
    Number of shells: 54
    Number of basis function: 106
    Number of Cartesian functions: 110
    Spherical Harmonics?: true
    Max angular momentum: 2

  ==> DFJKGrad: Density-Fitted SCF Gradients <==

    Gradient:                    1
    J tasked:                  Yes
    K tasked:                  Yes
    wK tasked:                  No
    OpenMP threads:              1
    Integrals threads:           1
    Memory (MB):               715
    Schwarz Cutoff:          0E+00
    Fitting Condition:       1E-12

   => Auxiliary Basis Set <=

  Basis Set: 
    Number of shells: 186
    Number of basis function: 510
    Number of Cartesian functions: 574
    Spherical Harmonics?: true
    Max angular momentum: 3

  ==> DFT Potential <==

   => B3LYP Composite Functional <= 

    B3LYP Hybrid-GGA Exchange-Correlation Functional (VWN1-RPA)

    P.J. Stephens et. al., J. Phys. Chem., 98, 11623-11627, 1994

    Points   =           5000
    Deriv    =              1
    GGA      =           TRUE
    Meta     =          FALSE

    X_LRC        =          FALSE
    X_Hybrid     =           TRUE
    X_Alpha      =   2.000000E-01
    X_Omega      =   0.000000E+00
    C_LRC        =          FALSE
    C_Hybrid     =          FALSE
    C_Alpha      =   0.000000E+00
    C_Omega      =   0.000000E+00

   => Exchange Functionals <=

    0.8000    B3_X
    0.2000      HF 

   => Correlation Functionals <=

    0.1900 VWN3RPA_C
    0.8100   LYP_C

   => Molecular Quadrature <=

    Radial Scheme    =       TREUTLER
    Pruning Scheme   =           FLAT
    Nuclear Scheme   =       TREUTLER

    BS radius alpha  =              1
    Pruning alpha    =              1
    Radial Points    =             75
    Spherical Points =            302
    Total Points     =         312648
    Total Blocks     =            264
    Max Points       =           4856
    Max Functions    =            106


  -Total Gradient:
     Atom            X                  Y                   Z
    ------   -----------------  -----------------  -----------------
       1        0.015088376674     0.007790127819    -0.011350989884
       2        0.011205468298    -0.019566709194    -0.000609828230
       3        0.008055196440     0.001921977861     0.016938789606
       4       -0.024043018300    -0.019961696919    -0.010481443295
       5       -0.010515010296    -0.016420105916     0.011484413863
       6       -0.003589372287    -0.012309373217    -0.018978145924
       7        0.019752684931     0.021464508903     0.008470774032
       8       -0.021366076246     0.002940740898     0.008613203387
       9       -0.007403925469     0.009918705820    -0.019852296425
      10        0.027823303729    -0.004013142774     0.012260429845
      11       -0.006217450332     0.022645741815     0.002944119493
      12        0.004708303622    -0.000354107957     0.020054163749
      13        0.015498545849     0.007295562378    -0.006380613537
      14       -0.029002915255    -0.001355505443    -0.013115472020


*** tstop() called on lski1497 at Tue Feb 21 17:43:08 2017
Module time:
	user time   =      40.80 seconds =       0.68 minutes
	system time =       0.57 seconds =       0.01 minutes
	total time  =         44 seconds =       0.73 minutes
Total time:
	user time   =     161.90 seconds =       2.70 minutes
	system time =       1.77 seconds =       0.03 minutes
	total time  =        179 seconds =       2.98 minutes

			-----------------------------------------
			 OPTKING 2.0: for geometry optimizations 
			  - R.A. King,  Bethel University        
			-----------------------------------------

	Internal coordinates to be generated automatically.
	Detected frag 1 with atoms:  1 2 3 4 5 6 7 8 9 10 11 12 13 14
	---Fragment 1 Bond Connectivity---
	 1 : 4
	 2 : 4
	 3 : 4
	 4 : 1 2 3 7
	 5 : 7
	 6 : 7
	 7 : 4 5 6 10
	 8 : 10
	 9 : 10
	 10 : 7 8 9 14
	 11 : 14
	 12 : 14
	 13 : 14
	 14 : 10 11 12 13

	Assuming in current code that numbering for constraints corresponds to unified fragment.
	Fixed dihedral atom list: 
	     4     7    10    14
	---Fragment 1 Geometry and Gradient---
	 H          -3.1430015372        0.5738919882        1.1193525363
	 H          -2.8765501525        3.6503661326       -0.0522776661
	 H          -2.3134117649        1.0727796873       -2.0364901056
	 C          -2.1263288777        1.7738680826       -0.1505434250
	 H           1.7041459937        3.0135284258       -0.6758872899
	 H           0.8764459475        2.5165304528        2.4818450781
	 C           0.6874733342        1.8135523314        0.5958983975
	 H           3.4804885586       -0.8679690512       -0.6191955060
	 H           2.1520110872       -1.5558293635        2.3212183568
	 C           1.7683966822       -0.8849765864        0.4541689375
	 H           0.5873178491       -4.5132507615       -0.9272208656
	 H          -0.5502972829       -1.9696793866       -2.6960045260
	 H          -1.8787747543       -2.6575396990        0.2444093368
	 C          -0.1647931518       -2.6405321638       -0.8289551067
	             0.0150883767        0.0077901278       -0.0113509899
	             0.0112054683       -0.0195667092       -0.0006098282
	             0.0080551964        0.0019219779        0.0169387896
	            -0.0240430183       -0.0199616969       -0.0104814433
	            -0.0105150103       -0.0164201059        0.0114844139
	            -0.0035893723       -0.0123093732       -0.0189781459
	             0.0197526849        0.0214645089        0.0084707740
	            -0.0213660762        0.0029407409        0.0086132034
	            -0.0074039255        0.0099187058       -0.0198522964
	             0.0278233037       -0.0040131428        0.0122604298
	            -0.0062174503        0.0226457418        0.0029441195
	             0.0047083036       -0.0003541080        0.0200541637
	             0.0154985458        0.0072955624       -0.0063806135
	            -0.0290029153       -0.0013555054       -0.0131154720

	Previous optimization step data not found.  Starting new optimization.

	---Fragment 1 Intrafragment Coordinates---
	 - Coordinate -           - BOHR/RAD -       - ANG/DEG -
	 R(1,4)           =         2.021436	       1.069698
	 R(2,4)           =         2.023298	       1.070683
	 R(3,4)           =         2.020723	       1.069320
	 R(4,7)           =         2.911397	       1.540645
	 R(5,7)           =         2.022623	       1.070326
	 R(6,7)           =         2.021555	       1.069761
	 R(7,10)          =         2.910419	       1.540128
	 R(8,10)          =         2.020807	       1.069365
	 R(9,10)          =         2.020663	       1.069289
	 R(10,14)         =         2.909571	       1.539679
	 R(11,14)         =         2.020495	       1.069200
	 R(12,14)         =         2.021022	       1.069479
	 R(13,14)         =         2.022408	       1.070212
	 B(1,4,2)         =         1.910870	     109.484805
	 B(1,4,3)         =         1.911121	     109.499161
	 B(1,4,7)         =         1.910399	     109.457783
	 B(2,4,3)         =         1.910042	     109.437340
	 B(2,4,7)         =         1.910564	     109.467262
	 B(3,4,7)         =         1.910803	     109.480971
	 B(4,7,5)         =         1.909937	     109.431343
	 B(4,7,6)         =         1.911630	     109.528316
	 B(4,7,10)        =         1.911154	     109.501062
	 B(5,7,6)         =         1.910605	     109.469614
	 B(5,7,10)        =         1.910047	     109.437654
	 B(6,7,10)        =         1.910425	     109.459295
	 B(7,10,8)        =         1.909985	     109.434102
	 B(7,10,9)        =         1.910639	     109.471555
	 B(7,10,14)       =         1.911504	     109.521127
	 B(8,10,9)        =         1.909991	     109.434438
	 B(8,10,14)       =         1.911085	     109.497093
	 B(9,10,14)       =         1.910594	     109.468969
	 B(10,14,11)      =         1.910666	     109.473117
	 B(10,14,12)      =         1.911190	     109.503123
	 B(10,14,13)      =         1.911463	     109.518767
	 B(11,14,12)      =         1.911059	     109.495599
	 B(11,14,13)      =         1.910799	     109.480745
	 B(12,14,13)      =         1.908621	     109.355934
	 D(1,4,7,5)       =         3.140997	     179.965873
	 D(1,4,7,6)       =        -1.047644	     -60.025575
	 D(1,4,7,10)      =         1.047427	      60.013132
	 D(2,4,7,5)       =        -1.047689	     -60.028143
	 D(2,4,7,6)       =         1.046856	      59.980409
	 D(2,4,7,10)      =        -3.141259	    -179.980883
	 D(3,4,7,5)       =         1.046044	      59.933911
	 D(3,4,7,6)       =         3.140588	     179.942463
	 D(3,4,7,10)      =        -1.047526	     -60.018830
	 D(4,7,10,8)      =         2.269371	     130.025401
	 D(4,7,10,9)      =        -1.920598	    -110.042135
	 D(4,7,10,14)     =         0.174287	       9.985896
	 D(5,7,10,8)      =         0.175869	      10.076526
	 D(5,7,10,9)      =         2.269085	     130.008989
	 D(5,7,10,14)     =        -1.919216	    -109.962980
	 D(6,7,10,8)      =        -1.918006	    -109.893673
	 D(6,7,10,9)      =         0.175210	      10.038791
	 D(6,7,10,14)     =         2.270094	     130.066822
	 D(7,10,14,11)    =         3.141218	     179.978536
	 D(7,10,14,12)    =         1.045940	      59.927955
	 D(7,10,14,13)    =        -1.046840	     -59.979490
	 D(8,10,14,11)    =         1.046806	      59.977561
	 D(8,10,14,12)    =        -1.048472	     -60.073021
	 D(8,10,14,13)    =        -3.141252	    -179.980465
	 D(9,10,14,11)    =        -1.047055	     -59.991852
	 D(9,10,14,12)    =         3.140852	     179.957567
	 D(9,10,14,13)    =         1.048072	      60.050123

	Current energy   :      -158.4315761718

	Generating empirical Hessian (Schlegel '84) for each fragment.
	Adding user-defined constraint: Fragment 1; Coordinate 49:
		Value =     0.174287; Fixed value    =     0.174533
		Force =     0.000123; Force constant =     0.500000
	Removing off-diagonal coupling between coordinate 49 and others.
	Taking RFO optimization step.
	Going to follow RFO solution 1.
	Using RFO vector 1.

	Determining step-restricting scale parameter for RS-RFO.
	Maximum step size allowed    0.10000

	 Iter      |step|        alpha        rfo_root  
	------------------------------------------------
	    0     0.50322       1.00000           1
	    1     0.32984       4.31140           1
	    2     0.21848      13.28086           1
	    3     0.15298      31.54112           1
	    4     0.11807      57.07405           1
	    5     0.10341      76.70574           1
	    6     0.10016      82.29733           1
	    7     0.10000      82.59571           1
	------------------------------------------------
	Norm of target step-size    0.10000
	Projected energy change by RFO approximation:        -0.0140588120

	Back-transformation to cartesian coordinates...
	Could not converge backtransformation.
	Using first guess instead.

	--- Internal Coordinate Step in ANG or DEG, aJ/ANG or AJ/DEG ---
	 ---------------------------------------------------------------------------
	   Coordinate                Previous        Force       Change         New 
	   ----------                --------       ------       ------       ------
	    1 R(1,4)          =      1.069698     0.159370     0.007169     1.076867
	    2 R(2,4)          =      1.070683     0.183983     0.008983     1.079666
	    3 R(3,4)          =      1.069320     0.141888     0.006725     1.076046
	    4 R(4,7)          =      1.540645     0.067104     0.004815     1.545460
	    5 R(5,7)          =      1.070326     0.183296     0.007760     1.078086
	    6 R(6,7)          =      1.069761     0.183894     0.007877     1.077637
	    7 R(7,10)         =      1.540128     0.333891     0.014897     1.555025
	    8 R(8,10)         =      1.069365     0.186623     0.007989     1.077354
	    9 R(9,10)         =      1.069289     0.189833     0.008028     1.077317
	   10 R(10,14)        =      1.539679     0.070897     0.004984     1.544662
	   11 R(11,14)        =      1.069200     0.193174     0.009357     1.078557
	   12 R(12,14)        =      1.069479     0.161001     0.007238     1.076716
	   13 R(13,14)        =      1.070212     0.136623     0.006509     1.076721
	   14 B(1,4,2)        =    109.484805    -0.000414    -0.217420   109.267384
	   15 B(1,4,3)        =    109.499161    -0.000341    -0.275379   109.223782
	   16 B(1,4,7)        =    109.457783     0.000493     0.287411   109.745194
	   17 B(2,4,3)        =    109.437340    -0.000446    -0.233461   109.203879
	   18 B(2,4,7)        =    109.467262     0.000055     0.041512   109.508775
	   19 B(3,4,7)        =    109.480971     0.000652     0.394048   109.875019
	   20 B(4,7,5)        =    109.431343    -0.001437    -0.789975   108.641368
	   21 B(4,7,6)        =    109.528316    -0.001576    -0.845716   108.682600
	   22 B(4,7,10)       =    109.501062     0.005103     2.802903   112.303965
	   23 B(5,7,6)        =    109.469614     0.000628     0.275084   109.744698
	   24 B(5,7,10)       =    109.437654    -0.001352    -0.718530   108.719124
	   25 B(6,7,10)       =    109.459295    -0.001366    -0.731429   108.727866
	   26 B(7,10,8)       =    109.434102    -0.001364    -0.730314   108.703788
	   27 B(7,10,9)       =    109.471555    -0.001357    -0.721513   108.750042
	   28 B(7,10,14)      =    109.521127     0.005102     2.801884   112.323011
	   29 B(8,10,9)       =    109.434438     0.000630     0.276139   109.710578
	   30 B(8,10,14)      =    109.497093    -0.001572    -0.843042   108.654050
	   31 B(9,10,14)      =    109.468969    -0.001441    -0.792308   108.676661
	   32 B(10,14,11)     =    109.473117     0.000060     0.045023   109.518140
	   33 B(10,14,12)     =    109.503123     0.000483     0.282023   109.785146
	   34 B(10,14,13)     =    109.518767     0.000647     0.391527   109.910294
	   35 B(11,14,12)     =    109.495599    -0.000413    -0.217304   109.278295
	   36 B(11,14,13)     =    109.480745    -0.000449    -0.237026   109.243719
	   37 B(12,14,13)     =    109.355934    -0.000329    -0.267954   109.087980
	   38 D(1,4,7,5)      =    179.965873     0.000159     0.368692   180.334565
	   39 D(1,4,7,6)      =    -60.025575    -0.000088    -0.270665   -60.296240
	   40 D(1,4,7,10)     =     60.013132     0.000025     0.025369    60.038501
	   41 D(2,4,7,5)      =    -60.028143     0.000120     0.304060   -59.724082
	   42 D(2,4,7,6)      =     59.980409    -0.000127    -0.335296    59.645113
	   43 D(2,4,7,10)     =   -179.980883    -0.000014    -0.039263  -180.020146
	   44 D(3,4,7,5)      =     59.933911     0.000094     0.285351    60.219262
	   45 D(3,4,7,6)      =    179.942463    -0.000153    -0.354005   179.588458
	   46 D(3,4,7,10)     =    -60.018830    -0.000040    -0.057972   -60.076802
	   47 D(4,7,10,8)     =    130.025401     0.000128     0.316537   130.341939
	   48 D(4,7,10,9)     =   -110.042135    -0.000077    -0.212636  -110.254771
	   49 D(4,7,10,14)    =      9.985896     0.000045     0.087427    10.073323
	   50 D(5,7,10,8)     =     10.076526     0.000006     0.014386    10.090912
	   51 D(5,7,10,9)     =    130.008989    -0.000199    -0.514787   129.494202
	   52 D(5,7,10,14)    =   -109.962980    -0.000077    -0.214724  -110.177704
	   53 D(6,7,10,8)     =   -109.893673     0.000210     0.544147  -109.349526
	   54 D(6,7,10,9)     =     10.038791     0.000006     0.014974    10.053765
	   55 D(6,7,10,14)    =    130.066822     0.000127     0.315037   130.381859
	   56 D(7,10,14,11)   =    179.978536    -0.000014    -0.037536   179.941000
	   57 D(7,10,14,12)   =     59.927955     0.000026     0.027873    59.955828
	   58 D(7,10,14,13)   =    -59.979490    -0.000040    -0.059542   -60.039032
	   59 D(8,10,14,11)   =     59.977561    -0.000127    -0.333971    59.643590
	   60 D(8,10,14,12)   =    -60.073021    -0.000087    -0.268562   -60.341583
	   61 D(8,10,14,13)   =   -179.980465    -0.000153    -0.355978  -180.336443
	   62 D(9,10,14,11)   =    -59.991852     0.000120     0.303400   -59.688452
	   63 D(9,10,14,12)   =    179.957567     0.000159     0.368809   180.326376
	   64 D(9,10,14,13)   =     60.050123     0.000093     0.281393    60.331516
	 ---------------------------------------------------------------------------
	 Forces used to impose fixed constraints are not included.
	  Forces zeroed: 49 

  ==> Convergence Check <==

  Measures of convergence in internal coordinates in au.
  Criteria marked as inactive (o), active & met (*), and active & unmet ( ).
  --------------------------------------------------------------------------------------------- ~
   Step     Total Energy     Delta E     MAX Force     RMS Force      MAX Disp      RMS Disp    ~
  --------------------------------------------------------------------------------------------- ~
    Convergence Criteria    1.00e-06 *    3.00e-04 *             o    1.20e-03 *             o  ~
  --------------------------------------------------------------------------------------------- ~
      1    -158.43157617   -1.58e+02      6.71e-02      1.75e-02 o    4.89e-02      1.27e-02 o  ~
  ---------------------------------------------------------------------------------------------

	Writing optimization data to binary file.
	Structure for next step:
	Cartesian Geometry (in Angstrom)
	    H    -1.7188603586   0.3901539191   0.6007505363
	    H    -1.5056315245   2.0303862253   0.0034281782
	    H    -1.2834065977   0.6628996997  -1.0775130760
	    C    -1.1505803451   1.0133336607  -0.0688369916
	    H     0.8966982118   1.5942829644  -0.3638049702
	    H     0.4578739677   1.3219764489   1.3219662492
	    C     0.3460914823   0.9608187317   0.3128220135
	    H     1.8388884775  -0.4528356496  -0.3401670080
	    H     1.1320585021  -0.8272960265   1.2296663393
	    C     0.9258070338  -0.4797851239   0.2310131785
	    H     0.3955014738  -2.4490279301  -0.4784717578
	    H    -0.2648499619  -1.1398149062  -1.4476584618
	    H    -0.9697858672  -1.5147591390   0.1141905071
	    C    -0.0506714148  -1.4676650293  -0.4446828285
			--------------------------
			 OPTKING Finished Execution 
			--------------------------

    Structure for next step:
    Molecular point group: c1
    Full point group: C1

    Geometry (in Angstrom), charge = 0, multiplicity = 1:

    H           -1.715731029108     0.391300864921     0.602080695844
    H           -1.502502195017     2.031533171116     0.004758337806
    H           -1.280277268238     0.664046645467    -1.076182916429
    C           -1.147451015650     1.014480606510    -0.067506832055
    H            0.899827541287     1.595429910242    -0.362474810616
    H            0.461003297150     1.323123394750     1.323296408779
    C            0.349220811798     0.961965677478     0.314152173040
    H            1.842017806943    -0.451688703827    -0.338836848409
    H            1.135187831518    -0.826149080743     1.230996498898
    C            0.928936363224    -0.478638178062     0.232343338052
    H            0.398630803246    -2.447880984333    -0.477141598228
    H           -0.261720632417    -1.138667960379    -1.446328302234
    H           -0.966656537711    -1.513612193232     0.115520666695
    C           -0.047542085322    -1.466518083543    -0.443352668881

gradient() will perform analytic gradient computation.

*** tstart() called on lski1497
*** at Tue Feb 21 17:43:09 2017


         ---------------------------------------------------------
                                   SCF
            by Justin Turney, Rob Parrish, and Andy Simmonett
                              RKS Reference
                        1 Threads,   1000 MiB Core
         ---------------------------------------------------------

  ==> Geometry <==

    Molecular point group: c1
    Full point group: C1

    Geometry (in Angstrom), charge = 0, multiplicity = 1:

       Center              X                  Y                   Z               Mass       
    ------------   -----------------  -----------------  -----------------  -----------------
           H         -1.715731029108     0.391300864921     0.602080695844     1.007825032070
           H         -1.502502195017     2.031533171116     0.004758337806     1.007825032070
           H         -1.280277268238     0.664046645467    -1.076182916429     1.007825032070
           C         -1.147451015650     1.014480606510    -0.067506832055    12.000000000000
           H          0.899827541287     1.595429910242    -0.362474810616     1.007825032070
           H          0.461003297150     1.323123394750     1.323296408779     1.007825032070
           C          0.349220811798     0.961965677478     0.314152173040    12.000000000000
           H          1.842017806943    -0.451688703827    -0.338836848409     1.007825032070
           H          1.135187831518    -0.826149080743     1.230996498898     1.007825032070
           C          0.928936363224    -0.478638178062     0.232343338052    12.000000000000
           H          0.398630803246    -2.447880984333    -0.477141598228     1.007825032070
           H         -0.261720632417    -1.138667960379    -1.446328302234     1.007825032070
           H         -0.966656537711    -1.513612193232     0.115520666695     1.007825032070
           C         -0.047542085322    -1.466518083543    -0.443352668881    12.000000000000

  Running in c1 symmetry.

  Rotational constants: A =      0.38473  B =      0.19307  C =      0.14235 [cm^-1]
  Rotational constants: A =  11533.98449  B =   5788.09226  C =   4267.62094 [MHz]
  Nuclear repulsion =  134.436869921393253

  Charge       = 0
  Multiplicity = 1
  Electrons    = 34
  Nalpha       = 17
  Nbeta        = 17

  ==> Algorithm <==

  SCF Algorithm Type is DF.
  DIIS enabled.
  MOM disabled.
  Fractional occupation disabled.
  Guess Type is READ.
  Energy threshold   = 1.00e-08
  Density threshold  = 1.00e-08
  Integral threshold = 0.00e+00

  ==> Primary Basis <==

  Basis Set: CC-PVDZ
    Number of shells: 54
    Number of basis function: 106
    Number of Cartesian functions: 110
    Spherical Harmonics?: true
    Max angular momentum: 2

  ==> DFT Potential <==

   => B3LYP Composite Functional <= 

    B3LYP Hybrid-GGA Exchange-Correlation Functional (VWN1-RPA)

    P.J. Stephens et. al., J. Phys. Chem., 98, 11623-11627, 1994

    Points   =           5000
    Deriv    =              1
    GGA      =           TRUE
    Meta     =          FALSE

    X_LRC        =          FALSE
    X_Hybrid     =           TRUE
    X_Alpha      =   2.000000E-01
    X_Omega      =   0.000000E+00
    C_LRC        =          FALSE
    C_Hybrid     =          FALSE
    C_Alpha      =   0.000000E+00
    C_Omega      =   0.000000E+00

   => Exchange Functionals <=

    0.8000    B3_X
    0.2000      HF 

   => Correlation Functionals <=

    0.1900 VWN3RPA_C
    0.8100   LYP_C

   => Molecular Quadrature <=

    Radial Scheme    =       TREUTLER
    Pruning Scheme   =           FLAT
    Nuclear Scheme   =       TREUTLER

    BS radius alpha  =              1
    Pruning alpha    =              1
    Radial Points    =             75
    Spherical Points =            302
    Total Points     =         312671
    Total Blocks     =            265
    Max Points       =           4900
    Max Functions    =            106

  ==> Pre-Iterations <==

   -------------------------------------------------------
    Irrep   Nso     Nmo     Nalpha   Nbeta   Ndocc  Nsocc
   -------------------------------------------------------
     A        106     106       0       0       0       0
   -------------------------------------------------------
    Total     106     106      17      17      17       0
   -------------------------------------------------------

  ==> Integral Setup <==

  ==> DFJK: Density-Fitted J/K Matrices <==

    J tasked:                  Yes
    K tasked:                  Yes
    wK tasked:                  No
    OpenMP threads:              1
    Integrals threads:           1
    Memory (MB):               715
    Algorithm:                Core
    Integral Cache:           NONE
    Schwarz Cutoff:          1E-12
    Fitting Condition:       1E-12

   => Auxiliary Basis Set <=

  Basis Set: 
    Number of shells: 186
    Number of basis function: 510
    Number of Cartesian functions: 574
    Spherical Harmonics?: true
    Max angular momentum: 3

  Minimum eigenvalue in the overlap matrix is 3.1126702391E-03.
  Using Symmetric Orthogonalization.
  SCF Guess was Projection but file not found.
  Switching over to SAD guess.

  SCF Guess: Superposition of Atomic Densities via on-the-fly atomic UHF.

  ==> Iterations <==

                           Total Energy        Delta E     RMS |[F,P]|

   @DF-RKS iter   0:  -158.96159140672549   -1.58962e+02   3.29716e-02 
   @DF-RKS iter   1:  -158.26060471316137    7.00987e-01   5.33614e-03 
   @DF-RKS iter   2:  -158.18346528609979    7.71394e-02   6.47040e-03 DIIS
   @DF-RKS iter   3:  -158.44102467876385   -2.57559e-01   3.92334e-04 DIIS
   @DF-RKS iter   4:  -158.44189944985374   -8.74771e-04   1.13479e-04 DIIS
   @DF-RKS iter   5:  -158.44196311825115   -6.36684e-05   4.55045e-05 DIIS
   @DF-RKS iter   6:  -158.44197426022419   -1.11420e-05   7.44591e-06 DIIS
   @DF-RKS iter   7:  -158.44197460351938   -3.43295e-07   9.60007e-07 DIIS
   @DF-RKS iter   8:  -158.44197460959973   -6.08034e-09   1.72027e-07 DIIS
   @DF-RKS iter   9:  -158.44197460973942   -1.39693e-10   8.68144e-08 DIIS
   @DF-RKS iter  10:  -158.44197460978046   -4.10409e-11   1.40509e-08 DIIS
   @DF-RKS iter  11:  -158.44197460978222   -1.76215e-12   1.91429e-09 DIIS

  ==> Post-Iterations <==

    Orbital Energies (a.u.)
    -----------------------

    Doubly Occupied:                                                      

       1A    -10.172259     2A    -10.172061     3A    -10.165792  
       4A    -10.165677     5A     -0.792480     6A     -0.713282  
       7A     -0.647366     8A     -0.557901     9A     -0.471944  
      10A     -0.450845    11A     -0.407063    12A     -0.385544  
      13A     -0.374597    14A     -0.368711    15A     -0.319626  
      16A     -0.318215    17A     -0.313728  

    Virtual:                                                              

      18A      0.057311    19A      0.094125    20A      0.097899  
      21A      0.109853    22A      0.128519    23A      0.130944  
      24A      0.156515    25A      0.177317    26A      0.180186  
      27A      0.187457    28A      0.229180    29A      0.239164  
      30A      0.291599    31A      0.410970    32A      0.426010  
      33A      0.428707    34A      0.436009    35A      0.467344  
      36A      0.495027    37A      0.513460    38A      0.587080  
      39A      0.589834    40A      0.620904    41A      0.643945  
      42A      0.659988    43A      0.663513    44A      0.664744  
      45A      0.669121    46A      0.692713    47A      0.697721  
      48A      0.708385    49A      0.733426    50A      0.741923  
      51A      0.756844    52A      0.845591    53A      0.866104  
      54A      0.880733    55A      0.959954    56A      1.070800  
      57A      1.204015    58A      1.234042    59A      1.238067  
      60A      1.261398    61A      1.294141    62A      1.318975  
      63A      1.395884    64A      1.487062    65A      1.513282  
      66A      1.550593    67A      1.565796    68A      1.589471  
      69A      1.612276    70A      1.639818    71A      1.654898  
      72A      1.664848    73A      1.677484    74A      1.690623  
      75A      1.692193    76A      1.711721    77A      1.713748  
      78A      1.737710    79A      1.752735    80A      1.804117  
      81A      1.813983    82A      1.868357    83A      1.881548  
      84A      1.922844    85A      1.941799    86A      2.000930  
      87A      2.035694    88A      2.085315    89A      2.131016  
      90A      2.152628    91A      2.217698    92A      2.240616  
      93A      2.254743    94A      2.290599    95A      2.364106  
      96A      2.388265    97A      2.475677    98A      2.481308  
      99A      2.497313   100A      2.504697   101A      2.585414  
     102A      2.597345   103A      2.630234   104A      2.631807  
     105A      2.645720   106A      2.772097  

    Final Occupation by Irrep:
              A 
    DOCC [    17 ]

  Energy converged.

  @DF-RKS Final Energy:  -158.44197460978222

   => Energetics <=

    Nuclear Repulsion Energy =            134.4368699213932530
    One-Electron Energy =                -477.3129729133607384
    Two-Electron Energy =                 205.0934167964066717
    DFT Exchange-Correlation Energy =     -20.6592884142213862
    Empirical Dispersion Energy =           0.0000000000000000
    PCM Polarization Energy =               0.0000000000000000
    EFP Energy =                            0.0000000000000000
    Total Energy =                       -158.4419746097822213


  Saving occupied orbitals to File 180.

*** tstop() called on lski1497 at Tue Feb 21 17:45:23 2017
Module time:
	user time   =     110.00 seconds =       1.83 minutes
	system time =       1.09 seconds =       0.02 minutes
	total time  =        134 seconds =       2.23 minutes
Total time:
	user time   =     272.49 seconds =       4.54 minutes
	system time =       2.88 seconds =       0.05 minutes
	total time  =        314 seconds =       5.23 minutes


Properties will be evaluated at   0.000000,   0.000000,   0.000000 Bohr

Properties computed using the SCF density matrix

  Nuclear Dipole Moment: (a.u.)
     X:    -0.9283      Y:    -0.3493      Z:    -0.3978

  Electronic Dipole Moment: (a.u.)
     X:     0.9393      Y:     0.3530      Z:     0.4023

  Dipole Moment: (a.u.)
     X:     0.0110      Y:     0.0037      Z:     0.0045     Total:     0.0125

  Dipole Moment: (Debye)
     X:     0.0280      Y:     0.0094      Z:     0.0114     Total:     0.0317


*** tstart() called on lski1497
*** at Tue Feb 21 17:45:23 2017


         ------------------------------------------------------------
                                   SCF GRAD                          
                          Rob Parrish, Justin Turney,                
                       Andy Simmonett, and Alex Sokolov              
         ------------------------------------------------------------

  ==> Geometry <==

    Molecular point group: c1
    Full point group: C1

    Geometry (in Angstrom), charge = 0, multiplicity = 1:

       Center              X                  Y                   Z               Mass       
    ------------   -----------------  -----------------  -----------------  -----------------
           H         -1.715731029108     0.391300864921     0.602080695844     1.007825032070
           H         -1.502502195017     2.031533171116     0.004758337806     1.007825032070
           H         -1.280277268238     0.664046645467    -1.076182916429     1.007825032070
           C         -1.147451015650     1.014480606510    -0.067506832055    12.000000000000
           H          0.899827541287     1.595429910242    -0.362474810616     1.007825032070
           H          0.461003297150     1.323123394750     1.323296408779     1.007825032070
           C          0.349220811798     0.961965677478     0.314152173040    12.000000000000
           H          1.842017806943    -0.451688703827    -0.338836848409     1.007825032070
           H          1.135187831518    -0.826149080743     1.230996498898     1.007825032070
           C          0.928936363224    -0.478638178062     0.232343338052    12.000000000000
           H          0.398630803246    -2.447880984333    -0.477141598228     1.007825032070
           H         -0.261720632417    -1.138667960379    -1.446328302234     1.007825032070
           H         -0.966656537711    -1.513612193232     0.115520666695     1.007825032070
           C         -0.047542085322    -1.466518083543    -0.443352668881    12.000000000000

  Nuclear repulsion =  134.436869921393253

  ==> Basis Set <==

  Basis Set: CC-PVDZ
    Number of shells: 54
    Number of basis function: 106
    Number of Cartesian functions: 110
    Spherical Harmonics?: true
    Max angular momentum: 2

  ==> DFJKGrad: Density-Fitted SCF Gradients <==

    Gradient:                    1
    J tasked:                  Yes
    K tasked:                  Yes
    wK tasked:                  No
    OpenMP threads:              1
    Integrals threads:           1
    Memory (MB):               715
    Schwarz Cutoff:          0E+00
    Fitting Condition:       1E-12

   => Auxiliary Basis Set <=

  Basis Set: 
    Number of shells: 186
    Number of basis function: 510
    Number of Cartesian functions: 574
    Spherical Harmonics?: true
    Max angular momentum: 3

  ==> DFT Potential <==

   => B3LYP Composite Functional <= 

    B3LYP Hybrid-GGA Exchange-Correlation Functional (VWN1-RPA)

    P.J. Stephens et. al., J. Phys. Chem., 98, 11623-11627, 1994

    Points   =           5000
    Deriv    =              1
    GGA      =           TRUE
    Meta     =          FALSE

    X_LRC        =          FALSE
    X_Hybrid     =           TRUE
    X_Alpha      =   2.000000E-01
    X_Omega      =   0.000000E+00
    C_LRC        =          FALSE
    C_Hybrid     =          FALSE
    C_Alpha      =   0.000000E+00
    C_Omega      =   0.000000E+00

   => Exchange Functionals <=

    0.8000    B3_X
    0.2000      HF 

   => Correlation Functionals <=

    0.1900 VWN3RPA_C
    0.8100   LYP_C

   => Molecular Quadrature <=

    Radial Scheme    =       TREUTLER
    Pruning Scheme   =           FLAT
    Nuclear Scheme   =       TREUTLER

    BS radius alpha  =              1
    Pruning alpha    =              1
    Radial Points    =             75
    Spherical Points =            302
    Total Points     =         312671
    Total Blocks     =            265
    Max Points       =           4900
    Max Functions    =            106


  -Total Gradient:
     Atom            X                  Y                   Z
    ------   -----------------  -----------------  -----------------
       1        0.012282971455     0.006900278288    -0.008590111961
       2        0.007538001311    -0.013403978885    -0.000532854871
       3        0.006372398869     0.002719815741     0.014262657602
       4       -0.024067550880    -0.008634003467    -0.008698606439
       5       -0.008481494223    -0.013079430490     0.007036619028
       6       -0.004287027000    -0.010143172366    -0.013418505351
       7        0.017017781903     0.020351490290     0.008574894032
       8       -0.016819088115     0.002204316669     0.004609339836
       9       -0.007287209611     0.007296665540    -0.014291158508
      10        0.025794454495    -0.004545964895     0.010029578056
      11       -0.004439246278     0.015420394926     0.001994116505
      12        0.004542613000    -0.000562385199     0.015977976143
      13        0.013522058708     0.005030604724    -0.005435128076
      14       -0.021685206808    -0.009553827156    -0.011517569161


*** tstop() called on lski1497 at Tue Feb 21 17:46:04 2017
Module time:
	user time   =      37.58 seconds =       0.63 minutes
	system time =       0.58 seconds =       0.01 minutes
	total time  =         41 seconds =       0.68 minutes
Total time:
	user time   =     310.09 seconds =       5.17 minutes
	system time =       3.46 seconds =       0.06 minutes
	total time  =        355 seconds =       5.92 minutes

			-----------------------------------------
			 OPTKING 2.0: for geometry optimizations 
			  - R.A. King,  Bethel University        
			-----------------------------------------

	Previous internal coordinate definitions found.
	---Fragment 1 Geometry and Gradient---
	 H          -3.2422617627        0.7394514703        1.1377676250
	 H          -2.8393176626        3.8390413233        0.0089919553
	 H          -2.4193734111        1.2548662994       -2.0336909809
	 C          -2.1683681705        1.9170905134       -0.1275694247
	 H           1.7004276199        3.0149255946       -0.6849781221
	 H           0.8711699780        2.5003408561        2.5006678052
	 C           0.6599316942        1.8178516797        0.5936615711
	 H           3.4809091870       -0.8535679476       -0.6403088472
	 H           2.1451941110       -1.5611955075        2.3262462535
	 C           1.7554353214       -0.9044950733        0.4390652777
	 H           0.7533030463       -4.6258246663       -0.9016669473
	 H          -0.4945803186       -2.1517706014       -2.7331643895
	 H          -1.8267161208       -2.8603125166        0.2183024227
	 C          -0.0898415210       -2.7713175468       -0.8378151245
	             0.0122829715        0.0069002783       -0.0085901120
	             0.0075380013       -0.0134039789       -0.0005328549
	             0.0063723989        0.0027198157        0.0142626576
	            -0.0240675509       -0.0086340035       -0.0086986064
	            -0.0084814942       -0.0130794305        0.0070366190
	            -0.0042870270       -0.0101431724       -0.0134185054
	             0.0170177819        0.0203514903        0.0085748940
	            -0.0168190881        0.0022043167        0.0046093398
	            -0.0072872096        0.0072966655       -0.0142911585
	             0.0257944545       -0.0045459649        0.0100295781
	            -0.0044392463        0.0154203949        0.0019941165
	             0.0045426130       -0.0005623852        0.0159779761
	             0.0135220587        0.0050306047       -0.0054351281
	            -0.0216852068       -0.0095538272       -0.0115175692

	---Fragment 1 Intrafragment Coordinates---
	 - Coordinate -           - BOHR/RAD -       - ANG/DEG -
	 R(1,4)           =         2.034984	       1.076867
	 R(2,4)           =         2.040274	       1.079666
	 R(3,4)           =         2.033432	       1.076046
	 R(4,7)           =         2.920497	       1.545460
	 R(5,7)           =         2.037287	       1.078086
	 R(6,7)           =         2.036440	       1.077637
	 R(7,10)          =         2.938571	       1.555025
	 R(8,10)          =         2.035903	       1.077354
	 R(9,10)          =         2.035834	       1.077317
	 R(10,14)         =         2.918989	       1.544662
	 R(11,14)         =         2.038177	       1.078557
	 R(12,14)         =         2.034699	       1.076716
	 R(13,14)         =         2.034708	       1.076721
	 B(1,4,2)         =         1.907076	     109.267384
	 B(1,4,3)         =         1.906315	     109.223782
	 B(1,4,7)         =         1.915415	     109.745194
	 B(2,4,3)         =         1.905967	     109.203879
	 B(2,4,7)         =         1.911289	     109.508775
	 B(3,4,7)         =         1.917681	     109.875019
	 B(4,7,5)         =         1.896150	     108.641368
	 B(4,7,6)         =         1.896869	     108.682600
	 B(4,7,10)        =         1.960074	     112.303965
	 B(5,7,6)         =         1.915406	     109.744698
	 B(5,7,10)        =         1.897507	     108.719124
	 B(6,7,10)        =         1.897659	     108.727866
	 B(7,10,8)        =         1.897239	     108.703788
	 B(7,10,9)        =         1.898046	     108.750042
	 B(7,10,14)       =         1.960406	     112.323011
	 B(8,10,9)        =         1.914811	     109.710578
	 B(8,10,14)       =         1.896371	     108.654050
	 B(9,10,14)       =         1.896766	     108.676661
	 B(10,14,11)      =         1.911452	     109.518140
	 B(10,14,12)      =         1.916112	     109.785146
	 B(10,14,13)      =         1.918297	     109.910294
	 B(11,14,12)      =         1.907266	     109.278295
	 B(11,14,13)      =         1.906663	     109.243719
	 B(12,14,13)      =         1.903944	     109.087980
	 D(1,4,7,5)       =        -3.135753	    -179.665435
	 D(1,4,7,6)       =        -1.052368	     -60.296240
	 D(1,4,7,10)      =         1.047870	      60.038501
	 D(2,4,7,5)       =        -1.042382	     -59.724082
	 D(2,4,7,6)       =         1.041004	      59.645113
	 D(2,4,7,10)      =         3.141241	     179.979854
	 D(3,4,7,5)       =         1.051024	      60.219262
	 D(3,4,7,6)       =         3.134410	     179.588458
	 D(3,4,7,10)      =        -1.048538	     -60.076802
	 D(4,7,10,8)      =         2.274896	     130.341939
	 D(4,7,10,9)      =        -1.924309	    -110.254771
	 D(4,7,10,14)     =         0.175813	      10.073323
	 D(5,7,10,8)      =         0.176120	      10.090912
	 D(5,7,10,9)      =         2.260100	     129.494202
	 D(5,7,10,14)     =        -1.922964	    -110.177704
	 D(6,7,10,8)      =        -1.908509	    -109.349526
	 D(6,7,10,9)      =         0.175471	      10.053765
	 D(6,7,10,14)     =         2.275593	     130.381859
	 D(7,10,14,11)    =         3.140563	     179.941000
	 D(7,10,14,12)    =         1.046427	      59.955828
	 D(7,10,14,13)    =        -1.047879	     -60.039032
	 D(8,10,14,11)    =         1.040977	      59.643590
	 D(8,10,14,12)    =        -1.053159	     -60.341583
	 D(8,10,14,13)    =         3.135721	     179.663557
	 D(9,10,14,11)    =        -1.041760	     -59.688452
	 D(9,10,14,12)    =        -3.135896	    -179.673624
	 D(9,10,14,13)    =         1.052984	      60.331516

	Current energy   :      -158.4419746098

	Energy change for the previous step:
		Projected    :        -0.0140588120
		Actual       :        -0.0103984380

	Performing BFGS update.
	Previous computed or guess Hessian on step 1.
	Steps to be used in Hessian update: 1
	Adding user-defined constraint: Fragment 1; Coordinate 49:
		Value =     0.175813; Fixed value    =     0.174530
		Force =    -0.000673; Force constant =     0.525000
	Removing off-diagonal coupling between coordinate 49 and others.
	Taking RFO optimization step.
	Going to follow RFO solution 1.
	Using RFO vector 1.

	Determining step-restricting scale parameter for RS-RFO.
	Maximum step size allowed    0.10000

	 Iter      |step|        alpha        rfo_root  
	------------------------------------------------
	    0     0.21405       1.00000           1
	    1     0.16129       7.68023           1
	    2     0.12468      21.72731           1
	    3     0.10622      36.71145           1
	    4     0.10057      43.36050           1
	    5     0.10001      44.09120           1
	------------------------------------------------
	Norm of target step-size    0.10001
	Projected energy change by RFO approximation:        -0.0068222699

	Back-transformation to cartesian coordinates...
	Successfully converged to displaced geometry.

	--- Internal Coordinate Step in ANG or DEG, aJ/ANG or AJ/DEG ---
	 ---------------------------------------------------------------------------
	   Coordinate                Previous        Force       Change         New 
	   ----------                --------       ------       ------       ------
	    1 R(1,4)          =      1.076867     0.130299     0.014084     1.090951
	    2 R(2,4)          =      1.079666     0.124745     0.012641     1.092307
	    3 R(3,4)          =      1.076046     0.123932     0.013929     1.089974
	    4 R(4,7)          =      1.545460     0.013187    -0.000226     1.545235
	    5 R(5,7)          =      1.078086     0.135394     0.013729     1.091814
	    6 R(6,7)          =      1.077637     0.135193     0.013712     1.091349
	    7 R(7,10)         =      1.555025     0.136867     0.007644     1.562669
	    8 R(8,10)         =      1.077354     0.137116     0.013895     1.091249
	    9 R(9,10)         =      1.077317     0.140034     0.014172     1.091488
	   10 R(10,14)        =      1.544662     0.016142     0.000116     1.544778
	   11 R(11,14)        =      1.078557     0.131241     0.013263     1.091820
	   12 R(12,14)        =      1.076716     0.131470     0.014197     1.090914
	   13 R(13,14)        =      1.076721     0.120157     0.013568     1.090290
	   14 B(1,4,2)        =    109.267384    -0.000313    -0.476911   108.790473
	   15 B(1,4,3)        =    109.223782    -0.000299    -0.549529   108.674254
	   16 B(1,4,7)        =    109.745194     0.000382     0.613917   110.359111
	   17 B(2,4,3)        =    109.203879    -0.000314    -0.450665   108.753214
	   18 B(2,4,7)        =    109.508775     0.000106     0.231679   109.740454
	   19 B(3,4,7)        =    109.875019     0.000429     0.605663   110.480683
	   20 B(4,7,5)        =    108.641368    -0.000603    -0.385949   108.255419
	   21 B(4,7,6)        =    108.682600    -0.000640    -0.392535   108.290065
	   22 B(4,7,10)       =    112.303965     0.002147     1.418221   113.722186
	   23 B(5,7,6)        =    109.744698     0.000115    -0.203059   109.541639
	   24 B(5,7,10)       =    108.719124    -0.000507    -0.205352   108.513773
	   25 B(6,7,10)       =    108.727866    -0.000527    -0.260672   108.467194
	   26 B(7,10,8)       =    108.703788    -0.000526    -0.252301   108.451487
	   27 B(7,10,9)       =    108.750042    -0.000510    -0.214504   108.535538
	   28 B(7,10,14)      =    112.323011     0.002146     1.414331   113.737342
	   29 B(8,10,9)       =    109.710578     0.000117    -0.200242   109.510336
	   30 B(8,10,14)      =    108.654050    -0.000637    -0.389592   108.264458
	   31 B(9,10,14)      =    108.676661    -0.000606    -0.387699   108.288961
	   32 B(10,14,11)     =    109.518140     0.000111     0.233732   109.751872
	   33 B(10,14,12)     =    109.785146     0.000373     0.592866   110.378012
	   34 B(10,14,13)     =    109.910294     0.000424     0.597723   110.508017
	   35 B(11,14,12)     =    109.278295    -0.000312    -0.469238   108.809057
	   36 B(11,14,13)     =    109.243719    -0.000317    -0.456985   108.786735
	   37 B(12,14,13)     =    109.087980    -0.000286    -0.524350   108.563630
	   38 D(1,4,7,5)      =   -179.665435     0.000084     0.400684  -179.264752
	   39 D(1,4,7,6)      =    -60.296240    -0.000049    -0.284029   -60.580269
	   40 D(1,4,7,10)     =     60.038501     0.000012     0.021694    60.060195
	   41 D(2,4,7,5)      =    -59.724082     0.000065     0.339369   -59.384713
	   42 D(2,4,7,6)      =     59.645113    -0.000068    -0.345344    59.299770
	   43 D(2,4,7,10)     =    179.979854    -0.000007    -0.039621   179.940233
	   44 D(3,4,7,5)      =     60.219262     0.000052     0.306275    60.525537
	   45 D(3,4,7,6)      =    179.588458    -0.000081    -0.378437   179.210020
	   46 D(3,4,7,10)     =    -60.076802    -0.000020    -0.072715   -60.149516
	   47 D(4,7,10,8)     =    130.341939     0.000066     0.348823   130.690761
	   48 D(4,7,10,9)     =   -110.254771    -0.000039    -0.159315  -110.414086
	   49 D(4,7,10,14)    =     10.073323     0.000019     0.110333    10.183656
	   50 D(5,7,10,8)     =     10.090912     0.000007     0.069973    10.160884
	   51 D(5,7,10,9)     =    129.494202    -0.000099    -0.438165   129.056037
	   52 D(5,7,10,14)    =   -110.177704    -0.000040    -0.168517  -110.346221
	   53 D(6,7,10,8)     =   -109.349526     0.000112     0.581204  -108.768321
	   54 D(6,7,10,9)     =     10.053765     0.000007     0.073066    10.126831
	   55 D(6,7,10,14)    =    130.381859     0.000066     0.342715   130.724573
	   56 D(7,10,14,11)   =    179.941000    -0.000007    -0.029136   179.911864
	   57 D(7,10,14,12)   =     59.955828     0.000013     0.033889    59.989716
	   58 D(7,10,14,13)   =    -60.039032    -0.000020    -0.072814   -60.111846
	   59 D(8,10,14,11)   =     59.643590    -0.000068    -0.343944    59.299646
	   60 D(8,10,14,12)   =    -60.341583    -0.000048    -0.280919   -60.622502
	   61 D(8,10,14,13)   =    179.663557    -0.000081    -0.387622   179.275935
	   62 D(9,10,14,11)   =    -59.688452     0.000064     0.336485   -59.351967
	   63 D(9,10,14,12)   =   -179.673624     0.000084     0.399509  -179.274115
	   64 D(9,10,14,13)   =     60.331516     0.000051     0.292807    60.624322
	 ---------------------------------------------------------------------------
	 Forces used to impose fixed constraints are not included.
	  Forces zeroed: 49 

  ==> Convergence Check <==

  Measures of convergence in internal coordinates in au.
  Criteria marked as inactive (o), active & met (*), and active & unmet ( ).
  ---------------------------------------------------------------------------------------------
   Step     Total Energy     Delta E     MAX Force     RMS Force      MAX Disp      RMS Disp   
  ---------------------------------------------------------------------------------------------
    Convergence Criteria    1.00e-06 *    3.00e-04 *             o    1.20e-03 *             o
  ---------------------------------------------------------------------------------------------
      2    -158.44197461   -1.04e-02      2.82e-02      9.16e-03 o    2.68e-02      1.25e-02 o  ~
  ---------------------------------------------------------------------------------------------

	Writing optimization data to binary file.
	Structure for next step:
	Cartesian Geometry (in Angstrom)
	    H    -1.7371418055   0.4374295272   0.6482577729
	    H    -1.4970091813   2.0862084204   0.0360019083
	    H    -1.3428099506   0.6993591352  -1.0592517091
	    C    -1.1585804510   1.0507409544  -0.0440501357
	    H     0.8908119408   1.6007531410  -0.4104833196
	    H     0.4926472296   1.3385801056   1.3079344498
	    C     0.3472161337   0.9663114513   0.2924006845
	    H     1.8421685444  -0.4515619725  -0.3909341512
	    H     1.1678415988  -0.8191806153   1.2177612290
	    C     0.9301521330  -0.4810724541   0.2075465739
	    H     0.4358595219  -2.4883501249  -0.4594618114
	    H    -0.2859122626  -1.2046299345  -1.4500765579
	    H    -0.9569963053  -1.5720360670   0.1470459423
	    C    -0.0353034543  -1.5038264806  -0.4313667333
			--------------------------
			 OPTKING Finished Execution 
			--------------------------

    Structure for next step:
    Molecular point group: c1
    Full point group: C1

    Geometry (in Angstrom), charge = 0, multiplicity = 1:

    H           -1.737202424636     0.437266106701     0.650359677210
    H           -1.497069800507     2.086044999877     0.038103812619
    H           -1.342870569753     0.699195714712    -1.057149804787
    C           -1.158641070151     1.050577533849    -0.041948231370
    H            0.890751321612     1.600589720488    -0.408381415240
    H            0.492586610386     1.338416685025     1.310036354200
    C            0.347155514550     0.966148030783     0.294502588835
    H            1.842107925193    -0.451725392989    -0.388832246859
    H            1.167780979654    -0.819344035811     1.219863133330
    C            0.930091513836    -0.481235874598     0.209648478248
    H            0.435798902714    -2.488513545427    -0.457359907047
    H           -0.285972881772    -1.204793354999    -1.447974653513
    H           -0.957056924455    -1.572199487556     0.149147846615
    C           -0.035364073440    -1.503989901136    -0.429264828970

gradient() will perform analytic gradient computation.

*** tstart() called on lski1497
*** at Tue Feb 21 17:46:05 2017


         ---------------------------------------------------------
                                   SCF
            by Justin Turney, Rob Parrish, and Andy Simmonett
                              RKS Reference
                        1 Threads,   1000 MiB Core
         ---------------------------------------------------------

  ==> Geometry <==

    Molecular point group: c1
    Full point group: C1

    Geometry (in Angstrom), charge = 0, multiplicity = 1:

       Center              X                  Y                   Z               Mass       
    ------------   -----------------  -----------------  -----------------  -----------------
           H         -1.737202424636     0.437266106701     0.650359677210     1.007825032070
           H         -1.497069800507     2.086044999877     0.038103812619     1.007825032070
           H         -1.342870569753     0.699195714712    -1.057149804787     1.007825032070
           C         -1.158641070151     1.050577533849    -0.041948231370    12.000000000000
           H          0.890751321612     1.600589720488    -0.408381415240     1.007825032070
           H          0.492586610386     1.338416685025     1.310036354200     1.007825032070
           C          0.347155514550     0.966148030783     0.294502588835    12.000000000000
           H          1.842107925193    -0.451725392989    -0.388832246859     1.007825032070
           H          1.167780979654    -0.819344035811     1.219863133330     1.007825032070
           C          0.930091513836    -0.481235874598     0.209648478248    12.000000000000
           H          0.435798902714    -2.488513545427    -0.457359907047     1.007825032070
           H         -0.285972881772    -1.204793354999    -1.447974653513     1.007825032070
           H         -0.957056924455    -1.572199487556     0.149147846615     1.007825032070
           C         -0.035364073440    -1.503989901136    -0.429264828970    12.000000000000

  Running in c1 symmetry.

  Rotational constants: A =      0.38704  B =      0.18487  C =      0.13843 [cm^-1]
  Rotational constants: A =  11603.13075  B =   5542.17094  C =   4150.06711 [MHz]
  Nuclear repulsion =  133.080445353548981

  Charge       = 0
  Multiplicity = 1
  Electrons    = 34
  Nalpha       = 17
  Nbeta        = 17

  ==> Algorithm <==

  SCF Algorithm Type is DF.
  DIIS enabled.
  MOM disabled.
  Fractional occupation disabled.
  Guess Type is READ.
  Energy threshold   = 1.00e-08
  Density threshold  = 1.00e-08
  Integral threshold = 0.00e+00

  ==> Primary Basis <==

  Basis Set: CC-PVDZ
    Number of shells: 54
    Number of basis function: 106
    Number of Cartesian functions: 110
    Spherical Harmonics?: true
    Max angular momentum: 2

  ==> DFT Potential <==

   => B3LYP Composite Functional <= 

    B3LYP Hybrid-GGA Exchange-Correlation Functional (VWN1-RPA)

    P.J. Stephens et. al., J. Phys. Chem., 98, 11623-11627, 1994

    Points   =           5000
    Deriv    =              1
    GGA      =           TRUE
    Meta     =          FALSE

    X_LRC        =          FALSE
    X_Hybrid     =           TRUE
    X_Alpha      =   2.000000E-01
    X_Omega      =   0.000000E+00
    C_LRC        =          FALSE
    C_Hybrid     =          FALSE
    C_Alpha      =   0.000000E+00
    C_Omega      =   0.000000E+00

   => Exchange Functionals <=

    0.8000    B3_X
    0.2000      HF 

   => Correlation Functionals <=

    0.1900 VWN3RPA_C
    0.8100   LYP_C

   => Molecular Quadrature <=

    Radial Scheme    =       TREUTLER
    Pruning Scheme   =           FLAT
    Nuclear Scheme   =       TREUTLER

    BS radius alpha  =              1
    Pruning alpha    =              1
    Radial Points    =             75
    Spherical Points =            302
    Total Points     =         312692
    Total Blocks     =            270
    Max Points       =           4870
    Max Functions    =            106

  ==> Pre-Iterations <==

   -------------------------------------------------------
    Irrep   Nso     Nmo     Nalpha   Nbeta   Ndocc  Nsocc
   -------------------------------------------------------
     A        106     106       0       0       0       0
   -------------------------------------------------------
    Total     106     106      17      17      17       0
   -------------------------------------------------------

  ==> Integral Setup <==

  ==> DFJK: Density-Fitted J/K Matrices <==

    J tasked:                  Yes
    K tasked:                  Yes
    wK tasked:                  No
    OpenMP threads:              1
    Integrals threads:           1
    Memory (MB):               715
    Algorithm:                Core
    Integral Cache:           NONE
    Schwarz Cutoff:          1E-12
    Fitting Condition:       1E-12

   => Auxiliary Basis Set <=

  Basis Set: 
    Number of shells: 186
    Number of basis function: 510
    Number of Cartesian functions: 574
    Spherical Harmonics?: true
    Max angular momentum: 3

  Minimum eigenvalue in the overlap matrix is 3.2499109051E-03.
  Using Symmetric Orthogonalization.
  SCF Guess was Projection but file not found.
  Switching over to SAD guess.

  SCF Guess: Superposition of Atomic Densities via on-the-fly atomic UHF.

  ==> Iterations <==

                           Total Energy        Delta E     RMS |[F,P]|

   @DF-RKS iter   0:  -158.88578048006883   -1.58886e+02   3.21717e-02 
   @DF-RKS iter   1:  -158.26823606866833    6.17544e-01   5.28292e-03 
   @DF-RKS iter   2:  -158.18578818034641    8.24479e-02   6.47596e-03 DIIS
   @DF-RKS iter   3:  -158.44621279222699   -2.60425e-01   3.84075e-04 DIIS
   @DF-RKS iter   4:  -158.44706278842202   -8.49996e-04   1.14145e-04 DIIS
   @DF-RKS iter   5:  -158.44712814568015   -6.53573e-05   4.56638e-05 DIIS
   @DF-RKS iter   6:  -158.44713940289040   -1.12572e-05   7.58807e-06 DIIS
   @DF-RKS iter   7:  -158.44713975998377   -3.57093e-07   9.61791e-07 DIIS
   @DF-RKS iter   8:  -158.44713976609484   -6.11107e-09   1.81793e-07 DIIS
   @DF-RKS iter   9:  -158.44713976624601   -1.51175e-10   9.52493e-08 DIIS
   @DF-RKS iter  10:  -158.44713976629581   -4.97948e-11   1.38769e-08 DIIS
   @DF-RKS iter  11:  -158.44713976629689   -1.08002e-12   2.44880e-09 DIIS

  ==> Post-Iterations <==

    Orbital Energies (a.u.)
    -----------------------

    Doubly Occupied:                                                      

       1A    -10.176771     2A    -10.176624     3A    -10.170925  
       4A    -10.170865     5A     -0.788374     6A     -0.712831  
       7A     -0.642978     8A     -0.555519     9A     -0.467760  
      10A     -0.446706    11A     -0.405916    12A     -0.384711  
      13A     -0.371657    14A     -0.368018    15A     -0.319734  
      16A     -0.318931    17A     -0.312028  

    Virtual:                                                              

      18A      0.054681    19A      0.092112    20A      0.095326  
      21A      0.107543    22A      0.125481    23A      0.129565  
      24A      0.153260    25A      0.172346    26A      0.173093  
      27A      0.187252    28A      0.221795    29A      0.235726  
      30A      0.291564    31A      0.408148    32A      0.418515  
      33A      0.426711    34A      0.437098    35A      0.470406  
      36A      0.494873    37A      0.515887    38A      0.582684  
      39A      0.587147    40A      0.610630    41A      0.641903  
      42A      0.651314    43A      0.656188    44A      0.659556  
      45A      0.659964    46A      0.681433    47A      0.690452  
      48A      0.700053    49A      0.723248    50A      0.729476  
      51A      0.747760    52A      0.842050    53A      0.866573  
      54A      0.872317    55A      0.958648    56A      1.071360  
      57A      1.204899    58A      1.225482    59A      1.230762  
      60A      1.260521    61A      1.281382    62A      1.297882  
      63A      1.397923    64A      1.465172    65A      1.501576  
      66A      1.541397    67A      1.553366    68A      1.577599  
      69A      1.605924    70A      1.627497    71A      1.647429  
      72A      1.655547    73A      1.664945    74A      1.682049  
      75A      1.686337    76A      1.700433    77A      1.707398  
      78A      1.733280    79A      1.744397    80A      1.788677  
      81A      1.801395    82A      1.844705    83A      1.857335  
      84A      1.907755    85A      1.926714    86A      1.996562  
      87A      2.036089    88A      2.069885    89A      2.110529  
      90A      2.140843    91A      2.188275    92A      2.222545  
      93A      2.235108    94A      2.264781    95A      2.333176  
      96A      2.352098    97A      2.447148    98A      2.448831  
      99A      2.455083   100A      2.478533   101A      2.553974  
     102A      2.573104   103A      2.606235   104A      2.607577  
     105A      2.612844   106A      2.744817  

    Final Occupation by Irrep:
              A 
    DOCC [    17 ]

  Energy converged.

  @DF-RKS Final Energy:  -158.44713976629689

   => Energetics <=

    Nuclear Repulsion Energy =            133.0804453535489813
    One-Electron Energy =                -474.6553032237841308
    Two-Electron Energy =                 203.7416430010802912
    DFT Exchange-Correlation Energy =     -20.6139248971419882
    Empirical Dispersion Energy =           0.0000000000000000
    PCM Polarization Energy =               0.0000000000000000
    EFP Energy =                            0.0000000000000000
    Total Energy =                       -158.4471397662968855


  Saving occupied orbitals to File 180.

*** tstop() called on lski1497 at Tue Feb 21 17:48:09 2017
Module time:
	user time   =     116.36 seconds =       1.94 minutes
	system time =       1.24 seconds =       0.02 minutes
	total time  =        124 seconds =       2.07 minutes
Total time:
	user time   =     427.06 seconds =       7.12 minutes
	system time =       4.75 seconds =       0.08 minutes
	total time  =        480 seconds =       8.00 minutes


Properties will be evaluated at   0.000000,   0.000000,   0.000000 Bohr

Properties computed using the SCF density matrix

  Nuclear Dipole Moment: (a.u.)
     X:    -0.9292      Y:    -0.3516      Z:    -0.3677

  Electronic Dipole Moment: (a.u.)
     X:     0.9405      Y:     0.3558      Z:     0.3720

  Dipole Moment: (a.u.)
     X:     0.0113      Y:     0.0042      Z:     0.0043     Total:     0.0128

  Dipole Moment: (Debye)
     X:     0.0288      Y:     0.0107      Z:     0.0110     Total:     0.0326


*** tstart() called on lski1497
*** at Tue Feb 21 17:48:10 2017


         ------------------------------------------------------------
                                   SCF GRAD                          
                          Rob Parrish, Justin Turney,                
                       Andy Simmonett, and Alex Sokolov              
         ------------------------------------------------------------

  ==> Geometry <==

    Molecular point group: c1
    Full point group: C1

    Geometry (in Angstrom), charge = 0, multiplicity = 1:

       Center              X                  Y                   Z               Mass       
    ------------   -----------------  -----------------  -----------------  -----------------
           H         -1.737202424636     0.437266106701     0.650359677210     1.007825032070
           H         -1.497069800507     2.086044999877     0.038103812619     1.007825032070
           H         -1.342870569753     0.699195714712    -1.057149804787     1.007825032070
           C         -1.158641070151     1.050577533849    -0.041948231370    12.000000000000
           H          0.890751321612     1.600589720488    -0.408381415240     1.007825032070
           H          0.492586610386     1.338416685025     1.310036354200     1.007825032070
           C          0.347155514550     0.966148030783     0.294502588835    12.000000000000
           H          1.842107925193    -0.451725392989    -0.388832246859     1.007825032070
           H          1.167780979654    -0.819344035811     1.219863133330     1.007825032070
           C          0.930091513836    -0.481235874598     0.209648478248    12.000000000000
           H          0.435798902714    -2.488513545427    -0.457359907047     1.007825032070
           H         -0.285972881772    -1.204793354999    -1.447974653513     1.007825032070
           H         -0.957056924455    -1.572199487556     0.149147846615     1.007825032070
           C         -0.035364073440    -1.503989901136    -0.429264828970    12.000000000000

  Nuclear repulsion =  133.080445353548981

  ==> Basis Set <==

  Basis Set: CC-PVDZ
    Number of shells: 54
    Number of basis function: 106
    Number of Cartesian functions: 110
    Spherical Harmonics?: true
    Max angular momentum: 2

  ==> DFJKGrad: Density-Fitted SCF Gradients <==

    Gradient:                    1
    J tasked:                  Yes
    K tasked:                  Yes
    wK tasked:                  No
    OpenMP threads:              1
    Integrals threads:           1
    Memory (MB):               715
    Schwarz Cutoff:          0E+00
    Fitting Condition:       1E-12

   => Auxiliary Basis Set <=

  Basis Set: 
    Number of shells: 186
    Number of basis function: 510
    Number of Cartesian functions: 574
    Spherical Harmonics?: true
    Max angular momentum: 3

  ==> DFT Potential <==

   => B3LYP Composite Functional <= 

    B3LYP Hybrid-GGA Exchange-Correlation Functional (VWN1-RPA)

    P.J. Stephens et. al., J. Phys. Chem., 98, 11623-11627, 1994

    Points   =           5000
    Deriv    =              1
    GGA      =           TRUE
    Meta     =          FALSE

    X_LRC        =          FALSE
    X_Hybrid     =           TRUE
    X_Alpha      =   2.000000E-01
    X_Omega      =   0.000000E+00
    C_LRC        =          FALSE
    C_Hybrid     =          FALSE
    C_Alpha      =   0.000000E+00
    C_Omega      =   0.000000E+00

   => Exchange Functionals <=

    0.8000    B3_X
    0.2000      HF 

   => Correlation Functionals <=

    0.1900 VWN3RPA_C
    0.8100   LYP_C

   => Molecular Quadrature <=

    Radial Scheme    =       TREUTLER
    Pruning Scheme   =           FLAT
    Nuclear Scheme   =       TREUTLER

    BS radius alpha  =              1
[...]
    Spherical Harmonics?: true
    Max angular momentum: 2

  ==> DFJKGrad: Density-Fitted SCF Gradients <==

    Gradient:                    1
    J tasked:                  Yes
    K tasked:                  Yes
    wK tasked:                  No
    OpenMP threads:              1
    Integrals threads:           1
    Memory (MB):               715
    Schwarz Cutoff:          0E+00
    Fitting Condition:       1E-12

   => Auxiliary Basis Set <=

  Basis Set: 
    Number of shells: 186
    Number of basis function: 510
    Number of Cartesian functions: 574
    Spherical Harmonics?: true
    Max angular momentum: 3

  ==> DFT Potential <==

   => B3LYP Composite Functional <= 

    B3LYP Hybrid-GGA Exchange-Correlation Functional (VWN1-RPA)

    P.J. Stephens et. al., J. Phys. Chem., 98, 11623-11627, 1994

    Points   =           5000
    Deriv    =              1
    GGA      =           TRUE
    Meta     =          FALSE

    X_LRC        =          FALSE
    X_Hybrid     =           TRUE
    X_Alpha      =   2.000000E-01
    X_Omega      =   0.000000E+00
    C_LRC        =          FALSE
    C_Hybrid     =          FALSE
    C_Alpha      =   0.000000E+00
    C_Omega      =   0.000000E+00

   => Exchange Functionals <=

    0.8000    B3_X
    0.2000      HF 

   => Correlation Functionals <=

    0.1900 VWN3RPA_C
    0.8100   LYP_C

   => Molecular Quadrature <=

    Radial Scheme    =       TREUTLER
    Pruning Scheme   =           FLAT
    Nuclear Scheme   =       TREUTLER

    BS radius alpha  =              1
    Pruning alpha    =              1
    Radial Points    =             75
    Spherical Points =            302
    Total Points     =         312756
    Total Blocks     =            267
    Max Points       =           4979
    Max Functions    =            106


  -Total Gradient:
     Atom            X                  Y                   Z
    ------   -----------------  -----------------  -----------------
       1        0.000007494442     0.000000211501     0.000001134993
       2       -0.000003820348     0.000012438443    -0.000000063004
       3        0.000024239922     0.000003056741     0.000013186802
       4        0.000490088851     0.000348784808    -0.002287831979
       5        0.000035395904     0.000024593878    -0.000020784733
       6        0.000001847373     0.000015717997     0.000019215774
       7       -0.001115148400    -0.000799278051     0.004253471654
       8        0.000020482712    -0.000003470140    -0.000010470136
       9        0.000020358628    -0.000003323265     0.000040729930
      10        0.001393012483     0.000904095853    -0.004149725896
      11        0.000004316416    -0.000013272350    -0.000000072655
      12        0.000005563566     0.000003981767     0.000005561119
      13        0.000022779246     0.000014456072     0.000003667398
      14       -0.000858959492    -0.000489973662     0.002149867949


*** tstop() called on lski1497 at Tue Feb 21 18:03:19 2017
Module time:
	user time   =      40.38 seconds =       0.67 minutes
	system time =       0.61 seconds =       0.01 minutes
	total time  =         46 seconds =       0.77 minutes
Total time:
	user time   =    1251.78 seconds =      20.86 minutes
	system time =      14.61 seconds =       0.24 minutes
	total time  =       1390 seconds =      23.17 minutes

			-----------------------------------------
			 OPTKING 2.0: for geometry optimizations 
			  - R.A. King,  Bethel University        
			-----------------------------------------

	Previous internal coordinate definitions found.
	---Fragment 1 Geometry and Gradient---
	 H          -3.3888421641        1.0148995051        1.3130409518
	 H          -2.7682771155        4.1069162825        0.1702627834
	 H          -2.6991650953        1.4975842993       -1.9388037099
	 C          -2.2075562829        2.1087870454       -0.0106685721
	 H           1.6559702237        3.0439856983       -0.7878306476
	 H           1.0286385516        2.5707402639        2.4336153147
	 C           0.6219017135        1.8057341798        0.5371094231
	 H           3.5110941835       -0.8539472251       -0.7294003522
	 H           2.2559399757       -1.5646737179        2.2563558879
	 C           1.7246034545       -0.9183764405        0.3437685795
	 H           0.9748421472       -4.7851328643       -0.8434777342
	 H          -0.5243395246       -2.4947474055       -2.7820692089
	 H          -1.7569909899       -3.1826940723        0.2659374132
	 C           0.0047610693       -2.9418004036       -0.8162597753
	             0.0000074944        0.0000002115        0.0000011350
	            -0.0000038203        0.0000124384       -0.0000000630
	             0.0000242399        0.0000030567        0.0000131868
	             0.0004900889        0.0003487848       -0.0022878320
	             0.0000353959        0.0000245939       -0.0000207847
	             0.0000018474        0.0000157180        0.0000192158
	            -0.0011151484       -0.0007992781        0.0042534717
	             0.0000204827       -0.0000034701       -0.0000104701
	             0.0000203586       -0.0000033233        0.0000407299
	             0.0013930125        0.0009040959       -0.0041497259
	             0.0000043164       -0.0000132724       -0.0000000727
	             0.0000055636        0.0000039818        0.0000055611
	             0.0000227792        0.0000144561        0.0000036674
	            -0.0008589595       -0.0004899737        0.0021498679

	---Fragment 1 Intrafragment Coordinates---
	 - Coordinate -           - BOHR/RAD -       - ANG/DEG -
	 R(1,4)           =         2.084282	       1.102955
	 R(2,4)           =         2.083186	       1.102375
	 R(3,4)           =         2.081575	       1.101522
	 R(4,7)           =         2.897884	       1.533494
	 R(5,7)           =         2.087590	       1.104705
	 R(6,7)           =         2.085043	       1.103357
	 R(7,10)          =         2.945184	       1.558524
	 R(8,10)          =         2.085040	       1.103356
	 R(9,10)          =         2.087584	       1.104702
	 R(10,14)         =         2.897890	       1.533497
	 R(11,14)         =         2.083188	       1.102376
	 R(12,14)         =         2.084277	       1.102952
	 R(13,14)         =         2.081574	       1.101522
	 B(1,4,2)         =         1.870971	     107.198722
	 B(1,4,3)         =         1.875826	     107.476935
	 B(1,4,7)         =         1.958909	     112.237218
	 B(2,4,3)         =         1.873936	     107.368627
	 B(2,4,7)         =         1.924846	     110.285551
	 B(3,4,7)         =         1.955173	     112.023172
	 B(4,7,5)         =         1.877213	     107.556383
	 B(4,7,6)         =         1.900785	     108.906952
	 B(4,7,10)        =         2.037434	     116.736379
	 B(5,7,6)         =         1.836957	     105.249909
	 B(5,7,10)        =         1.898111	     108.753759
	 B(6,7,10)        =         1.902902	     109.028258
	 B(7,10,8)        =         1.902871	     109.026485
	 B(7,10,9)        =         1.898114	     108.753904
	 B(7,10,14)       =         2.037453	     116.737437
	 B(8,10,9)        =         1.836970	     105.250638
	 B(8,10,14)       =         1.900797	     108.907661
	 B(9,10,14)       =         1.877198	     107.555522
	 B(10,14,11)      =         1.924856	     110.286151
	 B(10,14,12)      =         1.958908	     112.237155
	 B(10,14,13)      =         1.955179	     112.023508
	 B(11,14,12)      =         1.870965	     107.198419
	 B(11,14,13)      =         1.873932	     107.368387
	 B(12,14,13)      =         1.875820	     107.476549
	 D(1,4,7,5)       =        -3.082334	    -176.604734
	 D(1,4,7,6)       =        -1.100045	     -63.027928
	 D(1,4,7,10)      =         1.063235	      60.918897
	 D(2,4,7,5)       =        -0.997508	     -57.153014
	 D(2,4,7,6)       =         0.984781	      56.423792
	 D(2,4,7,10)      =        -3.135124	    -179.629383
	 D(3,4,7,5)       =         1.088616	      62.373092
	 D(3,4,7,6)       =         3.070905	     175.949898
	 D(3,4,7,10)      =        -1.049000	     -60.103277
	 D(4,7,10,8)      =         2.343522	     134.273923
	 D(4,7,10,9)      =        -1.945394	    -111.462881
	 D(4,7,10,14)     =         0.181319	      10.388837
	 D(5,7,10,8)      =         0.216804	      12.421933
	 D(5,7,10,9)      =         2.211073	     126.685129
	 D(5,7,10,14)     =        -1.945399	    -111.463153
	 D(6,7,10,8)      =        -1.777465	    -101.841260
	 D(6,7,10,9)      =         0.216804	      12.421936
	 D(6,7,10,14)     =         2.343517	     134.273654
	 D(7,10,14,11)    =        -3.135105	    -179.628292
	 D(7,10,14,12)    =         1.063255	      60.920006
	 D(7,10,14,13)    =        -1.048975	     -60.101864
	 D(8,10,14,11)    =         0.984817	      56.425884
	 D(8,10,14,12)    =        -1.100008	     -63.025818
	 D(8,10,14,13)    =         3.070947	     175.952312
	 D(9,10,14,11)    =        -0.997485	     -57.151683
	 D(9,10,14,12)    =        -3.082311	    -176.603385
	 D(9,10,14,13)    =         1.088645	      62.374745

	Current energy   :      -158.4503188876

	Energy change for the previous step:
		Projected    :         0.0000014716
		Actual       :        -0.0000026438

	Performing BFGS update.
	Previous computed or guess Hessian on step 1.
	Steps to be used in Hessian update: 7 6
	Adding user-defined constraint: Fragment 1; Coordinate 49:
		Value =     0.181319; Fixed value    =     0.174530
		Force =    -0.004583; Force constant =     0.675000
	Removing off-diagonal coupling between coordinate 49 and others.
	Taking RFO optimization step.
	Going to follow RFO solution 1.
	Rejecting RFO root 1 because normalization gives large value.
	Using RFO vector 2.
	Norm of target step-size    0.00095
	Projected energy change by RFO approximation:         0.0000000147

	Back-transformation to cartesian coordinates...
	Successfully converged to displaced geometry.

	--- Internal Coordinate Step in ANG or DEG, aJ/ANG or AJ/DEG ---
	 ---------------------------------------------------------------------------
	   Coordinate                Previous        Force       Change         New 
	   ----------                --------       ------       ------       ------
	    1 R(1,4)          =      1.102955     0.000011     0.000015     1.102970
	    2 R(2,4)          =      1.102375    -0.000103     0.000000     1.102375
	    3 R(3,4)          =      1.101522     0.000139     0.000043     1.101565
	    4 R(4,7)          =      1.533494     0.000198    -0.000049     1.533445
	    5 R(5,7)          =      1.104705    -0.000358    -0.000090     1.104615
	    6 R(6,7)          =      1.103357    -0.000177    -0.000024     1.103333
	    7 R(7,10)         =      1.558524     0.000210     0.000085     1.558609
	    8 R(8,10)         =      1.103356    -0.000171    -0.000023     1.103333
	    9 R(9,10)         =      1.104702    -0.000343    -0.000088     1.104615
	   10 R(10,14)        =      1.533497     0.000177    -0.000046     1.533452
	   11 R(11,14)        =      1.102376    -0.000109    -0.000000     1.102375
	   12 R(12,14)        =      1.102952     0.000029     0.000017     1.102969
	   13 R(13,14)        =      1.101522     0.000141     0.000043     1.101564
	   14 B(1,4,2)        =    107.198722     0.000000    -0.006034   107.192688
	   15 B(1,4,3)        =    107.476935    -0.000001    -0.007186   107.469749
	   16 B(1,4,7)        =    112.237218     0.000000    -0.000681   112.236537
	   17 B(2,4,3)        =    107.368627    -0.000000    -0.007211   107.361416
	   18 B(2,4,7)        =    110.285551    -0.000001     0.000168   110.285719
	   19 B(3,4,7)        =    112.023172     0.000002     0.019463   112.042635
	   20 B(4,7,5)        =    107.556383    -0.000006     0.002074   107.558457
	   21 B(4,7,6)        =    108.906952     0.000006    -0.000676   108.906275
	   22 B(4,7,10)       =    116.736379     0.000001    -0.001148   116.735231
	   23 B(5,7,6)        =    105.249909     0.000000    -0.002735   105.247173
	   24 B(5,7,10)       =    108.753759     0.000000     0.005768   108.759527
	   25 B(6,7,10)       =    109.028258    -0.000001    -0.003384   109.024874
	   26 B(7,10,8)       =    109.026485    -0.000001    -0.002282   109.024204
	   27 B(7,10,9)       =    108.753904     0.000000     0.005387   108.759292
	   28 B(7,10,14)      =    116.737437     0.000001    -0.002184   116.735253
	   29 B(8,10,9)       =    105.250638     0.000000    -0.003320   105.247317
	   30 B(8,10,14)      =    108.907661     0.000005    -0.000903   108.906758
	   31 B(9,10,14)      =    107.555522    -0.000006     0.003216   107.558739
	   32 B(10,14,11)     =    110.286151    -0.000001    -0.000043   110.286109
	   33 B(10,14,12)     =    112.237155     0.000000    -0.000988   112.236167
	   34 B(10,14,13)     =    112.023508     0.000002     0.019128   112.042635
	   35 B(11,14,12)     =    107.198419     0.000000    -0.005760   107.192659
	   36 B(11,14,13)     =    107.368387    -0.000000    -0.007213   107.361174
	   37 B(12,14,13)     =    107.476549    -0.000001    -0.006552   107.469997
	   38 D(1,4,7,5)      =   -176.604734    -0.000000     0.015136  -176.589598
	   39 D(1,4,7,6)      =    -63.027928    -0.000000     0.012670   -63.015257
	   40 D(1,4,7,10)     =     60.918897     0.000001     0.006676    60.925573
	   41 D(2,4,7,5)      =    -57.153014    -0.000000     0.007179   -57.145835
	   42 D(2,4,7,6)      =     56.423792    -0.000000     0.004713    56.428505
	   43 D(2,4,7,10)     =   -179.629383     0.000001    -0.001281  -179.630664
	   44 D(3,4,7,5)      =     62.373092    -0.000000     0.010924    62.384016
	   45 D(3,4,7,6)      =    175.949898    -0.000000     0.008459   175.958357
	   46 D(3,4,7,10)     =    -60.103277     0.000001     0.002464   -60.100813
	   47 D(4,7,10,8)     =    134.273923    -0.000002    -0.003198   134.270725
	   48 D(4,7,10,9)     =   -111.462881    -0.000002    -0.005465  -111.468346
	   49 D(4,7,10,14)    =     10.388837    -0.000003     0.001579    10.390416
	   50 D(5,7,10,8)     =     12.421933     0.000000    -0.009769    12.412164
	   51 D(5,7,10,9)     =    126.685129     0.000000    -0.012037   126.673092
	   52 D(5,7,10,14)    =   -111.463153    -0.000002    -0.004992  -111.468145
	   53 D(6,7,10,8)     =   -101.841260     0.000000    -0.007813  -101.849073
	   54 D(6,7,10,9)     =     12.421936     0.000000    -0.010081    12.411855
	   55 D(6,7,10,14)    =    134.273654    -0.000002    -0.003036   134.270618
	   56 D(7,10,14,11)   =   -179.628292     0.000001    -0.006096  -179.634388
	   57 D(7,10,14,12)   =     60.920006     0.000001     0.001858    60.921864
	   58 D(7,10,14,13)   =    -60.101864     0.000001    -0.002714   -60.104578
	   59 D(8,10,14,11)   =     56.425884    -0.000000    -0.000621    56.425264
	   60 D(8,10,14,12)   =    -63.025818    -0.000000     0.007334   -63.018485
	   61 D(8,10,14,13)   =    175.952312    -0.000000     0.002762   175.955073
	   62 D(9,10,14,11)   =    -57.151683    -0.000000     0.002055   -57.149628
	   63 D(9,10,14,12)   =   -176.603385    -0.000000     0.010009  -176.593376
	   64 D(9,10,14,13)   =     62.374745    -0.000000     0.005437    62.380182
	 ---------------------------------------------------------------------------
	 Forces used to impose fixed constraints are not included.
	  Forces zeroed: 49 

  ==> Convergence Check <==

  Measures of convergence in internal coordinates in au.
  Criteria marked as inactive (o), active & met (*), and active & unmet ( ).
  ---------------------------------------------------------------------------------------------
   Step     Total Energy     Delta E     MAX Force     RMS Force      MAX Disp      RMS Disp   
  ---------------------------------------------------------------------------------------------
    Convergence Criteria    1.00e-06 *    3.00e-04 *             o    1.20e-03 *             o
  ---------------------------------------------------------------------------------------------
      8    -158.45031889   -2.64e-06      9.14e-05 *    3.47e-05 o    3.40e-04 *    1.18e-04 o  ~
  ---------------------------------------------------------------------------------------------


  **** Optimization is complete! (in 8 steps) ****

  ==> Optimization Summary <==

  Measures of convergence in internal coordinates in au.
  --------------------------------------------------------------------------------------------------------------- ~
   Step         Total Energy             Delta E       MAX Force       RMS Force        MAX Disp        RMS Disp  ~
  --------------------------------------------------------------------------------------------------------------- ~
      1    -158.431576171780   -158.431576171780      0.06706180      0.01751881      0.04891988      0.01270176  ~
      2    -158.441974609782     -0.010398438002      0.02821313      0.00916368      0.02682926      0.01252649  ~
      3    -158.447139766297     -0.005165156515      0.01567357      0.00462359      0.02679134      0.01254588  ~
      4    -158.449326280208     -0.002186513911      0.00734695      0.00199274      0.03800896      0.01251091  ~
      5    -158.450124767359     -0.000798487151      0.00235203      0.00067245      0.04477937      0.01107639  ~
      6    -158.450310790024     -0.000186022664      0.00048160      0.00014205      0.00866643      0.00222722  ~
      7    -158.450316243727     -0.000005453703      0.00012619      0.00004437      0.00265394      0.00082292  ~
      8    -158.450318887574     -0.000002643848      0.00018652      0.00004181      0.00033969      0.00011843  ~
  --------------------------------------------------------------------------------------------------------------- ~

	Writing optimization data to binary file.
	Final energy is   -158.4503188875745
	Final (previous) structure:
	Cartesian Geometry (in Angstrom)
	    H    -1.7932980368   0.5370616871   0.6948313456
	    H    -1.4649091566   2.1732864943   0.0900991845
	    H    -1.4283366506   0.7924874791  -1.0259707352
	    C    -1.1681884716   1.1159220422  -0.0056455652
	    H     0.8763017005   1.6108078548  -0.4169020229
	    H     0.5443320774   1.3603771569   1.2878137590
	    C     0.3290962128   0.9555533727   0.2842260652
	    H     1.8579910191  -0.4518894089  -0.3859820423
	    H     1.1937920191  -0.8279896704   1.1940121104
	    C     0.9126208420  -0.4859838812   0.1819144973
	    H     0.5158642463  -2.5321832519  -0.4463491929
	    H    -0.2774685260  -1.3201634682  -1.4722076181
	    H    -0.9297595875  -1.6842091650   0.1407280180
	    C     0.0025194494  -1.5567337258  -0.4319460694
	Saving final (previous) structure.
			--------------------------
			 OPTKING Finished Execution 
			--------------------------

    Final optimized geometry and variables:
    Molecular point group: c1
    Full point group: C1

    Geometry (in Angstrom), charge = 0, multiplicity = 1:

    H           -1.793298036768     0.537061687107     0.694831345647
    H           -1.464909156578     2.173286494266     0.090099184472
    H           -1.428336650645     0.792487479133    -1.025970735231
    C           -1.168188471607     1.115922042217    -0.005645565178
    H            0.876301700497     1.610807854788    -0.416902022946
    H            0.544332077392     1.360377156854     1.287813759009
    C            0.329096212763     0.955553372731     0.284226065212
    H            1.857991019143    -0.451889408885    -0.385982042320
    H            1.193792019102    -0.827989670391     1.194012110359
    C            0.912620841994    -0.485983881245     0.181914497301
    H            0.515864246285    -2.532183251860    -0.446349192887
    H           -0.277468525972    -1.320163468169    -1.472207618084
    H           -0.929759587544    -1.684209164963     0.140728017968
    C            0.002519449382    -1.556733725792    -0.431946069400

	Cleaning optimization helper files.

*** Psi4 exiting successfully. Buy a developer a beer!
