    -----------------------------------------------------------------------
          Psi4: An Open-Source Ab Initio Electronic Structure Package
                              Psi4 1.0.0 Driver

                          Git: Rev {master} 6a9a71b 

    J. M. Turney, A. C. Simmonett, R. M. Parrish, E. G. Hohenstein,
    F. A. Evangelista, J. T. Fermann, B. J. Mintz, L. A. Burns, J. J. Wilke,
    M. L. Abrams, N. J. Russ, M. L. Leininger, C. L. Janssen, E. T. Seidl,
    W. D. Allen, H. F. Schaefer, R. A. King, E. F. Valeev, C. D. Sherrill,
    and T. D. Crawford, WIREs Comput. Mol. Sci. 2, 556-565 (2012)
    (doi: 10.1002/wcms.93)

                         Additional Contributions by
    A. E. DePrince, U. Bozkaya, A. Yu. Sokolov, D. G. A. Smith, R. Di Remigio,
    R. M. Richard, J. F. Gonthier, H. R. McAlexander, M. Saitow, and
    B. P. Pritchard
    -----------------------------------------------------------------------


    Psi4 started on: Mon Feb 20 17:28:46 2017

    Process ID:  28159
    PSI4DATADIR: /Users/sternc1/anaconda/share/psi4
    Memory level set to 256.000 MB

  ==> Input File <==

--------------------------------------------------------------------------

memory 1000 mb

molecule butane {
  symmetry C1
  0 1 
  H      1.604   0.760   -8.260
  H      1.745   2.388   -8.880
  H      2.043   1.024   -9.930
  C      2.142   1.395   -8.932
  H      4.169   2.051   -9.210
  H      3.731   1.788   -7.539
  C      3.631   1.416   -8.537
  H      4.105   -0.383   -9.610
  H      5.237   0.003   -8.338
  C      4.203   -0.012   -8.612
  H      3.827   -1.919   -7.698
  H      2.395   -0.942   -7.919
  H      3.528   -0.556   -6.646
  C      3.429   -0.927   -7.645
  units Angstrom
}

dih_string = "4 7 10 14 300"
set optking fixed_dihedral = $dih_string

optimize('MP2/6-31G(d)')
--------------------------------------------------------------------------

  Memory set to 1000.000 MiB by Python script.
gradient() will perform analytic gradient computation.
    SCF Algorithm Type (re)set to DF.

*** tstart() called on lski1497
*** at Mon Feb 20 17:28:47 2017


         ---------------------------------------------------------
                                   SCF
            by Justin Turney, Rob Parrish, and Andy Simmonett
                              RHF Reference
                        1 Threads,   1000 MiB Core
         ---------------------------------------------------------

  ==> Geometry <==

    Molecular point group: c1
    Full point group: C1

    Geometry (in Angstrom), charge = 0, multiplicity = 1:

       Center              X                  Y                   Z               Mass       
    ------------   -----------------  -----------------  -----------------  -----------------
           H         -1.727667272517     0.300086443072     0.166554428593     1.007825032070
           H         -1.586667272517     1.928086443072    -0.453445571407     1.007825032070
           H         -1.288667272517     0.564086443072    -1.503445571407     1.007825032070
           C         -1.189667272517     0.935086443072    -0.505445571407    12.000000000000
           H          0.837332727483     1.591086443072    -0.783445571407     1.007825032070
           H          0.399332727483     1.328086443072     0.887554428593     1.007825032070
           C          0.299332727483     0.956086443072    -0.110445571407    12.000000000000
           H          0.773332727483    -0.842913556928    -1.183445571407     1.007825032070
           H          1.905332727483    -0.456913556928     0.088554428593     1.007825032070
           C          0.871332727483    -0.471913556928    -0.185445571407    12.000000000000
           H          0.495332727483    -2.378913556928     0.728554428593     1.007825032070
           H         -0.936667272517    -1.401913556928     0.507554428593     1.007825032070
           H          0.196332727483    -1.015913556928     1.780554428593     1.007825032070
           C          0.097332727483    -1.386913556928     0.781554428593    12.000000000000

  Running in c1 symmetry.

  Rotational constants: A =      0.41855  B =      0.17558  C =      0.14457 [cm^-1]
  Rotational constants: A =  12547.80849  B =   5263.80251  C =   4334.13135 [MHz]
  Nuclear repulsion =  134.726867068292563

  Charge       = 0
  Multiplicity = 1
  Electrons    = 34
  Nalpha       = 17
  Nbeta        = 17

  ==> Algorithm <==

  SCF Algorithm Type is DF.
  DIIS enabled.
  MOM disabled.
  Fractional occupation disabled.
  Guess Type is SAD.
  Energy threshold   = 1.00e-10
  Density threshold  = 1.00e-10
  Integral threshold = 0.00e+00

  ==> Primary Basis <==

  Basis Set: 6-31G(D)
    Number of shells: 44
    Number of basis function: 80
    Number of Cartesian functions: 80
    Spherical Harmonics?: false
    Max angular momentum: 2

  ==> Pre-Iterations <==

   -------------------------------------------------------
    Irrep   Nso     Nmo     Nalpha   Nbeta   Ndocc  Nsocc
   -------------------------------------------------------
     A         80      80       0       0       0       0
   -------------------------------------------------------
    Total      80      80      17      17      17       0
   -------------------------------------------------------

  ==> Integral Setup <==

  ==> DFJK: Density-Fitted J/K Matrices <==

    J tasked:                  Yes
    K tasked:                  Yes
    wK tasked:                  No
    OpenMP threads:              1
    Integrals threads:           1
    Memory (MB):               715
    Algorithm:                Core
    Integral Cache:           NONE
    Schwarz Cutoff:          1E-12
    Fitting Condition:       1E-12

   => Auxiliary Basis Set <=

  Basis Set: 
    Number of shells: 186
    Number of basis function: 574
    Number of Cartesian functions: 574
    Spherical Harmonics?: false
    Max angular momentum: 3

  Minimum eigenvalue in the overlap matrix is 5.2460631870E-03.
  Using Symmetric Orthogonalization.
  SCF Guess: Superposition of Atomic Densities via on-the-fly atomic UHF.

  ==> Iterations <==

                           Total Energy        Delta E     RMS |[F,P]|

   @DF-RHF iter   0:  -158.85496417102433   -1.58855e+02   4.64133e-02 
   @DF-RHF iter   1:  -157.17964923208660    1.67531e+00   4.60629e-03 
   @DF-RHF iter   2:  -157.27734440434540   -9.76952e-02   1.50183e-03 DIIS
   @DF-RHF iter   3:  -157.28785692455006   -1.05125e-02   5.92917e-04 DIIS
   @DF-RHF iter   4:  -157.28961513795491   -1.75821e-03   8.70887e-05 DIIS
   @DF-RHF iter   5:  -157.28967318425214   -5.80463e-05   1.86076e-05 DIIS
   @DF-RHF iter   6:  -157.28967565203106   -2.46778e-06   4.94796e-06 DIIS
   @DF-RHF iter   7:  -157.28967577962419   -1.27593e-07   1.19594e-06 DIIS
   @DF-RHF iter   8:  -157.28967578974732   -1.01231e-08   2.74684e-07 DIIS
   @DF-RHF iter   9:  -157.28967579037135   -6.24027e-10   7.28300e-08 DIIS
   @DF-RHF iter  10:  -157.28967579041273   -4.13820e-11   2.00018e-08 DIIS
   @DF-RHF iter  11:  -157.28967579041472   -1.98952e-12   4.72957e-09 DIIS
   @DF-RHF iter  12:  -157.28967579041466    5.68434e-14   1.06552e-09 DIIS
   @DF-RHF iter  13:  -157.28967579041500   -3.41061e-13   2.16298e-10 DIIS
   @DF-RHF iter  14:  -157.28967579041495    5.68434e-14   7.06176e-11 DIIS

  ==> Post-Iterations <==

    Orbital Energies (a.u.)
    -----------------------

    Doubly Occupied:                                                      

       1A    -11.208045     2A    -11.207445     3A    -11.199783  
       4A    -11.199772     5A     -1.074216     6A     -0.973695  
       7A     -0.877859     8A     -0.781905     9A     -0.631964  
      10A     -0.629545    11A     -0.578404    12A     -0.535716  
      13A     -0.531672    14A     -0.505770    15A     -0.472068  
      16A     -0.455109    17A     -0.451306  

    Virtual:                                                              

      18A      0.235787    19A      0.281544    20A      0.287477  
      21A      0.302429    22A      0.319471    23A      0.320901  
      24A      0.343859    25A      0.352974    26A      0.363364  
      27A      0.387946    28A      0.409274    29A      0.420055  
      30A      0.446578    31A      0.715090    32A      0.720650  
      33A      0.740071    34A      0.743197    35A      0.764030  
      36A      0.833717    37A      0.868833    38A      0.927676  
      39A      0.950509    40A      0.996978    41A      1.106784  
      42A      1.119634    43A      1.175927    44A      1.178456  
      45A      1.193091    46A      1.207321    47A      1.216805  
      48A      1.235548    49A      1.240647    50A      1.267947  
      51A      1.272505    52A      1.303012    53A      1.320329  
      54A      1.570978    55A      1.711805    56A      1.715033  
      57A      1.832624    58A      1.861742    59A      1.974137  
      60A      2.043444    61A      2.172893    62A      2.260919  
      63A      2.300390    64A      2.313040    65A      2.359120  
      66A      2.461626    67A      2.484744    68A      2.660057  
      69A      2.662747    70A      2.667810    71A      2.698284  
      72A      2.759871    73A      2.803084    74A      2.925162  
      75A      2.954904    76A      3.090975    77A      4.582554  
      78A      4.696552    79A      4.819996    80A      4.946249  

    Final Occupation by Irrep:
              A 
    DOCC [    17 ]

  Energy converged.

  @DF-RHF Final Energy:  -157.28967579041495

   => Energetics <=

    Nuclear Repulsion Energy =            134.7268670682925631
    One-Electron Energy =                -477.4045335744273189
    Two-Electron Energy =                 185.3879907157197522
    DFT Exchange-Correlation Energy =       0.0000000000000000
    Empirical Dispersion Energy =           0.0000000000000000
    PCM Polarization Energy =               0.0000000000000000
    EFP Energy =                            0.0000000000000000
    Total Energy =                       -157.2896757904150036


  Saving occupied orbitals to File 180.

*** tstop() called on lski1497 at Mon Feb 20 17:28:54 2017
Module time:
	user time   =       4.81 seconds =       0.08 minutes
	system time =       0.16 seconds =       0.00 minutes
	total time  =          7 seconds =       0.12 minutes
Total time:
	user time   =       4.81 seconds =       0.08 minutes
	system time =       0.16 seconds =       0.00 minutes
	total time  =          7 seconds =       0.12 minutes


Properties will be evaluated at   0.000000,   0.000000,   0.000000 Bohr

Properties computed using the SCF density matrix

  Nuclear Dipole Moment: (a.u.)
     X:    -0.8744      Y:    -0.3611      Z:     0.2208

  Electronic Dipole Moment: (a.u.)
     X:     0.9049      Y:     0.3732      Z:    -0.2291

  Dipole Moment: (a.u.)
     X:     0.0305      Y:     0.0121      Z:    -0.0082     Total:     0.0339

  Dipole Moment: (Debye)
     X:     0.0776      Y:     0.0308      Z:    -0.0209     Total:     0.0861


  //>>>>>>>>>>>>>>>>>>>>>>>>>>>>>>>>>>>//
  //               DFMP2               //
  //<<<<<<<<<<<<<<<<<<<<<<<<<<<<<<<<<<<//


*** tstart() called on lski1497
*** at Mon Feb 20 17:28:54 2017


*** tstop() called on lski1497 at Mon Feb 20 17:28:55 2017
Module time:
	user time   =       0.53 seconds =       0.01 minutes
	system time =       0.01 seconds =       0.00 minutes
	total time  =          1 seconds =       0.02 minutes
Total time:
	user time   =       5.36 seconds =       0.09 minutes
	system time =       0.17 seconds =       0.00 minutes
	total time  =          8 seconds =       0.13 minutes
	 --------------------------------------------------------
	                          DF-MP2                         
	      2nd-Order Density-Fitted Moller-Plesset Theory     
	              RMP2 Wavefunction,   1 Threads             
	                                                         
	        Rob Parrish, Justin Turney, Andy Simmonett,      
	           Ed Hohenstein, and C. David Sherrill          
	 --------------------------------------------------------

   => Auxiliary Basis Set <=

  Basis Set: 
    Number of shells: 132
    Number of basis function: 364
    Number of Cartesian functions: 414
    Spherical Harmonics?: true
    Max angular momentum: 3

	 --------------------------------------------------------
	                 NBF =    80, NAUX =   364
	 --------------------------------------------------------
	   CLASS    FOCC     OCC    AOCC    AVIR     VIR    FVIR
	   PAIRS       0      17      17      63      63       0
	 --------------------------------------------------------

DGAS Warning! /src/lib/libfock/apps.cc:80 is not currently checking restricted

         ------------------------------------------------------------
                                     CPHF                           
                                  Rob Parrish                       
         ------------------------------------------------------------

  ==> Geometry <==

    Molecular point group: c1
    Full point group: C1

    Geometry (in Angstrom), charge = 0, multiplicity = 1:

       Center              X                  Y                   Z               Mass       
    ------------   -----------------  -----------------  -----------------  -----------------
           H         -1.727667272517     0.300086443072     0.166554428593     1.007825032070
           H         -1.586667272517     1.928086443072    -0.453445571407     1.007825032070
           H         -1.288667272517     0.564086443072    -1.503445571407     1.007825032070
           C         -1.189667272517     0.935086443072    -0.505445571407    12.000000000000
           H          0.837332727483     1.591086443072    -0.783445571407     1.007825032070
           H          0.399332727483     1.328086443072     0.887554428593     1.007825032070
           C          0.299332727483     0.956086443072    -0.110445571407    12.000000000000
           H          0.773332727483    -0.842913556928    -1.183445571407     1.007825032070
           H          1.905332727483    -0.456913556928     0.088554428593     1.007825032070
           C          0.871332727483    -0.471913556928    -0.185445571407    12.000000000000
           H          0.495332727483    -2.378913556928     0.728554428593     1.007825032070
           H         -0.936667272517    -1.401913556928     0.507554428593     1.007825032070
           H          0.196332727483    -1.015913556928     1.780554428593     1.007825032070
           C          0.097332727483    -1.386913556928     0.781554428593    12.000000000000

  Nuclear repulsion =  134.726867068292563
  Reference energy  = -157.289675790414947

  ==> Basis Set <==

  Basis Set: 6-31G(D)
    Number of shells: 44
    Number of basis function: 80
    Number of Cartesian functions: 80
    Spherical Harmonics?: false
    Max angular momentum: 2

  ==> CGRSolver (by Rob Parrish) <==

   Number of roots    =         1
   Preconditioning    =    JACOBI
   Convergence cutoff =     1E-06
   Maximum iterations =       100

  ==> CPHFRHamiltonian (by Rob Parrish) <== 

  ==> DFJK: Density-Fitted J/K Matrices <==

    J tasked:                  Yes
    K tasked:                  Yes
    wK tasked:                  No
    OpenMP threads:              1
    Integrals threads:           1
    Memory (MB):               715
    Algorithm:                Core
    Integral Cache:           NONE
    Schwarz Cutoff:          1E-12
    Fitting Condition:       1E-12

   => Auxiliary Basis Set <=

  Basis Set: 
    Number of shells: 186
    Number of basis function: 574
    Number of Cartesian functions: 574
    Spherical Harmonics?: false
    Max angular momentum: 3

  ==> CPHF Iterations <==

  => Iterations <=

             Iter  Converged  Remaining    Residual
  CGR           1          0          1   7.508E-02
  CGR           2          0          1   8.559E-03
  CGR           3          0          1   2.299E-03
  CGR           4          0          1   4.339E-04
  CGR           5          0          1   7.833E-05
  CGR           6          0          1   1.455E-05
  CGR           7          0          1   2.053E-06
  CGR           8          1          0   4.643E-07

    CGRSolver converged.

  ==> DFCorrGrad: Density-Fitted Correlated Gradients <==

    OpenMP threads:              1
    Integrals threads:           1
    Memory (MB):               715
    Schwarz Cutoff:          0E+00
    Fitting Condition:       1E-12

   => Auxiliary Basis Set <=

  Basis Set: 
    Number of shells: 186
    Number of basis function: 510
    Number of Cartesian functions: 574
    Spherical Harmonics?: true
    Max angular momentum: 3

	-----------------------------------------------------------
	 ==================> DF-MP2 Energies <==================== 
	-----------------------------------------------------------
	 Reference Energy          =    -157.2896757904149467 [Eh]
	 Singles Energy            =      -0.0000000000000000 [Eh]
	 Same-Spin Energy          =      -0.1250566190944397 [Eh]
	 Opposite-Spin Energy      =      -0.4208604994791191 [Eh]
	 Correlation Energy        =      -0.5459171185735587 [Eh]
	 Total Energy              =    -157.8355929089885024 [Eh]
	-----------------------------------------------------------
	 ================> DF-SCS-MP2 Energies <================== 
	-----------------------------------------------------------
	 SCS Same-Spin Scale       =       0.3333333333333333 [-]
	 SCS Opposite-Spin Scale   =       1.2000000000000000 [-]
	 SCS Same-Spin Energy      =      -0.0416855396981466 [Eh]
	 SCS Opposite-Spin Energy  =      -0.5050325993749428 [Eh]
	 SCS Correlation Energy    =      -0.5467181390730894 [Eh]
	 SCS Total Energy          =    -157.8363939294880254 [Eh]
	-----------------------------------------------------------


  -Total Gradient:
     Atom            X                  Y                   Z
    ------   -----------------  -----------------  -----------------
       1        0.012082180215     0.004195230417    -0.006660604828
       2        0.009634033979    -0.013656480318     0.000645691269
       3        0.004181179214     0.005862360174     0.015965180880
       4       -0.026219535140    -0.007921604750    -0.009714879796
       5       -0.009311096190    -0.012869346129     0.008389246270
       6       -0.003799421911    -0.007990907163    -0.015919672185
       7        0.016879355950     0.028425196216     0.014836097628
       8       -0.001100487926     0.006037421812     0.017597596631
       9       -0.018186540283     0.001567143418    -0.001710490709
      10        0.023749277306    -0.012023744904    -0.025029447367
      11       -0.003542923162     0.016605824530    -0.002268054756
      12        0.012942233710     0.006197522284     0.000307188954
      13        0.000014162456    -0.003856856674    -0.016367722798
      14       -0.017322418219    -0.010571758913     0.019929870806


			-----------------------------------------
			 OPTKING 2.0: for geometry optimizations 
			  - R.A. King,  Bethel University        
			-----------------------------------------

	Internal coordinates to be generated automatically.
	Detected frag 1 with atoms:  1 2 3 4 5 6 7 8 9 10 11 12 13 14
	---Fragment 1 Bond Connectivity---
	 1 : 4
	 2 : 4
	 3 : 4
	 4 : 1 2 3 7
	 5 : 7
	 6 : 7
	 7 : 4 5 6 10
	 8 : 10
	 9 : 10
	 10 : 7 8 9 14
	 11 : 14
	 12 : 14
	 13 : 14
	 14 : 10 11 12 13

	Assuming in current code that numbering for constraints corresponds to unified fragment.
	Fixed dihedral atom list: 
	     4     7    10    14
	---Fragment 1 Geometry and Gradient---
	 H          -3.2648179938        0.5670811936        0.3147422563
	 H          -2.9983666091        3.6435553379       -0.8568879461
	 H          -2.4352282215        1.0659688927       -2.8411003857
	 C          -2.2481453343        1.7670572880       -0.9551537050
	 H           1.5823295370        3.0067176312       -1.4804975700
	 H           0.7546294908        2.5097196582        1.6772347981
	 C           0.5656568776        1.8067415368       -0.2087118825
	 H           1.4613870645       -1.5928757763       -2.2363880231
	 H           3.6005570470       -0.8634414890        0.1673436179
	 C           1.6465802256       -0.8917873810       -0.3504413425
	 H           0.9360431996       -4.4954951164        1.3767683429
	 H          -1.7700446227       -2.6492326846        0.9591388676
	 H           0.3710150859       -1.9197983973        3.3647602347
	 C           0.1839321987       -2.6208867926        1.4769238280
	             0.0120821802        0.0041952304       -0.0066606048
	             0.0096340340       -0.0136564803        0.0006456913
	             0.0041811792        0.0058623602        0.0159651809
	            -0.0262195351       -0.0079216048       -0.0097148798
	            -0.0093110962       -0.0128693461        0.0083892463
	            -0.0037994219       -0.0079909072       -0.0159196722
	             0.0168793560        0.0284251962        0.0148360976
	            -0.0011004879        0.0060374218        0.0175975966
	            -0.0181865403        0.0015671434       -0.0017104907
	             0.0237492773       -0.0120237449       -0.0250294474
	            -0.0035429232        0.0166058245       -0.0022680548
	             0.0129422337        0.0061975223        0.0003071890
	             0.0000141625       -0.0038568567       -0.0163677228
	            -0.0173224182       -0.0105717589        0.0199298708

	Previous optimization step data not found.  Starting new optimization.

	---Fragment 1 Intrafragment Coordinates---
	 - Coordinate -           - BOHR/RAD -       - ANG/DEG -
	 R(1,4)           =         2.021436	       1.069698
	 R(2,4)           =         2.023298	       1.070683
	 R(3,4)           =         2.020723	       1.069320
	 R(4,7)           =         2.911397	       1.540645
	 R(5,7)           =         2.022623	       1.070326
	 R(6,7)           =         2.021555	       1.069761
	 R(7,10)          =         2.910419	       1.540128
	 R(8,10)          =         2.020549	       1.069228
	 R(9,10)          =         2.021616	       1.069793
	 R(10,14)         =         2.910049	       1.539932
	 R(11,14)         =         2.022340	       1.070176
	 R(12,14)         =         2.021616	       1.069793
	 R(13,14)         =         2.022486	       1.070254
	 B(1,4,2)         =         1.910870	     109.484805
	 B(1,4,3)         =         1.911121	     109.499161
	 B(1,4,7)         =         1.910399	     109.457783
	 B(2,4,3)         =         1.910042	     109.437340
	 B(2,4,7)         =         1.910564	     109.467262
	 B(3,4,7)         =         1.910803	     109.480971
	 B(4,7,5)         =         1.909937	     109.431343
	 B(4,7,6)         =         1.911630	     109.528316
	 B(4,7,10)        =         1.911154	     109.501062
	 B(5,7,6)         =         1.910605	     109.469614
	 B(5,7,10)        =         1.910047	     109.437654
	 B(6,7,10)        =         1.910425	     109.459295
	 B(7,10,8)        =         1.910418	     109.458897
	 B(7,10,9)        =         1.910808	     109.481258
	 B(7,10,14)       =         1.910992	     109.491802
	 B(8,10,9)        =         1.909766	     109.421538
	 B(8,10,14)       =         1.911215	     109.504546
	 B(9,10,14)       =         1.910599	     109.469263
	 B(10,14,11)      =         1.910018	     109.435980
	 B(10,14,12)      =         1.910599	     109.469263
	 B(10,14,13)      =         1.911000	     109.492218
	 B(11,14,12)      =         1.911104	     109.498172
	 B(11,14,13)      =         1.910439	     109.460096
	 B(12,14,13)      =         1.910640	     109.471594
	 D(1,4,7,5)       =         3.140997	     179.965873
	 D(1,4,7,6)       =        -1.047644	     -60.025575
	 D(1,4,7,10)      =         1.047427	      60.013132
	 D(2,4,7,5)       =        -1.047689	     -60.028143
	 D(2,4,7,6)       =         1.046856	      59.980409
	 D(2,4,7,10)      =        -3.141259	    -179.980883
	 D(3,4,7,5)       =         1.046044	      59.933911
	 D(3,4,7,6)       =         3.140588	     179.942463
	 D(3,4,7,10)      =        -1.047526	     -60.018830
	 D(4,7,10,8)      =         1.047939	      60.042468
	 D(4,7,10,9)      =         3.141248	     179.980229
	 D(4,7,10,14)     =        -1.047257	     -60.003409
	 D(5,7,10,8)      =        -1.045564	     -59.906408
	 D(5,7,10,9)      =         1.047745	      60.031353
	 D(5,7,10,14)     =        -3.140760	    -179.952285
	 D(6,7,10,8)      =        -3.139439	    -179.876606
	 D(6,7,10,9)      =        -1.046130	     -59.938846
	 D(6,7,10,14)     =         1.048550	      60.077516
	 D(7,10,14,11)    =         3.141358	     179.986527
	 D(7,10,14,12)    =         1.046784	      59.976297
	 D(7,10,14,13)    =        -1.047823	     -60.035823
	 D(8,10,14,11)    =         1.046649	      59.968584
	 D(8,10,14,12)    =        -1.047924	     -60.041646
	 D(8,10,14,13)    =         3.140654	     179.946234
	 D(9,10,14,11)    =        -1.047019	     -59.989770
	 D(9,10,14,12)    =         3.141593	     180.000000
	 D(9,10,14,13)    =         1.046986	      59.987880

	Current energy   :      -157.8355929090

	Generating empirical Hessian (Schlegel '84) for each fragment.
	Adding user-defined constraint: Fragment 1; Coordinate 49:
		Value =    -1.047257; Fixed value    =    -1.047198
		Force =     0.000030; Force constant =     0.500000
	Removing off-diagonal coupling between coordinate 49 and others.
	Taking RFO optimization step.
	Going to follow RFO solution 1.
	Using RFO vector 1.

	Determining step-restricting scale parameter for RS-RFO.
	Maximum step size allowed    0.10000

	 Iter      |step|        alpha        rfo_root  
	------------------------------------------------
	    0     0.32762       1.00000           1
	    1     0.23941       3.68951           1
	    2     0.17210      12.44372           1
	    3     0.12958      29.69954           1
	    4     0.10799      49.06863           1
	    5     0.10086      58.73335           1
	    6     0.10001      60.03710           1
	    7     0.10000      60.05561           1
	------------------------------------------------
	Norm of target step-size    0.10000
	Projected energy change by RFO approximation:        -0.0067440418

	Back-transformation to cartesian coordinates...
	Could not converge backtransformation.
	Using first guess instead.

	--- Internal Coordinate Step in ANG or DEG, aJ/ANG or AJ/DEG ---
	 ---------------------------------------------------------------------------
	   Coordinate                Previous        Force       Change         New 
	   ----------                --------       ------       ------       ------
	    1 R(1,4)          =      1.069698     0.105055     0.009580     1.079278
	    2 R(2,4)          =      1.070683     0.133521     0.011481     1.082164
	    3 R(3,4)          =      1.069320     0.142706     0.011838     1.081158
	    4 R(4,7)          =      1.540645    -0.003362     0.000411     1.541056
	    5 R(5,7)          =      1.070326     0.144922     0.012143     1.082469
	    6 R(6,7)          =      1.069761     0.148179     0.012260     1.082021
	    7 R(7,10)         =      1.540128     0.037737     0.003733     1.543861
	    8 R(8,10)         =      1.069228     0.151751     0.012543     1.081771
	    9 R(9,10)         =      1.069793     0.148249     0.012409     1.082202
	   10 R(10,14)        =      1.539932    -0.000038     0.000727     1.540659
	   11 R(11,14)        =      1.070176     0.136747     0.011736     1.081912
	   12 R(12,14)        =      1.069793     0.104424     0.009534     1.079327
	   13 R(13,14)        =      1.070254     0.136875     0.011374     1.081628
	   14 B(1,4,2)        =    109.484805    -0.000450    -0.591989   108.892816
	   15 B(1,4,3)        =    109.499161    -0.000281    -0.390100   109.109061
	   16 B(1,4,7)        =    109.457783     0.000577     0.777792   110.235574
	   17 B(2,4,3)        =    109.437340    -0.000257    -0.338572   109.098768
	   18 B(2,4,7)        =    109.467262     0.000282     0.383253   109.850515
	   19 B(3,4,7)        =    109.480971     0.000128     0.149225   109.630197
	   20 B(4,7,5)        =    109.431343    -0.000568    -0.647175   108.784168
	   21 B(4,7,6)        =    109.528316    -0.000407    -0.495316   109.033000
	   22 B(4,7,10)       =    109.501062     0.001799     2.208341   111.709404
	   23 B(5,7,6)        =    109.469614     0.000153     0.046035   109.515649
	   24 B(5,7,10)       =    109.437654    -0.000497    -0.576909   108.860745
	   25 B(6,7,10)       =    109.459295    -0.000481    -0.545202   108.914092
	   26 B(7,10,8)       =    109.458897    -0.000484    -0.549445   108.909451
	   27 B(7,10,9)       =    109.481258    -0.000504    -0.586984   108.894273
	   28 B(7,10,14)      =    109.491802     0.001809     2.219391   111.711194
	   29 B(8,10,9)       =    109.421538     0.000158     0.053125   109.474663
	   30 B(8,10,14)      =    109.504546    -0.000407    -0.494129   109.010416
	   31 B(9,10,14)      =    109.469263    -0.000573    -0.653377   108.815885
	   32 B(10,14,11)     =    109.435980     0.000293     0.397583   109.833562
	   33 B(10,14,12)     =    109.469263     0.000575     0.775106   110.244369
	   34 B(10,14,13)     =    109.492218     0.000128     0.149565   109.641784
	   35 B(11,14,12)     =    109.498172    -0.000453    -0.596937   108.901235
	   36 B(11,14,13)     =    109.460096    -0.000263    -0.346639   109.113457
	   37 B(12,14,13)     =    109.471594    -0.000280    -0.389089   109.082505
	   38 D(1,4,7,5)      =    179.965873     0.000063     0.416722   180.382595
	   39 D(1,4,7,6)      =    -60.025575    -0.000031    -0.212078   -60.237653
	   40 D(1,4,7,10)     =     60.013132     0.000030     0.174891    60.188023
	   41 D(2,4,7,5)      =    -60.028143     0.000057     0.409599   -59.618544
	   42 D(2,4,7,6)      =     59.980409    -0.000037    -0.219201    59.761208
	   43 D(2,4,7,10)     =   -179.980883     0.000024     0.167768  -179.813115
	   44 D(3,4,7,5)      =     59.933911     0.000042     0.321919    60.255830
	   45 D(3,4,7,6)      =    179.942463    -0.000052    -0.306881   179.635582
	   46 D(3,4,7,10)     =    -60.018830     0.000009     0.080088   -59.938742
	   47 D(4,7,10,8)     =     60.042468     0.000030     0.250116    60.292584
	   48 D(4,7,10,9)     =    179.980229    -0.000065    -0.365114   179.615115
	   49 D(4,7,10,14)    =    -60.003409    -0.000042    -0.169060   -60.172469
	   50 D(5,7,10,8)     =    -59.906408     0.000007     0.049319   -59.857089
	   51 D(5,7,10,9)     =     60.031353    -0.000088    -0.565911    59.465442
	   52 D(5,7,10,14)    =   -179.952285    -0.000065    -0.369857  -180.322142
	   53 D(6,7,10,8)     =   -179.876606     0.000101     0.664380  -179.212227
	   54 D(6,7,10,9)     =    -59.938846     0.000006     0.049150   -59.889695
	   55 D(6,7,10,14)    =     60.077516     0.000029     0.245204    60.322721
	   56 D(7,10,14,11)   =    179.986527     0.000025     0.171317   180.157844
	   57 D(7,10,14,12)   =     59.976297     0.000030     0.177477    60.153774
	   58 D(7,10,14,13)   =    -60.035823     0.000010     0.082816   -59.953007
	   59 D(8,10,14,11)   =     59.968584    -0.000037    -0.216757    59.751828
	   60 D(8,10,14,12)   =    -60.041646    -0.000031    -0.210596   -60.252242
	   61 D(8,10,14,13)   =    179.946234    -0.000051    -0.305257   179.640978
	   62 D(9,10,14,11)   =    -59.989770     0.000057     0.405959   -59.583811
	   63 D(9,10,14,12)   =    180.000000     0.000062     0.412119   180.412119
	   64 D(9,10,14,13)   =     59.987880     0.000042     0.317459    60.305339
	 ---------------------------------------------------------------------------
	 Forces used to impose fixed constraints are not included.
	  Forces zeroed: 49 

  ==> Convergence Check <==

  Measures of convergence in internal coordinates in au.
  Criteria marked as inactive (o), active & met (*), and active & unmet ( ).
  --------------------------------------------------------------------------------------------- ~
   Step     Total Energy     Delta E     MAX Force     RMS Force      MAX Disp      RMS Disp    ~
  --------------------------------------------------------------------------------------------- ~
    Convergence Criteria    1.00e-06 *    3.00e-04 *             o    1.20e-03 *             o  ~
  --------------------------------------------------------------------------------------------- ~
      1    -157.83559291   -1.58e+02      2.38e-02      8.56e-03 o    3.87e-02      1.26e-02 o  ~
  ---------------------------------------------------------------------------------------------

	Writing optimization data to binary file.
	Structure for next step:
	Cartesian Geometry (in Angstrom)
	    H    -1.7817284916   0.3656464482   0.1556331678
	    H    -1.5777187138   1.9935077901  -0.4774013972
	    H    -1.3171722334   0.6010178509  -1.5255929884
	    C    -1.2039333767   0.9787965278  -0.5189336464
	    H     0.8400153489   1.5791053096  -0.8066780369
	    H     0.3874266154   1.3383891358   0.8851485348
	    C     0.2845094360   0.9527043938  -0.1205476335
	    H     0.7736047588  -0.8577580840  -1.1784797932
	    H     1.9085960262  -0.4422013797   0.1103546853
	    C     0.8638763421  -0.4774761891  -0.1697846728
	    H     0.5544291466  -2.4165155919   0.7355466422
	    H    -0.9218366289  -1.4838540225   0.5286422193
	    H     0.2123965906  -1.0582686400   1.8055884942
	    C     0.1231933643  -1.4258833460   0.7922664252
			--------------------------
			 OPTKING Finished Execution 
			--------------------------

    Structure for next step:
    Molecular point group: c1
    Full point group: C1

    Geometry (in Angstrom), charge = 0, multiplicity = 1:

    H           -1.779706168715     0.366442190868     0.155106489342
    H           -1.575696390901     1.994303532843    -0.477928075663
    H           -1.315149910476     0.601813593590    -1.526119666906
    C           -1.201911053822     0.979592270492    -0.519460324890
    H            0.842037671794     1.579901052338    -0.807204715412
    H            0.389448938291     1.339184878466     0.884621856279
    C            0.286531758842     0.953500136516    -0.121074311938
    H            0.775627081703    -0.856962341283    -1.179006471663
    H            1.910618349098    -0.441405637028     0.109828006784
    C            0.865898665018    -0.476680446422    -0.170311351244
    H            0.556451469513    -2.415719849180     0.735019963688
    H           -0.919814305991    -1.483058279746     0.528115540833
    H            0.214418913517    -1.057472897271     1.805061815747
    C            0.125215687223    -1.425087603252     0.791739746681

gradient() will perform analytic gradient computation.
    SCF Algorithm Type (re)set to DF.

*** tstart() called on lski1497
*** at Mon Feb 20 17:29:16 2017


         ---------------------------------------------------------
                                   SCF
            by Justin Turney, Rob Parrish, and Andy Simmonett
                              RHF Reference
                        1 Threads,   1000 MiB Core
         ---------------------------------------------------------

  ==> Geometry <==

    Molecular point group: c1
    Full point group: C1

    Geometry (in Angstrom), charge = 0, multiplicity = 1:

       Center              X                  Y                   Z               Mass       
    ------------   -----------------  -----------------  -----------------  -----------------
           H         -1.779706168715     0.366442190868     0.155106489342     1.007825032070
           H         -1.575696390901     1.994303532843    -0.477928075663     1.007825032070
           H         -1.315149910476     0.601813593590    -1.526119666906     1.007825032070
           C         -1.201911053822     0.979592270492    -0.519460324890    12.000000000000
           H          0.842037671794     1.579901052338    -0.807204715412     1.007825032070
           H          0.389448938291     1.339184878466     0.884621856279     1.007825032070
           C          0.286531758842     0.953500136516    -0.121074311938    12.000000000000
           H          0.775627081703    -0.856962341283    -1.179006471663     1.007825032070
           H          1.910618349098    -0.441405637028     0.109828006784     1.007825032070
           C          0.865898665018    -0.476680446422    -0.170311351244    12.000000000000
           H          0.556451469513    -2.415719849180     0.735019963688     1.007825032070
           H         -0.919814305991    -1.483058279746     0.528115540833     1.007825032070
           H          0.214418913517    -1.057472897271     1.805061815747     1.007825032070
           C          0.125215687223    -1.425087603252     0.791739746681    12.000000000000

  Running in c1 symmetry.

  Rotational constants: A =      0.42540  B =      0.16733  C =      0.13934 [cm^-1]
  Rotational constants: A =  12753.14683  B =   5016.39300  C =   4177.37993 [MHz]
  Nuclear repulsion =  133.362832580078617

  Charge       = 0
  Multiplicity = 1
  Electrons    = 34
  Nalpha       = 17
  Nbeta        = 17

  ==> Algorithm <==

  SCF Algorithm Type is DF.
  DIIS enabled.
  MOM disabled.
  Fractional occupation disabled.
  Guess Type is READ.
  Energy threshold   = 1.00e-10
  Density threshold  = 1.00e-10
  Integral threshold = 0.00e+00

  ==> Primary Basis <==

  Basis Set: 6-31G(D)
    Number of shells: 44
    Number of basis function: 80
    Number of Cartesian functions: 80
    Spherical Harmonics?: false
    Max angular momentum: 2

  ==> Pre-Iterations <==

   -------------------------------------------------------
    Irrep   Nso     Nmo     Nalpha   Nbeta   Ndocc  Nsocc
   -------------------------------------------------------
     A         80      80       0       0       0       0
   -------------------------------------------------------
    Total      80      80      17      17      17       0
   -------------------------------------------------------

  ==> Integral Setup <==

  ==> DFJK: Density-Fitted J/K Matrices <==

    J tasked:                  Yes
    K tasked:                  Yes
    wK tasked:                  No
    OpenMP threads:              1
    Integrals threads:           1
    Memory (MB):               715
    Algorithm:                Core
    Integral Cache:           NONE
    Schwarz Cutoff:          1E-12
    Fitting Condition:       1E-12

   => Auxiliary Basis Set <=

  Basis Set: 
    Number of shells: 186
    Number of basis function: 574
    Number of Cartesian functions: 574
    Spherical Harmonics?: false
    Max angular momentum: 3

  Minimum eigenvalue in the overlap matrix is 5.3632663465E-03.
  Using Symmetric Orthogonalization.
  SCF Guess was Projection but file not found.
  Switching over to SAD guess.

  SCF Guess: Superposition of Atomic Densities via on-the-fly atomic UHF.

  ==> Iterations <==

                           Total Energy        Delta E     RMS |[F,P]|

   @DF-RHF iter   0:  -158.73499512724888   -1.58735e+02   4.54708e-02 
   @DF-RHF iter   1:  -157.18392176083356    1.55107e+00   4.58525e-03 
   @DF-RHF iter   2:  -157.28162397517778   -9.77022e-02   1.52242e-03 DIIS
   @DF-RHF iter   3:  -157.29232437641869   -1.07004e-02   5.99641e-04 DIIS
   @DF-RHF iter   4:  -157.29414558481594   -1.82121e-03   8.61422e-05 DIIS
   @DF-RHF iter   5:  -157.29420240436949   -5.68196e-05   1.79904e-05 DIIS
   @DF-RHF iter   6:  -157.29420472484574   -2.32048e-06   4.75461e-06 DIIS
   @DF-RHF iter   7:  -157.29420483785626   -1.13011e-07   1.11131e-06 DIIS
   @DF-RHF iter   8:  -157.29420484634667   -8.49042e-09   2.45504e-07 DIIS
   @DF-RHF iter   9:  -157.29420484683206   -4.85386e-10   6.74984e-08 DIIS
   @DF-RHF iter  10:  -157.29420484686668   -3.46176e-11   1.90814e-08 DIIS
   @DF-RHF iter  11:  -157.29420484686884   -2.16005e-12   4.21369e-09 DIIS
   @DF-RHF iter  12:  -157.29420484686884    0.00000e+00   9.53768e-10 DIIS
   @DF-RHF iter  13:  -157.29420484686872    1.13687e-13   2.15261e-10 DIIS
   @DF-RHF iter  14:  -157.29420484686895   -2.27374e-13   7.10478e-11 DIIS

  ==> Post-Iterations <==

    Orbital Energies (a.u.)
    -----------------------

    Doubly Occupied:                                                      

       1A    -11.212718     2A    -11.212146     3A    -11.204978  
       4A    -11.204969     5A     -1.069255     6A     -0.973325  
       7A     -0.874272     8A     -0.777026     9A     -0.629173  
      10A     -0.622724    11A     -0.576061    12A     -0.531995  
      13A     -0.531686    14A     -0.504562    15A     -0.467401  
      16A     -0.455770    17A     -0.452654  

    Virtual:                                                              

      18A      0.231222    19A      0.279281    20A      0.285502  
      21A      0.299744    22A      0.317338    23A      0.317942  
      24A      0.339885    25A      0.348137    26A      0.359760  
      27A      0.383052    28A      0.407000    29A      0.409367  
      30A      0.451634    31A      0.711962    32A      0.724440  
      33A      0.730909    34A      0.743617    35A      0.766661  
      36A      0.839886    37A      0.868549    38A      0.922930  
      39A      0.950530    40A      0.997823    41A      1.101087  
      42A      1.110900    43A      1.162630    44A      1.165910  
      45A      1.183635    46A      1.193378    47A      1.201706  
      48A      1.227300    49A      1.237661    50A      1.254811  
      51A      1.260429    52A      1.287827    53A      1.303818  
      54A      1.550317    55A      1.707462    56A      1.716419  
      57A      1.824526    58A      1.862540    59A      1.968602  
      60A      2.032432    61A      2.172143    62A      2.255292  
      63A      2.302472    64A      2.306804    65A      2.347023  
      66A      2.443668    67A      2.465798    68A      2.640077  
      69A      2.651775    70A      2.652298    71A      2.684213  
      72A      2.743411    73A      2.784715    74A      2.938108  
      75A      2.951258    76A      3.077140    77A      4.564358  
      78A      4.687198    79A      4.817701    80A      4.937059  

    Final Occupation by Irrep:
              A 
    DOCC [    17 ]

  Energy converged.

  @DF-RHF Final Energy:  -157.29420484686895

   => Energetics <=

    Nuclear Repulsion Energy =            133.3628325800786172
    One-Electron Energy =                -474.7126452774812151
    Two-Electron Energy =                 184.0556078505335904
    DFT Exchange-Correlation Energy =       0.0000000000000000
    Empirical Dispersion Energy =           0.0000000000000000
    PCM Polarization Energy =               0.0000000000000000
    EFP Energy =                            0.0000000000000000
    Total Energy =                       -157.2942048468690359


  Saving occupied orbitals to File 180.

*** tstop() called on lski1497 at Mon Feb 20 17:29:23 2017
Module time:
	user time   =       4.87 seconds =       0.08 minutes
	system time =       0.13 seconds =       0.00 minutes
	total time  =          7 seconds =       0.12 minutes
Total time:
	user time   =      27.05 seconds =       0.45 minutes
	system time =       0.82 seconds =       0.01 minutes
	total time  =         36 seconds =       0.60 minutes


Properties will be evaluated at   0.000000,   0.000000,   0.000000 Bohr

Properties computed using the SCF density matrix

  Nuclear Dipole Moment: (a.u.)
     X:    -0.8454      Y:    -0.3497      Z:     0.2133

  Electronic Dipole Moment: (a.u.)
     X:     0.8724      Y:     0.3606      Z:    -0.2204

  Dipole Moment: (a.u.)
     X:     0.0270      Y:     0.0109      Z:    -0.0071     Total:     0.0300

  Dipole Moment: (Debye)
     X:     0.0687      Y:     0.0278      Z:    -0.0181     Total:     0.0763


  //>>>>>>>>>>>>>>>>>>>>>>>>>>>>>>>>>>>//
  //               DFMP2               //
  //<<<<<<<<<<<<<<<<<<<<<<<<<<<<<<<<<<<//


*** tstart() called on lski1497
*** at Mon Feb 20 17:29:23 2017


*** tstop() called on lski1497 at Mon Feb 20 17:29:23 2017
Module time:
	user time   =       0.54 seconds =       0.01 minutes
	system time =       0.01 seconds =       0.00 minutes
	total time  =          0 seconds =       0.00 minutes
Total time:
	user time   =      27.61 seconds =       0.46 minutes
	system time =       0.83 seconds =       0.01 minutes
	total time  =         36 seconds =       0.60 minutes
	 --------------------------------------------------------
	                          DF-MP2                         
	      2nd-Order Density-Fitted Moller-Plesset Theory     
	              RMP2 Wavefunction,   1 Threads             
	                                                         
	        Rob Parrish, Justin Turney, Andy Simmonett,      
	           Ed Hohenstein, and C. David Sherrill          
	 --------------------------------------------------------

   => Auxiliary Basis Set <=

  Basis Set: 
    Number of shells: 132
    Number of basis function: 364
    Number of Cartesian functions: 414
    Spherical Harmonics?: true
    Max angular momentum: 3

	 --------------------------------------------------------
	                 NBF =    80, NAUX =   364
	 --------------------------------------------------------
	   CLASS    FOCC     OCC    AOCC    AVIR     VIR    FVIR
	   PAIRS       0      17      17      63      63       0
	 --------------------------------------------------------

DGAS Warning! /src/lib/libfock/apps.cc:80 is not currently checking restricted

         ------------------------------------------------------------
                                     CPHF                           
                                  Rob Parrish                       
         ------------------------------------------------------------

  ==> Geometry <==

    Molecular point group: c1
    Full point group: C1

    Geometry (in Angstrom), charge = 0, multiplicity = 1:

       Center              X                  Y                   Z               Mass       
    ------------   -----------------  -----------------  -----------------  -----------------
           H         -1.779706168715     0.366442190868     0.155106489342     1.007825032070
           H         -1.575696390901     1.994303532843    -0.477928075663     1.007825032070
           H         -1.315149910476     0.601813593590    -1.526119666906     1.007825032070
           C         -1.201911053822     0.979592270492    -0.519460324890    12.000000000000
           H          0.842037671794     1.579901052338    -0.807204715412     1.007825032070
           H          0.389448938291     1.339184878466     0.884621856279     1.007825032070
           C          0.286531758842     0.953500136516    -0.121074311938    12.000000000000
           H          0.775627081703    -0.856962341283    -1.179006471663     1.007825032070
           H          1.910618349098    -0.441405637028     0.109828006784     1.007825032070
           C          0.865898665018    -0.476680446422    -0.170311351244    12.000000000000
           H          0.556451469513    -2.415719849180     0.735019963688     1.007825032070
           H         -0.919814305991    -1.483058279746     0.528115540833     1.007825032070
           H          0.214418913517    -1.057472897271     1.805061815747     1.007825032070
           C          0.125215687223    -1.425087603252     0.791739746681    12.000000000000

  Nuclear repulsion =  133.362832580078617
  Reference energy  = -157.294204846868951

  ==> Basis Set <==

  Basis Set: 6-31G(D)
    Number of shells: 44
    Number of basis function: 80
    Number of Cartesian functions: 80
    Spherical Harmonics?: false
    Max angular momentum: 2

  ==> CGRSolver (by Rob Parrish) <==

   Number of roots    =         1
   Preconditioning    =    JACOBI
   Convergence cutoff =     1E-06
   Maximum iterations =       100

  ==> CPHFRHamiltonian (by Rob Parrish) <== 

  ==> DFJK: Density-Fitted J/K Matrices <==

    J tasked:                  Yes
    K tasked:                  Yes
    wK tasked:                  No
    OpenMP threads:              1
    Integrals threads:           1
    Memory (MB):               715
    Algorithm:                Core
    Integral Cache:           NONE
    Schwarz Cutoff:          1E-12
    Fitting Condition:       1E-12

   => Auxiliary Basis Set <=

  Basis Set: 
    Number of shells: 186
    Number of basis function: 574
    Number of Cartesian functions: 574
    Spherical Harmonics?: false
    Max angular momentum: 3

  ==> CPHF Iterations <==

  => Iterations <=

             Iter  Converged  Remaining    Residual
  CGR           1          0          1   7.479E-02
  CGR           2          0          1   8.592E-03
  CGR           3          0          1   2.322E-03
  CGR           4          0          1   4.340E-04
  CGR           5          0          1   7.741E-05
  CGR           6          0          1   1.436E-05
  CGR           7          0          1   1.936E-06
  CGR           8          1          0   4.363E-07

    CGRSolver converged.

  ==> DFCorrGrad: Density-Fitted Correlated Gradients <==

    OpenMP threads:              1
    Integrals threads:           1
    Memory (MB):               715
    Schwarz Cutoff:          0E+00
    Fitting Condition:       1E-12

   => Auxiliary Basis Set <=

  Basis Set: 
    Number of shells: 186
    Number of basis function: 510
    Number of Cartesian functions: 574
    Spherical Harmonics?: true
    Max angular momentum: 3

	-----------------------------------------------------------
	 ==================> DF-MP2 Energies <==================== 
	-----------------------------------------------------------
	 Reference Energy          =    -157.2942048468689507 [Eh]
	 Singles Energy            =      -0.0000000000000000 [Eh]
	 Same-Spin Energy          =      -0.1246947621157998 [Eh]
	 Opposite-Spin Energy      =      -0.4216708905421962 [Eh]
	 Correlation Energy        =      -0.5463656526579960 [Eh]
	 Total Energy              =    -157.8405704995269332 [Eh]
	-----------------------------------------------------------
	 ================> DF-SCS-MP2 Energies <================== 
	-----------------------------------------------------------
	 SCS Same-Spin Scale       =       0.3333333333333333 [-]
	 SCS Opposite-Spin Scale   =       1.2000000000000000 [-]
	 SCS Same-Spin Energy      =      -0.0415649207052666 [Eh]
	 SCS Opposite-Spin Energy  =      -0.5060050686506354 [Eh]
	 SCS Correlation Energy    =      -0.5475699893559021 [Eh]
	 SCS Total Energy          =    -157.8417748362248574 [Eh]
	-----------------------------------------------------------


  -Total Gradient:
     Atom            X                  Y                   Z
    ------   -----------------  -----------------  -----------------
       1        0.007246333180     0.002400493414    -0.003620664682
       2        0.004928789290    -0.006289548136     0.000837100123
       3        0.003253444419     0.002815384128     0.007958928016
       4       -0.019308651800    -0.003189307272    -0.005533111916
       5       -0.005648244970    -0.007373361599     0.002227055321
       6       -0.003405779683    -0.005711347016    -0.007438889006
       7        0.012299126424     0.020308832741     0.008117110913
       8       -0.002839921328     0.003146833076     0.009226855573
       9       -0.009504849025     0.001114585493     0.001442961928
      10        0.018053553986    -0.007917293341    -0.015689017695
      11       -0.001549932806     0.007887066584    -0.001738274199
      12        0.007537088450     0.003738068051    -0.000111514609
      13        0.000633760193    -0.001070508007    -0.008640144953
      14       -0.011694716330    -0.009859898118     0.012961605187


			-----------------------------------------
			 OPTKING 2.0: for geometry optimizations 
			  - R.A. King,  Bethel University        
			-----------------------------------------

	Previous internal coordinate definitions found.
	---Fragment 1 Geometry and Gradient---
	 H          -3.3631572559        0.6924753843        0.2931087863
	 H          -2.9776346474        3.7686875029       -0.9031531742
	 H          -2.4852731545        1.1372628749       -2.8839482165
	 C          -2.2712827278        1.8511611131       -0.9816377509
	 H           1.5912205933        2.9855803060       -1.5253958453
	 H           0.7359518361        2.5306926616        1.6716930395
	 C           0.5414665526        1.8018541257       -0.2287972913
	 H           1.4657227657       -1.6194241312       -2.2279993403
	 H           3.6105454243       -0.8341357675        0.2075448545
	 C           1.6363113357       -0.9007954966       -0.3218418112
	 H           1.0515408836       -4.5650489287        1.3889864336
	 H          -1.7381971314       -2.8025739878        0.9979937387
	 H           0.4051930243       -1.9983341688        3.4110724847
	 C           0.2366233564       -2.6930252855        1.4961712897
	             0.0072463332        0.0024004934       -0.0036206647
	             0.0049287893       -0.0062895481        0.0008371001
	             0.0032534444        0.0028153841        0.0079589280
	            -0.0193086518       -0.0031893073       -0.0055331119
	            -0.0056482450       -0.0073733616        0.0022270553
	            -0.0034057797       -0.0057113470       -0.0074388890
	             0.0122991264        0.0203088327        0.0081171109
	            -0.0028399213        0.0031468331        0.0092268556
	            -0.0095048490        0.0011145855        0.0014429619
	             0.0180535540       -0.0079172933       -0.0156890177
	            -0.0015499328        0.0078870666       -0.0017382742
	             0.0075370885        0.0037380681       -0.0001115146
	             0.0006337602       -0.0010705080       -0.0086401450
	            -0.0116947163       -0.0098598981        0.0129616052

	---Fragment 1 Intrafragment Coordinates---
	 - Coordinate -           - BOHR/RAD -       - ANG/DEG -
	 R(1,4)           =         2.039539	       1.079278
	 R(2,4)           =         2.044994	       1.082164
	 R(3,4)           =         2.043093	       1.081158
	 R(4,7)           =         2.912174	       1.541056
	 R(5,7)           =         2.045571	       1.082469
	 R(6,7)           =         2.044723	       1.082021
	 R(7,10)          =         2.917474	       1.543861
	 R(8,10)          =         2.044251	       1.081771
	 R(9,10)          =         2.045066	       1.082202
	 R(10,14)         =         2.911423	       1.540659
	 R(11,14)         =         2.044517	       1.081912
	 R(12,14)         =         2.039632	       1.079327
	 R(13,14)         =         2.043981	       1.081628
	 B(1,4,2)         =         1.900538	     108.892816
	 B(1,4,3)         =         1.904312	     109.109061
	 B(1,4,7)         =         1.923974	     110.235574
	 B(2,4,3)         =         1.904133	     109.098768
	 B(2,4,7)         =         1.917253	     109.850515
	 B(3,4,7)         =         1.913408	     109.630197
	 B(4,7,5)         =         1.898642	     108.784168
	 B(4,7,6)         =         1.902985	     109.033000
	 B(4,7,10)        =         1.949697	     111.709404
	 B(5,7,6)         =         1.911409	     109.515649
	 B(5,7,10)        =         1.899978	     108.860745
	 B(6,7,10)        =         1.900910	     108.914092
	 B(7,10,8)        =         1.900829	     108.909451
	 B(7,10,9)        =         1.900564	     108.894273
	 B(7,10,14)       =         1.949728	     111.711194
	 B(8,10,9)        =         1.910693	     109.474663
	 B(8,10,14)       =         1.902591	     109.010416
	 B(9,10,14)       =         1.899195	     108.815885
	 B(10,14,11)      =         1.916957	     109.833562
	 B(10,14,12)      =         1.924127	     110.244369
	 B(10,14,13)      =         1.913610	     109.641784
	 B(11,14,12)      =         1.900685	     108.901235
	 B(11,14,13)      =         1.904389	     109.113457
	 B(12,14,13)      =         1.903849	     109.082505
	 D(1,4,7,5)       =        -3.134915	    -179.617405
	 D(1,4,7,6)       =        -1.051345	     -60.237653
	 D(1,4,7,10)      =         1.050479	      60.188023
	 D(2,4,7,5)       =        -1.040540	     -59.618544
	 D(2,4,7,6)       =         1.043030	      59.761208
	 D(2,4,7,10)      =        -3.138331	    -179.813115
	 D(3,4,7,5)       =         1.051663	      60.255830
	 D(3,4,7,6)       =         3.135232	     179.635582
	 D(3,4,7,10)      =        -1.046128	     -59.938742
	 D(4,7,10,8)      =         1.052304	      60.292584
	 D(4,7,10,9)      =         3.134875	     179.615115
	 D(4,7,10,14)     =        -1.050208	     -60.172469
	 D(5,7,10,8)      =        -1.044703	     -59.857089
	 D(5,7,10,9)      =         1.037868	      59.465442
	 D(5,7,10,14)     =         3.135970	     179.677858
	 D(6,7,10,8)      =        -3.127843	    -179.212227
	 D(6,7,10,9)      =        -1.045272	     -59.889695
	 D(6,7,10,14)     =         1.052830	      60.322721
	 D(7,10,14,11)    =        -3.138838	    -179.842156
	 D(7,10,14,12)    =         1.049881	      60.153774
	 D(7,10,14,13)    =        -1.046377	     -59.953007
	 D(8,10,14,11)    =         1.042866	      59.751828
	 D(8,10,14,12)    =        -1.051600	     -60.252242
	 D(8,10,14,13)    =         3.135327	     179.640978
	 D(9,10,14,11)    =        -1.039934	     -59.583811
	 D(9,10,14,12)    =        -3.134400	    -179.587881
	 D(9,10,14,13)    =         1.052527	      60.305339

	Current energy   :      -157.8405704995

	Energy change for the previous step:
		Projected    :        -0.0067440418
		Actual       :        -0.0049775905

	Performing BFGS update.
	Previous computed or guess Hessian on step 1.
	Steps to be used in Hessian update: 1
	Adding user-defined constraint: Fragment 1; Coordinate 49:
		Value =    -1.050208; Fixed value    =    -1.047200
		Force =     0.001579; Force constant =     0.525000
	Removing off-diagonal coupling between coordinate 49 and others.
	Taking RFO optimization step.
	Going to follow RFO solution 1.
	Using RFO vector 1.

	Determining step-restricting scale parameter for RS-RFO.
	Maximum step size allowed    0.10000

	 Iter      |step|        alpha        rfo_root  
	------------------------------------------------
	    0     0.18624       1.00000           1
	    1     0.15227       3.98949           1
	    2     0.12230      12.76610           1
	    3     0.10589      23.16289           1
	    4     0.10058      28.12619           1
	    5     0.10001      28.72122           1
	------------------------------------------------
	Norm of target step-size    0.10001
	Projected energy change by RFO approximation:        -0.0030608429

	Back-transformation to cartesian coordinates...
	Could not converge backtransformation.
	Using first guess instead.

	--- Internal Coordinate Step in ANG or DEG, aJ/ANG or AJ/DEG ---
	 ---------------------------------------------------------------------------
	   Coordinate                Previous        Force       Change         New 
	   ----------                --------       ------       ------       ------
	    1 R(1,4)          =      1.079278     0.061841     0.011125     1.090403
	    2 R(2,4)          =      1.082164     0.062349     0.009421     1.091585
	    3 R(3,4)          =      1.081158     0.071965     0.011074     1.092232
	    4 R(4,7)          =      1.541056    -0.031043    -0.008048     1.533008
	    5 R(5,7)          =      1.082469     0.070664     0.010695     1.093164
	    6 R(6,7)          =      1.082021     0.076405     0.011797     1.093818
	    7 R(7,10)         =      1.543861    -0.025232    -0.009245     1.534616
	    8 R(8,10)         =      1.081771     0.078044     0.012022     1.093793
	    9 R(9,10)         =      1.082202     0.072219     0.010914     1.093116
	   10 R(10,14)        =      1.540659    -0.029289    -0.007721     1.532937
	   11 R(11,14)        =      1.081912     0.063836     0.009627     1.091539
	   12 R(12,14)        =      1.079327     0.061553     0.011089     1.090416
	   13 R(13,14)        =      1.081628     0.069255     0.010695     1.092323
	   14 B(1,4,2)        =    108.892816    -0.000267    -0.727495   108.165321
	   15 B(1,4,3)        =    109.109061    -0.000209    -0.693358   108.415704
	   16 B(1,4,7)        =    110.235574     0.000325     0.862518   111.098092
	   17 B(2,4,3)        =    109.098768    -0.000198    -0.641910   108.456858
	   18 B(2,4,7)        =    109.850515     0.000180     0.537892   110.388407
	   19 B(3,4,7)        =    109.630197     0.000159     0.606030   110.236226
	   20 B(4,7,5)        =    108.784168    -0.000160    -0.032895   108.751273
	   21 B(4,7,6)        =    109.033000    -0.000128    -0.012851   109.020149
	   22 B(4,7,10)       =    111.709404     0.000678     1.165003   112.874407
	   23 B(5,7,6)        =    109.515649    -0.000058    -0.768143   108.747506
	   24 B(5,7,10)       =    108.860745    -0.000181    -0.251483   108.609262
	   25 B(6,7,10)       =    108.914092    -0.000159    -0.151906   108.762187
	   26 B(7,10,8)       =    108.909451    -0.000161    -0.156137   108.753314
	   27 B(7,10,9)       =    108.894273    -0.000185    -0.265248   108.629025
	   28 B(7,10,14)      =    111.711194     0.000682     1.172215   112.883409
	   29 B(8,10,9)       =    109.474663    -0.000055    -0.753482   108.721181
	   30 B(8,10,14)      =    109.010416    -0.000128    -0.004731   109.005685
	   31 B(9,10,14)      =    108.815885    -0.000163    -0.045149   108.770736
	   32 B(10,14,11)     =    109.833562     0.000186     0.553044   110.386606
	   33 B(10,14,12)     =    110.244369     0.000322     0.853935   111.098303
	   34 B(10,14,13)     =    109.641784     0.000158     0.603206   110.244989
	   35 B(11,14,12)     =    108.901235    -0.000268    -0.732354   108.168880
	   36 B(11,14,13)     =    109.113457    -0.000201    -0.651303   108.462154
	   37 B(12,14,13)     =    109.082505    -0.000207    -0.683052   108.399453
	   38 D(1,4,7,5)      =   -179.617405     0.000036     0.595965  -179.021440
	   39 D(1,4,7,6)      =    -60.237653    -0.000018    -0.356729   -60.594382
	   40 D(1,4,7,10)     =     60.188023     0.000015     0.194206    60.382229
	   41 D(2,4,7,5)      =    -59.618544     0.000034     0.590055   -59.028489
	   42 D(2,4,7,6)      =     59.761208    -0.000021    -0.362639    59.398569
	   43 D(2,4,7,10)     =   -179.813115     0.000012     0.188296  -179.624819
	   44 D(3,4,7,5)      =     60.255830     0.000026     0.516239    60.772069
	   45 D(3,4,7,6)      =    179.635582    -0.000029    -0.436455   179.199127
	   46 D(3,4,7,10)     =    -59.938742     0.000005     0.114480   -59.824262
	   47 D(4,7,10,8)     =     60.292584     0.000027     0.537489    60.830073
	   48 D(4,7,10,9)     =    179.615115    -0.000035    -0.611022   179.004093
	   49 D(4,7,10,14)    =    -60.172469    -0.000011    -0.102058   -60.274527
	   50 D(5,7,10,8)     =    -59.857089     0.000002     0.009764   -59.847325
	   51 D(5,7,10,9)     =     59.465442    -0.000059    -1.138747    58.326695
	   52 D(5,7,10,14)    =    179.677858    -0.000036    -0.629783   179.048075
	   53 D(6,7,10,8)     =   -179.212227     0.000064     1.165537  -178.046690
	   54 D(6,7,10,9)     =    -59.889695     0.000002     0.017026   -59.872669
	   55 D(6,7,10,14)    =     60.322721     0.000026     0.525990    60.848710
	   56 D(7,10,14,11)   =   -179.842156     0.000013     0.196965  -179.645191
	   57 D(7,10,14,12)   =     60.153774     0.000015     0.204669    60.358443
	   58 D(7,10,14,13)   =    -59.953007     0.000005     0.119410   -59.833597
	   59 D(8,10,14,11)   =     59.751828    -0.000021    -0.358170    59.393658
	   60 D(8,10,14,12)   =    -60.252242    -0.000018    -0.350465   -60.602708
	   61 D(8,10,14,13)   =    179.640978    -0.000029    -0.435725   179.205253
	   62 D(9,10,14,11)   =    -59.583811     0.000033     0.579154   -59.004657
	   63 D(9,10,14,12)   =   -179.587881     0.000036     0.586858  -179.001023
	   64 D(9,10,14,13)   =     60.305339     0.000025     0.501599    60.806938
	 ---------------------------------------------------------------------------
	 Forces used to impose fixed constraints are not included.
	  Forces zeroed: 49 

  ==> Convergence Check <==

  Measures of convergence in internal coordinates in au.
  Criteria marked as inactive (o), active & met (*), and active & unmet ( ).
  ---------------------------------------------------------------------------------------------
   Step     Total Energy     Delta E     MAX Force     RMS Force      MAX Disp      RMS Disp   
  ---------------------------------------------------------------------------------------------
    Convergence Criteria    1.00e-06 *    3.00e-04 *             o    1.20e-03 *             o
  ---------------------------------------------------------------------------------------------
      2    -157.84057050   -4.98e-03      9.47e-03      4.18e-03 o    2.27e-02      1.25e-02 o  ~
  ---------------------------------------------------------------------------------------------

	Writing optimization data to binary file.
	Structure for next step:
	Cartesian Geometry (in Angstrom)
	    H    -1.8106420271   0.3955327120   0.1521414382
	    H    -1.5687877200   2.0238418796  -0.4903582386
	    H    -1.3328909366   0.6148317162  -1.5384466639
	    C    -1.2013404845   0.9964970063  -0.5235592685
	    H     0.8495064977   1.5724308451  -0.8148914876
	    H     0.3889465011   1.3445823577   0.8868792561
	    C     0.2781833183   0.9453387582  -0.1254323353
	    H     0.7778422460  -0.8614534614  -1.1821077824
	    H     1.9133960170  -0.4294047408   0.1150631109
	    C     0.8569088776  -0.4755083837  -0.1617264952
	    H     0.5855220251  -2.4306726964   0.7387210538
	    H    -0.9183183670  -1.5244886257   0.5386434616
	    H     0.2171787857  -1.0768406989   1.8209630087
	    C     0.1384659717  -1.4363360672   0.7924994439
			--------------------------
			 OPTKING Finished Execution 
			--------------------------

    Structure for next step:
    Molecular point group: c1
    Full point group: C1

    Geometry (in Angstrom), charge = 0, multiplicity = 1:

    H           -1.809976311636     0.395785010408     0.151973449272
    H           -1.568122004505     2.024094178002    -0.490526227538
    H           -1.332225221111     0.615084014616    -1.538614652825
    C           -1.200674768951     0.996749304656    -0.523727257401
    H            0.850172213221     1.572683143534    -0.815059476530
    H            0.389612216591     1.344834656061     0.886711267124
    C            0.278849033842     0.945591056651    -0.125600324263
    H            0.778507961503    -0.861201163015    -1.182275771303
    H            1.914061732548    -0.429152442424     0.114895121967
    C            0.857574593059    -0.475256085312    -0.161894484176
    H            0.586187740585    -2.430420397989     0.738553064814
    H           -0.917652651465    -1.524236327299     0.538475472683
    H            0.217844501194    -1.076588400507     1.820795019718
    C            0.139131687219    -1.436083768772     0.792331454969

gradient() will perform analytic gradient computation.
    SCF Algorithm Type (re)set to DF.

*** tstart() called on lski1497
*** at Mon Feb 20 17:29:45 2017


         ---------------------------------------------------------
                                   SCF
            by Justin Turney, Rob Parrish, and Andy Simmonett
                              RHF Reference
                        1 Threads,   1000 MiB Core
         ---------------------------------------------------------

  ==> Geometry <==

    Molecular point group: c1
    Full point group: C1

    Geometry (in Angstrom), charge = 0, multiplicity = 1:

       Center              X                  Y                   Z               Mass       
    ------------   -----------------  -----------------  -----------------  -----------------
           H         -1.809976311636     0.395785010408     0.151973449272     1.007825032070
           H         -1.568122004505     2.024094178002    -0.490526227538     1.007825032070
           H         -1.332225221111     0.615084014616    -1.538614652825     1.007825032070
           C         -1.200674768951     0.996749304656    -0.523727257401    12.000000000000
           H          0.850172213221     1.572683143534    -0.815059476530     1.007825032070
           H          0.389612216591     1.344834656061     0.886711267124     1.007825032070
           C          0.278849033842     0.945591056651    -0.125600324263    12.000000000000
           H          0.778507961503    -0.861201163015    -1.182275771303     1.007825032070
           H          1.914061732548    -0.429152442424     0.114895121967     1.007825032070
           C          0.857574593059    -0.475256085312    -0.161894484176    12.000000000000
           H          0.586187740585    -2.430420397989     0.738553064814     1.007825032070
           H         -0.917652651465    -1.524236327299     0.538475472683     1.007825032070
           H          0.217844501194    -1.076588400507     1.820795019718     1.007825032070
           C          0.139131687219    -1.436083768772     0.792331454969    12.000000000000

  Running in c1 symmetry.

  Rotational constants: A =      0.43043  B =      0.16480  C =      0.13796 [cm^-1]
  Rotational constants: A =  12904.08094  B =   4940.70101  C =   4135.89788 [MHz]
  Nuclear repulsion =  132.942712188599955

  Charge       = 0
  Multiplicity = 1
  Electrons    = 34
  Nalpha       = 17
  Nbeta        = 17

  ==> Algorithm <==

  SCF Algorithm Type is DF.
  DIIS enabled.
  MOM disabled.
  Fractional occupation disabled.
  Guess Type is READ.
  Energy threshold   = 1.00e-10
  Density threshold  = 1.00e-10
  Integral threshold = 0.00e+00

  ==> Primary Basis <==

  Basis Set: 6-31G(D)
    Number of shells: 44
    Number of basis function: 80
    Number of Cartesian functions: 80
    Spherical Harmonics?: false
    Max angular momentum: 2

  ==> Pre-Iterations <==

   -------------------------------------------------------
    Irrep   Nso     Nmo     Nalpha   Nbeta   Ndocc  Nsocc
   -------------------------------------------------------
     A         80      80       0       0       0       0
   -------------------------------------------------------
    Total      80      80      17      17      17       0
   -------------------------------------------------------

  ==> Integral Setup <==

  ==> DFJK: Density-Fitted J/K Matrices <==

    J tasked:                  Yes
    K tasked:                  Yes
    wK tasked:                  No
    OpenMP threads:              1
    Integrals threads:           1
    Memory (MB):               715
    Algorithm:                Core
    Integral Cache:           NONE
    Schwarz Cutoff:          1E-12
    Fitting Condition:       1E-12

   => Auxiliary Basis Set <=

  Basis Set: 
    Number of shells: 186
    Number of basis function: 574
    Number of Cartesian functions: 574
    Spherical Harmonics?: false
    Max angular momentum: 3

  Minimum eigenvalue in the overlap matrix is 5.3419542275E-03.
  Using Symmetric Orthogonalization.
  SCF Guess was Projection but file not found.
  Switching over to SAD guess.

  SCF Guess: Superposition of Atomic Densities via on-the-fly atomic UHF.

  ==> Iterations <==

                           Total Energy        Delta E     RMS |[F,P]|

   @DF-RHF iter   0:  -158.67863625086619   -1.58679e+02   4.50711e-02 
   @DF-RHF iter   1:  -157.18460694283050    1.49403e+00   4.58310e-03 
   @DF-RHF iter   2:  -157.28259605501330   -9.79891e-02   1.54361e-03 DIIS
   @DF-RHF iter   3:  -157.29346092172244   -1.08649e-02   6.08197e-04 DIIS
   @DF-RHF iter   4:  -157.29534203698717   -1.88112e-03   8.58260e-05 DIIS
   @DF-RHF iter   5:  -157.29539823089902   -5.61939e-05   1.76378e-05 DIIS
   @DF-RHF iter   6:  -157.29540049356848   -2.26267e-06   4.62139e-06 DIIS
   @DF-RHF iter   7:  -157.29540059836575   -1.04797e-07   1.08418e-06 DIIS
   @DF-RHF iter   8:  -157.29540060613567   -7.76993e-09   2.35623e-07 DIIS
   @DF-RHF iter   9:  -157.29540060656382   -4.28145e-10   6.60588e-08 DIIS
   @DF-RHF iter  10:  -157.29540060659605   -3.22302e-11   1.89810e-08 DIIS
   @DF-RHF iter  11:  -157.29540060659804   -1.98952e-12   3.88412e-09 DIIS
   @DF-RHF iter  12:  -157.29540060659775    2.84217e-13   8.71263e-10 DIIS
   @DF-RHF iter  13:  -157.29540060659804   -2.84217e-13   2.07917e-10 DIIS
   @DF-RHF iter  14:  -157.29540060659815   -1.13687e-13   6.67669e-11 DIIS

  ==> Post-Iterations <==

    Orbital Energies (a.u.)
    -----------------------

    Doubly Occupied:                                                      

       1A    -11.215514     2A    -11.214930     3A    -11.208878  
       4A    -11.208873     5A     -1.069733     6A     -0.973031  
       7A     -0.872361     8A     -0.772994     9A     -0.626891  
      10A     -0.620113    11A     -0.573640    12A     -0.531963  
      13A     -0.529844    14A     -0.502545    15A     -0.463603  
      16A     -0.456585    17A     -0.454267  

    Virtual:                                                              

      18A      0.228670    19A      0.275930    20A      0.282839  
      21A      0.296736    22A      0.316158    23A      0.316323  
      24A      0.335595    25A      0.344337    26A      0.357696  
      27A      0.380353    28A      0.405810    29A      0.408953  
      30A      0.457891    31A      0.709131    32A      0.726574  
      33A      0.727687    34A      0.744219    35A      0.769248  
      36A      0.846406    37A      0.872451    38A      0.926770  
      39A      0.954328    40A      1.001734    41A      1.098120  
      42A      1.109575    43A      1.151094    44A      1.154687  
      45A      1.174613    46A      1.181973    47A      1.189791  
      48A      1.217296    49A      1.235071    50A      1.245131  
      51A      1.250390    52A      1.278517    53A      1.290711  
      54A      1.540484    55A      1.708409    56A      1.719320  
      57A      1.820037    58A      1.861657    59A      1.970257  
      60A      2.028123    61A      2.172849    62A      2.254943  
      63A      2.298912    64A      2.302242    65A      2.341585  
      66A      2.435751    67A      2.454175    68A      2.626031  
      69A      2.637750    70A      2.644901    71A      2.680502  
      72A      2.736675    73A      2.780532    74A      2.953342  
      75A      2.954730    76A      3.076286    77A      4.559378  
      78A      4.680412    79A      4.814893    80A      4.934437  

    Final Occupation by Irrep:
              A 
    DOCC [    17 ]

  Energy converged.

  @DF-RHF Final Energy:  -157.29540060659815

   => Energetics <=

    Nuclear Repulsion Energy =            132.9427121885999554
    One-Electron Energy =                -473.8846966191406977
    Two-Electron Energy =                 183.6465838239425352
    DFT Exchange-Correlation Energy =       0.0000000000000000
    Empirical Dispersion Energy =           0.0000000000000000
    PCM Polarization Energy =               0.0000000000000000
    EFP Energy =                            0.0000000000000000
    Total Energy =                       -157.2954006065982071


  Saving occupied orbitals to File 180.

*** tstop() called on lski1497 at Mon Feb 20 17:29:52 2017
Module time:
	user time   =       4.86 seconds =       0.08 minutes
	system time =       0.14 seconds =       0.00 minutes
	total time  =          7 seconds =       0.12 minutes
Total time:
	user time   =      49.41 seconds =       0.82 minutes
	system time =       1.43 seconds =       0.02 minutes
	total time  =         65 seconds =       1.08 minutes


Properties will be evaluated at   0.000000,   0.000000,   0.000000 Bohr

Properties computed using the SCF density matrix

  Nuclear Dipole Moment: (a.u.)
     X:    -0.8358      Y:    -0.3460      Z:     0.2109

  Electronic Dipole Moment: (a.u.)
     X:     0.8610      Y:     0.3564      Z:    -0.2173

  Dipole Moment: (a.u.)
     X:     0.0252      Y:     0.0104      Z:    -0.0065     Total:     0.0280

  Dipole Moment: (Debye)
     X:     0.0639      Y:     0.0264      Z:    -0.0164     Total:     0.0711


  //>>>>>>>>>>>>>>>>>>>>>>>>>>>>>>>>>>>//
  //               DFMP2               //
  //<<<<<<<<<<<<<<<<<<<<<<<<<<<<<<<<<<<//


*** tstart() called on lski1497
*** at Mon Feb 20 17:29:52 2017


*** tstop() called on lski1497 at Mon Feb 20 17:29:53 2017
Module time:
	user time   =       0.53 seconds =       0.01 minutes
	system time =       0.00 seconds =       0.00 minutes
	total time  =          1 seconds =       0.02 minutes
Total time:
	user time   =      49.96 seconds =       0.83 minutes
	system time =       1.43 seconds =       0.02 minutes
	total time  =         66 seconds =       1.10 minutes
	 --------------------------------------------------------
	                          DF-MP2                         
	      2nd-Order Density-Fitted Moller-Plesset Theory     
	              RMP2 Wavefunction,   1 Threads             
	                                                         
	        Rob Parrish, Justin Turney, Andy Simmonett,      
	           Ed Hohenstein, and C. David Sherrill          
	 --------------------------------------------------------

   => Auxiliary Basis Set <=

  Basis Set: 
    Number of shells: 132
    Number of basis function: 364
    Number of Cartesian functions: 414
    Spherical Harmonics?: true
    Max angular momentum: 3

	 --------------------------------------------------------
	                 NBF =    80, NAUX =   364
	 --------------------------------------------------------
	   CLASS    FOCC     OCC    AOCC    AVIR     VIR    FVIR
	   PAIRS       0      17      17      63      63       0
	 --------------------------------------------------------

DGAS Warning! /src/lib/libfock/apps.cc:80 is not currently checking restricted

         ------------------------------------------------------------
                                     CPHF                           
                                  Rob Parrish                       
         ------------------------------------------------------------

  ==> Geometry <==

    Molecular point group: c1
    Full point group: C1

    Geometry (in Angstrom), charge = 0, multiplicity = 1:

       Center              X                  Y                   Z               Mass       
    ------------   -----------------  -----------------  -----------------  -----------------
           H         -1.809976311636     0.395785010408     0.151973449272     1.007825032070
           H         -1.568122004505     2.024094178002    -0.490526227538     1.007825032070
           H         -1.332225221111     0.615084014616    -1.538614652825     1.007825032070
           C         -1.200674768951     0.996749304656    -0.523727257401    12.000000000000
           H          0.850172213221     1.572683143534    -0.815059476530     1.007825032070
           H          0.389612216591     1.344834656061     0.886711267124     1.007825032070
           C          0.278849033842     0.945591056651    -0.125600324263    12.000000000000
           H          0.778507961503    -0.861201163015    -1.182275771303     1.007825032070
           H          1.914061732548    -0.429152442424     0.114895121967     1.007825032070
           C          0.857574593059    -0.475256085312    -0.161894484176    12.000000000000
           H          0.586187740585    -2.430420397989     0.738553064814     1.007825032070
           H         -0.917652651465    -1.524236327299     0.538475472683     1.007825032070
           H          0.217844501194    -1.076588400507     1.820795019718     1.007825032070
[...]
    Number of shells: 186
    Number of basis function: 574
    Number of Cartesian functions: 574
    Spherical Harmonics?: false
    Max angular momentum: 3

  ==> CPHF Iterations <==

  => Iterations <=

             Iter  Converged  Remaining    Residual
  CGR           1          0          1   7.652E-02
  CGR           2          0          1   8.981E-03
  CGR           3          0          1   2.426E-03
  CGR           4          0          1   4.350E-04
  CGR           5          0          1   7.982E-05
  CGR           6          0          1   1.502E-05
  CGR           7          0          1   1.964E-06
  CGR           8          1          0   4.255E-07

    CGRSolver converged.

  ==> DFCorrGrad: Density-Fitted Correlated Gradients <==

    OpenMP threads:              1
    Integrals threads:           1
    Memory (MB):               715
    Schwarz Cutoff:          0E+00
    Fitting Condition:       1E-12

   => Auxiliary Basis Set <=

  Basis Set: 
    Number of shells: 186
    Number of basis function: 510
    Number of Cartesian functions: 574
    Spherical Harmonics?: true
    Max angular momentum: 3

	-----------------------------------------------------------
	 ==================> DF-MP2 Energies <==================== 
	-----------------------------------------------------------
	 Reference Energy          =    -157.2962140470371537 [Eh]
	 Singles Energy            =      -0.0000000000000000 [Eh]
	 Same-Spin Energy          =      -0.1246804792345924 [Eh]
	 Opposite-Spin Energy      =      -0.4225060130144401 [Eh]
	 Correlation Energy        =      -0.5471864922490325 [Eh]
	 Total Energy              =    -157.8434005392861934 [Eh]
	-----------------------------------------------------------
	 ================> DF-SCS-MP2 Energies <================== 
	-----------------------------------------------------------
	 SCS Same-Spin Scale       =       0.3333333333333333 [-]
	 SCS Opposite-Spin Scale   =       1.2000000000000000 [-]
	 SCS Same-Spin Energy      =      -0.0415601597448641 [Eh]
	 SCS Opposite-Spin Energy  =      -0.5070072156173281 [Eh]
	 SCS Correlation Energy    =      -0.5485673753621922 [Eh]
	 SCS Total Energy          =    -157.8447814223993362 [Eh]
	-----------------------------------------------------------


  -Total Gradient:
     Atom            X                  Y                   Z
    ------   -----------------  -----------------  -----------------
       1       -0.000015855571    -0.000006298392     0.000001026982
       2       -0.000003880782     0.000007805802     0.000002994380
       3        0.000003671516    -0.000000715550    -0.000003652755
       4       -0.000168939367    -0.000079150295     0.000582586542
       5        0.000034024693     0.000000985562     0.000005785303
       6       -0.000020320927     0.000001600316    -0.000002800238
       7        0.000083975508     0.000037924104    -0.000993376417
       8       -0.000010377583    -0.000014271541     0.000010509936
       9        0.000019331509     0.000021246430    -0.000019204045
      10        0.000484276965     0.000197236204     0.000849379215
      11        0.000001628209    -0.000009002952    -0.000002234935
      12       -0.000014440523    -0.000006199443     0.000006785531
      13        0.000003201669     0.000003424634     0.000001622331
      14       -0.000396295315    -0.000154584879    -0.000439421830


			-----------------------------------------
			 OPTKING 2.0: for geometry optimizations 
			  - R.A. King,  Bethel University        
			-----------------------------------------

	Previous internal coordinate definitions found.
	---Fragment 1 Geometry and Gradient---
	 H          -3.4696026833        0.9233392328        0.3761758948
	 H          -2.9106408768        3.8862367980       -1.0421476065
	 H          -2.5780328395        1.0896488037       -2.8392277859
	 C          -2.2675998762        1.9235374990       -0.9716298259
	 H           1.6225769153        2.9814900473       -1.5035311338
	 H           0.7627895282        2.5567064228        1.6709216233
	 C           0.5154109185        1.7756563373       -0.2339992988
	 H           1.5001714311       -1.6203659314       -2.2437653416
	 H           3.6180410421       -0.8130863990        0.1769289267
	 C           1.6045157684       -0.8984983036       -0.3026371254
	 H           1.2287082284       -4.5821678004        1.4679162435
	 H          -1.6835128856       -3.0555360465        0.9282785422
	 H           0.2976586786       -2.0331917507        3.4164768190
	 C           0.2830445383       -2.7446834206        1.4739980001
	            -0.0000158556       -0.0000062984        0.0000010270
	            -0.0000038808        0.0000078058        0.0000029944
	             0.0000036715       -0.0000007156       -0.0000036528
	            -0.0001689394       -0.0000791503        0.0005825865
	             0.0000340247        0.0000009856        0.0000057853
	            -0.0000203209        0.0000016003       -0.0000028002
	             0.0000839755        0.0000379241       -0.0009933764
	            -0.0000103776       -0.0000142715        0.0000105099
	             0.0000193315        0.0000212464       -0.0000192040
	             0.0004842770        0.0001972362        0.0008493792
	             0.0000016282       -0.0000090030       -0.0000022349
	            -0.0000144405       -0.0000061994        0.0000067855
	             0.0000032017        0.0000034246        0.0000016223
	            -0.0003962953       -0.0001545849       -0.0004394218

	---Fragment 1 Intrafragment Coordinates---
	 - Coordinate -           - BOHR/RAD -       - ANG/DEG -
	 R(1,4)           =         2.064410	       1.092439
	 R(2,4)           =         2.066558	       1.093576
	 R(3,4)           =         2.068734	       1.094727
	 R(4,7)           =         2.882901	       1.525565
	 R(5,7)           =         2.071609	       1.096248
	 R(6,7)           =         2.073634	       1.097320
	 R(7,10)          =         2.888246	       1.528394
	 R(8,10)          =         2.073634	       1.097320
	 R(9,10)          =         2.071609	       1.096248
	 R(10,14)         =         2.882901	       1.525565
	 R(11,14)         =         2.066559	       1.093576
	 R(12,14)         =         2.064410	       1.092439
	 R(13,14)         =         2.068733	       1.094727
	 B(1,4,2)         =         1.876799	     107.532639
	 B(1,4,3)         =         1.882554	     107.862381
	 B(1,4,7)         =         1.949994	     111.726425
	 B(2,4,3)         =         1.881086	     107.778276
	 B(2,4,7)         =         1.936742	     110.967142
	 B(3,4,7)         =         1.933892	     110.803875
	 B(4,7,5)         =         1.906328	     109.224567
	 B(4,7,6)         =         1.908042	     109.322754
	 B(4,7,10)        =         1.988245	     113.918038
	 B(5,7,6)         =         1.854552	     106.257976
	 B(5,7,10)        =         1.899520	     108.834507
	 B(6,7,10)        =         1.902426	     109.000967
	 B(7,10,8)        =         1.902426	     109.000981
	 B(7,10,9)        =         1.899519	     108.834416
	 B(7,10,14)       =         1.988245	     113.918044
	 B(8,10,9)        =         1.854552	     106.258019
	 B(8,10,14)       =         1.908043	     109.322799
	 B(9,10,14)       =         1.906328	     109.224551
	 B(10,14,11)      =         1.936744	     110.967252
	 B(10,14,12)      =         1.949994	     111.726451
	 B(10,14,13)      =         1.933892	     110.803876
	 B(11,14,12)      =         1.876799	     107.532642
	 B(11,14,13)      =         1.881085	     107.778216
	 B(12,14,13)      =         1.882552	     107.862292
	 D(1,4,7,5)       =        -3.027005	    -173.434608
	 D(1,4,7,6)       =        -1.004537	     -57.555729
	 D(1,4,7,10)      =         1.128337	      64.648941
	 D(2,4,7,5)       =        -0.932631	     -53.435824
	 D(2,4,7,6)       =         1.089837	      62.443055
	 D(2,4,7,10)      =        -3.060475	    -175.352275
	 D(3,4,7,5)       =         1.156446	      66.259461
	 D(3,4,7,6)       =        -3.104272	    -177.861660
	 D(3,4,7,10)      =        -0.971398	     -55.656990
	 D(4,7,10,8)      =         1.086735	      62.265318
	 D(4,7,10,9)      =         3.102361	     177.752183
	 D(4,7,10,14)     =        -1.049228	     -60.116351
	 D(5,7,10,8)      =        -1.044863	     -59.866231
	 D(5,7,10,9)      =         0.970763	      55.620633
	 D(5,7,10,14)     =         3.102359	     177.752099
	 D(6,7,10,8)      =        -3.060489	    -175.353086
	 D(6,7,10,9)      =        -1.044863	     -59.866221
	 D(6,7,10,14)     =         1.086734	      62.265245
	 D(7,10,14,11)    =        -3.060472	    -175.352138
	 D(7,10,14,12)    =         1.128338	      64.648983
	 D(7,10,14,13)    =        -0.971395	     -55.656855
	 D(8,10,14,11)    =         1.089838	      62.443135
	 D(8,10,14,12)    =        -1.004537	     -57.555744
	 D(8,10,14,13)    =        -3.104270	    -177.861582
	 D(9,10,14,11)    =        -0.932631	     -53.435812
	 D(9,10,14,12)    =        -3.027006	    -173.434692
	 D(9,10,14,13)    =         1.156446	      66.259471

	Current energy   :      -157.8434005393

	Energy change for the previous step:
		Projected    :         0.0000002388
		Actual       :         0.0000011717

	Performing BFGS update.
	Previous computed or guess Hessian on step 1.
	Steps to be used in Hessian update: 7 6
	Adding user-defined constraint: Fragment 1; Coordinate 49:
		Value =    -1.049228; Fixed value    =    -1.047200
		Force =     0.001369; Force constant =     0.675000
	Removing off-diagonal coupling between coordinate 49 and others.
	Taking RFO optimization step.
	Going to follow RFO solution 1.
	Using RFO vector 1.
	Norm of target step-size    0.00348
	Projected energy change by RFO approximation:         0.0000003657

	Back-transformation to cartesian coordinates...
	Successfully converged to displaced geometry.

	--- Internal Coordinate Step in ANG or DEG, aJ/ANG or AJ/DEG ---
	 ---------------------------------------------------------------------------
	   Coordinate                Previous        Force       Change         New 
	   ----------                --------       ------       ------       ------
	    1 R(1,4)          =      1.092439    -0.000107    -0.000020     1.092418
	    2 R(2,4)          =      1.093576    -0.000070    -0.000015     1.093560
	    3 R(3,4)          =      1.094727    -0.000025    -0.000006     1.094721
	    4 R(4,7)          =      1.525565    -0.000210    -0.000043     1.525522
	    5 R(5,7)          =      1.096248    -0.000125    -0.000026     1.096222
	    6 R(6,7)          =      1.097320     0.000036     0.000004     1.097324
	    7 R(7,10)         =      1.528394     0.000098     0.000023     1.528417
	    8 R(8,10)         =      1.097320     0.000036     0.000004     1.097324
	    9 R(9,10)         =      1.096248    -0.000125    -0.000026     1.096222
	   10 R(10,14)        =      1.525565    -0.000211    -0.000043     1.525522
	   11 R(11,14)        =      1.093576    -0.000072    -0.000016     1.093560
	   12 R(12,14)        =      1.092439    -0.000106    -0.000020     1.092418
	   13 R(13,14)        =      1.094727    -0.000023    -0.000005     1.094722
	   14 B(1,4,2)        =    107.532639     0.000000     0.001502   107.534142
	   15 B(1,4,3)        =    107.862381     0.000000     0.001720   107.864101
	   16 B(1,4,7)        =    111.726425    -0.000001    -0.007549   111.718876
	   17 B(2,4,3)        =    107.778276    -0.000000     0.000123   107.778398
	   18 B(2,4,7)        =    110.967142     0.000000     0.000997   110.968139
	   19 B(3,4,7)        =    110.803875     0.000001     0.003414   110.807289
	   20 B(4,7,5)        =    109.224567     0.000002    -0.015843   109.208724
	   21 B(4,7,6)        =    109.322754    -0.000002     0.012435   109.335189
	   22 B(4,7,10)       =    113.918038    -0.000001    -0.004635   113.913402
	   23 B(5,7,6)        =    106.257976     0.000000     0.002329   106.260305
	   24 B(5,7,10)       =    108.834507     0.000001     0.004405   108.838912
	   25 B(6,7,10)       =    109.000967    -0.000000     0.001770   109.002737
	   26 B(7,10,8)       =    109.000981    -0.000000     0.001764   109.002745
	   27 B(7,10,9)       =    108.834416     0.000001     0.004508   108.838924
	   28 B(7,10,14)      =    113.918044    -0.000001    -0.004681   113.913363
	   29 B(8,10,9)       =    106.258019     0.000000     0.002301   106.260321
	   30 B(8,10,14)      =    109.322799    -0.000002     0.012402   109.335201
	   31 B(9,10,14)      =    109.224551     0.000002    -0.015832   109.208719
	   32 B(10,14,11)     =    110.967252     0.000000     0.000882   110.968134
	   33 B(10,14,12)     =    111.726451    -0.000001    -0.007570   111.718881
	   34 B(10,14,13)     =    110.803876     0.000001     0.003414   110.807290
	   35 B(11,14,12)     =    107.532642     0.000000     0.001501   107.534143
	   36 B(11,14,13)     =    107.778216    -0.000000     0.000180   107.778396
	   37 B(12,14,13)     =    107.862292     0.000000     0.001807   107.864099
	   38 D(1,4,7,5)      =   -173.434608     0.000000     0.035268  -173.399340
	   39 D(1,4,7,6)      =    -57.555729     0.000000     0.036135   -57.519594
	   40 D(1,4,7,10)     =     64.648941    -0.000000     0.044477    64.693418
	   41 D(2,4,7,5)      =    -53.435824     0.000000     0.032777   -53.403047
	   42 D(2,4,7,6)      =     62.443055     0.000000     0.033644    62.476699
	   43 D(2,4,7,10)     =   -175.352275    -0.000000     0.041986  -175.310289
	   44 D(3,4,7,5)      =     66.259461     0.000000     0.035831    66.295292
	   45 D(3,4,7,6)      =   -177.861660     0.000000     0.036698  -177.824962
	   46 D(3,4,7,10)     =    -55.656990    -0.000000     0.045040   -55.611950
	   47 D(4,7,10,8)     =     62.265318     0.000001     0.026131    62.291449
	   48 D(4,7,10,9)     =    177.752183     0.000001     0.032275   177.784458
	   49 D(4,7,10,14)    =    -60.116351     0.000002     0.012010   -60.104341
	   50 D(5,7,10,8)     =    -59.866231     0.000000     0.046455   -59.819777
	   51 D(5,7,10,9)     =     55.620633     0.000000     0.052599    55.673232
	   52 D(5,7,10,14)    =    177.752099     0.000001     0.032334   177.784433
	   53 D(6,7,10,8)     =   -175.353086     0.000000     0.040330  -175.312756
	   54 D(6,7,10,9)     =    -59.866221     0.000000     0.046474   -59.819747
	   55 D(6,7,10,14)    =     62.265245     0.000001     0.026210    62.291454
	   56 D(7,10,14,11)   =   -175.352138    -0.000000     0.041857  -175.310281
	   57 D(7,10,14,12)   =     64.648983    -0.000000     0.044441    64.693424
	   58 D(7,10,14,13)   =    -55.656855    -0.000000     0.044908   -55.611946
	   59 D(8,10,14,11)   =     62.443135     0.000000     0.033579    62.476715
	   60 D(8,10,14,12)   =    -57.555744     0.000000     0.036164   -57.519581
	   61 D(8,10,14,13)   =   -177.861582     0.000000     0.036631  -177.824951
	   62 D(9,10,14,11)   =    -53.435812     0.000000     0.032758   -53.403054
	   63 D(9,10,14,12)   =   -173.434692     0.000000     0.035342  -173.399349
	   64 D(9,10,14,13)   =     66.259471     0.000000     0.035809    66.295281
	 ---------------------------------------------------------------------------
	 Forces used to impose fixed constraints are not included.
	  Forces zeroed: 49 

  ==> Convergence Check <==

  Measures of convergence in internal coordinates in au.
  Criteria marked as inactive (o), active & met (*), and active & unmet ( ).
  ---------------------------------------------------------------------------------------------
   Step     Total Energy     Delta E     MAX Force     RMS Force      MAX Disp      RMS Disp   
  ---------------------------------------------------------------------------------------------
    Convergence Criteria    1.00e-06 *    3.00e-04 *             o    1.20e-03 *             o
  ---------------------------------------------------------------------------------------------
      8    -157.84340054    1.17e-06      6.34e-05 *    2.11e-05 o    9.18e-04 *    4.35e-04 o  ~
  ---------------------------------------------------------------------------------------------


  **** Optimization is complete! (in 8 steps) ****

  ==> Optimization Summary <==

  Measures of convergence in internal coordinates in au.
  --------------------------------------------------------------------------------------------------------------- ~
   Step         Total Energy             Delta E       MAX Force       RMS Force        MAX Disp        RMS Disp  ~
  --------------------------------------------------------------------------------------------------------------- ~
      1    -157.835592908989   -157.835592908989      0.02377507      0.00856368      0.03873569      0.01263962  ~
      2    -157.840570499527     -0.004977590538      0.00947282      0.00417637      0.02271772      0.01253603  ~
      3    -157.842632466359     -0.002061966832      0.00419119      0.00141497      0.03112190      0.01251524  ~
      4    -157.843221369108     -0.000588902749      0.00089395      0.00043832      0.02832474      0.01250434  ~
      5    -157.843351459641     -0.000130090533      0.00037736      0.00013389      0.02492756      0.01250113  ~
      6    -157.843390725844     -0.000039266203      0.00027792      0.00008261      0.02235998      0.01144777  ~
      7    -157.843401711019     -0.000010985174      0.00031223      0.00007132      0.00163814      0.00072861  ~
      8    -157.843400539286      0.000001171732      0.00010734      0.00002501      0.00091802      0.00043489  ~
  --------------------------------------------------------------------------------------------------------------- ~

	Writing optimization data to binary file.
	Final energy is   -157.8434005392862
	Final (previous) structure:
	Cartesian Geometry (in Angstrom)
	    H    -1.8360346629   0.4886100778   0.1990637100
	    H    -1.5402448144   2.0565079407  -0.5514807614
	    H    -1.3642362216   0.5766173123  -1.5024546343
	    C    -1.1999621727   1.0178922043  -0.5141643590
	    H     0.8586307228   1.5777365807  -0.7956344084
	    H     0.4036508333   1.3529507680   0.8842136404
	    C     0.2727437111   0.9396368640  -0.1238270957
	    H     0.7938565303  -0.8574607205  -1.1873494802
	    H     1.9145848592  -0.4302667910   0.0936267556
	    C     0.8490731755  -0.4754648242  -0.1601486692
	    H     0.6502043905  -2.4247787659   0.7767878202
	    H    -0.8908766494  -1.6169200358   0.4912238478
	    H     0.1575141886  -1.0759187352   1.8079216663
	    C     0.1497807187  -1.4524239110   0.7800061472
	Saving final (previous) structure.
			--------------------------
			 OPTKING Finished Execution 
			--------------------------

    Final optimized geometry and variables:
    Molecular point group: c1
    Full point group: C1

    Geometry (in Angstrom), charge = 0, multiplicity = 1:

    H           -1.836034662865     0.488610077777     0.199063709967
    H           -1.540244814416     2.056507940699    -0.551480761369
    H           -1.364236221635     0.576617312301    -1.502454634275
    C           -1.199962172674     1.017892204329    -0.514164359048
    H            0.858630722765     1.577736580652    -0.795634408419
    H            0.403650833288     1.352950767986     0.884213640414
    C            0.272743711129     0.939636864008    -0.123827095727
    H            0.793856530334    -0.857460720474    -1.187349480181
    H            1.914584859221    -0.430266790990     0.093626755561
    C            0.849073175465    -0.475464824230    -0.160148669246
    H            0.650204390495    -2.424778765910     0.776787820199
    H           -0.890876649427    -1.616920035848     0.491223847757
    H            0.157514188649    -1.075918735181     1.807921666273
    C            0.149780718676    -1.452423910953     0.780006147153

	Cleaning optimization helper files.

*** Psi4 exiting successfully. Buy a developer a beer!
