    -----------------------------------------------------------------------
          Psi4: An Open-Source Ab Initio Electronic Structure Package
                              Psi4 1.0.0 Driver

                          Git: Rev {master} 6a9a71b 

    J. M. Turney, A. C. Simmonett, R. M. Parrish, E. G. Hohenstein,
    F. A. Evangelista, J. T. Fermann, B. J. Mintz, L. A. Burns, J. J. Wilke,
    M. L. Abrams, N. J. Russ, M. L. Leininger, C. L. Janssen, E. T. Seidl,
    W. D. Allen, H. F. Schaefer, R. A. King, E. F. Valeev, C. D. Sherrill,
    and T. D. Crawford, WIREs Comput. Mol. Sci. 2, 556-565 (2012)
    (doi: 10.1002/wcms.93)

                         Additional Contributions by
    A. E. DePrince, U. Bozkaya, A. Yu. Sokolov, D. G. A. Smith, R. Di Remigio,
    R. M. Richard, J. F. Gonthier, H. R. McAlexander, M. Saitow, and
    B. P. Pritchard
    -----------------------------------------------------------------------


    Psi4 started on: Thu Feb 16 16:34:19 2017

    Process ID:   2012
    PSI4DATADIR: /Users/sternc1/anaconda/share/psi4
    Memory level set to 256.000 MB

  ==> Input File <==

--------------------------------------------------------------------------

memory 1000 mb

molecule butane {
  symmetry C1
  0 1 
  H      1.604   0.760   -8.260
  H      1.745   2.388   -8.880
  H      2.043   1.024   -9.930
  C      2.142   1.395   -8.932
  H      4.169   2.051   -9.210
  H      3.731   1.788   -7.539
  C      3.631   1.416   -8.537
  H      4.105   -0.383   -9.610
  H      5.237   0.003   -8.338
  C      4.203   -0.012   -8.612
  H      3.827   -1.919   -7.698
  H      2.395   -0.942   -7.919
  H      3.528   -0.556   -6.646
  C      3.429   -0.927   -7.645
  units Angstrom
}

dih_string = "4 7 10 14 300"
set optking fixed_dihedral = $dih_string

optimize('MP2/6-31G(d)')
--------------------------------------------------------------------------

  Memory set to 1000.000 MiB by Python script.
gradient() will perform analytic gradient computation.
    SCF Algorithm Type (re)set to DF.

*** tstart() called on lski1497
*** at Thu Feb 16 16:34:21 2017


         ---------------------------------------------------------
                                   SCF
            by Justin Turney, Rob Parrish, and Andy Simmonett
                              RHF Reference
                        1 Threads,   1000 MiB Core
         ---------------------------------------------------------

  ==> Geometry <==

    Molecular point group: c1
    Full point group: C1

    Geometry (in Angstrom), charge = 0, multiplicity = 1:

       Center              X                  Y                   Z               Mass       
    ------------   -----------------  -----------------  -----------------  -----------------
           H         -1.727667272517     0.300086443072     0.166554428593     1.007825032070
           H         -1.586667272517     1.928086443072    -0.453445571407     1.007825032070
           H         -1.288667272517     0.564086443072    -1.503445571407     1.007825032070
           C         -1.189667272517     0.935086443072    -0.505445571407    12.000000000000
           H          0.837332727483     1.591086443072    -0.783445571407     1.007825032070
           H          0.399332727483     1.328086443072     0.887554428593     1.007825032070
           C          0.299332727483     0.956086443072    -0.110445571407    12.000000000000
           H          0.773332727483    -0.842913556928    -1.183445571407     1.007825032070
           H          1.905332727483    -0.456913556928     0.088554428593     1.007825032070
           C          0.871332727483    -0.471913556928    -0.185445571407    12.000000000000
           H          0.495332727483    -2.378913556928     0.728554428593     1.007825032070
           H         -0.936667272517    -1.401913556928     0.507554428593     1.007825032070
           H          0.196332727483    -1.015913556928     1.780554428593     1.007825032070
           C          0.097332727483    -1.386913556928     0.781554428593    12.000000000000

  Running in c1 symmetry.

  Rotational constants: A =      0.41855  B =      0.17558  C =      0.14457 [cm^-1]
  Rotational constants: A =  12547.80849  B =   5263.80251  C =   4334.13135 [MHz]
  Nuclear repulsion =  134.726867068292563

  Charge       = 0
  Multiplicity = 1
  Electrons    = 34
  Nalpha       = 17
  Nbeta        = 17

  ==> Algorithm <==

  SCF Algorithm Type is DF.
  DIIS enabled.
  MOM disabled.
  Fractional occupation disabled.
  Guess Type is SAD.
  Energy threshold   = 1.00e-10
  Density threshold  = 1.00e-10
  Integral threshold = 0.00e+00

  ==> Primary Basis <==

  Basis Set: 6-31G(D)
    Number of shells: 44
    Number of basis function: 80
    Number of Cartesian functions: 80
    Spherical Harmonics?: false
    Max angular momentum: 2

  ==> Pre-Iterations <==

   -------------------------------------------------------
    Irrep   Nso     Nmo     Nalpha   Nbeta   Ndocc  Nsocc
   -------------------------------------------------------
     A         80      80       0       0       0       0
   -------------------------------------------------------
    Total      80      80      17      17      17       0
   -------------------------------------------------------

  ==> Integral Setup <==

  ==> DFJK: Density-Fitted J/K Matrices <==

    J tasked:                  Yes
    K tasked:                  Yes
    wK tasked:                  No
    OpenMP threads:              1
    Integrals threads:           1
    Memory (MB):               715
    Algorithm:                Core
    Integral Cache:           NONE
    Schwarz Cutoff:          1E-12
    Fitting Condition:       1E-12

   => Auxiliary Basis Set <=

  Basis Set: 
    Number of shells: 186
    Number of basis function: 574
    Number of Cartesian functions: 574
    Spherical Harmonics?: false
    Max angular momentum: 3

  Minimum eigenvalue in the overlap matrix is 5.2460631870E-03.
  Using Symmetric Orthogonalization.
  SCF Guess: Superposition of Atomic Densities via on-the-fly atomic UHF.

  ==> Iterations <==

                           Total Energy        Delta E     RMS |[F,P]|

   @DF-RHF iter   0:  -158.85496417102433   -1.58855e+02   4.64133e-02 
   @DF-RHF iter   1:  -157.17964923208660    1.67531e+00   4.60629e-03 
   @DF-RHF iter   2:  -157.27734440434540   -9.76952e-02   1.50183e-03 DIIS
   @DF-RHF iter   3:  -157.28785692455006   -1.05125e-02   5.92917e-04 DIIS
   @DF-RHF iter   4:  -157.28961513795491   -1.75821e-03   8.70887e-05 DIIS
   @DF-RHF iter   5:  -157.28967318425214   -5.80463e-05   1.86076e-05 DIIS
   @DF-RHF iter   6:  -157.28967565203106   -2.46778e-06   4.94796e-06 DIIS
   @DF-RHF iter   7:  -157.28967577962419   -1.27593e-07   1.19594e-06 DIIS
   @DF-RHF iter   8:  -157.28967578974732   -1.01231e-08   2.74684e-07 DIIS
   @DF-RHF iter   9:  -157.28967579037135   -6.24027e-10   7.28300e-08 DIIS
   @DF-RHF iter  10:  -157.28967579041273   -4.13820e-11   2.00018e-08 DIIS
   @DF-RHF iter  11:  -157.28967579041472   -1.98952e-12   4.72957e-09 DIIS
   @DF-RHF iter  12:  -157.28967579041472    0.00000e+00   1.06552e-09 DIIS
   @DF-RHF iter  13:  -157.28967579041500   -2.84217e-13   2.16298e-10 DIIS
   @DF-RHF iter  14:  -157.28967579041495    5.68434e-14   7.06175e-11 DIIS

  ==> Post-Iterations <==

    Orbital Energies (a.u.)
    -----------------------

    Doubly Occupied:                                                      

       1A    -11.208045     2A    -11.207445     3A    -11.199783  
       4A    -11.199772     5A     -1.074216     6A     -0.973695  
       7A     -0.877859     8A     -0.781905     9A     -0.631964  
      10A     -0.629545    11A     -0.578404    12A     -0.535716  
      13A     -0.531672    14A     -0.505770    15A     -0.472068  
      16A     -0.455109    17A     -0.451306  

    Virtual:                                                              

      18A      0.235787    19A      0.281544    20A      0.287477  
      21A      0.302429    22A      0.319471    23A      0.320901  
      24A      0.343859    25A      0.352974    26A      0.363364  
      27A      0.387946    28A      0.409274    29A      0.420055  
      30A      0.446578    31A      0.715090    32A      0.720650  
      33A      0.740071    34A      0.743197    35A      0.764030  
      36A      0.833717    37A      0.868833    38A      0.927676  
      39A      0.950509    40A      0.996978    41A      1.106784  
      42A      1.119634    43A      1.175927    44A      1.178456  
      45A      1.193091    46A      1.207321    47A      1.216805  
      48A      1.235548    49A      1.240647    50A      1.267947  
      51A      1.272505    52A      1.303012    53A      1.320329  
      54A      1.570978    55A      1.711805    56A      1.715033  
      57A      1.832624    58A      1.861742    59A      1.974137  
      60A      2.043444    61A      2.172893    62A      2.260919  
      63A      2.300390    64A      2.313040    65A      2.359120  
      66A      2.461626    67A      2.484744    68A      2.660057  
      69A      2.662747    70A      2.667810    71A      2.698284  
      72A      2.759871    73A      2.803084    74A      2.925162  
      75A      2.954904    76A      3.090975    77A      4.582554  
      78A      4.696552    79A      4.819996    80A      4.946249  

    Final Occupation by Irrep:
              A 
    DOCC [    17 ]

  Energy converged.

  @DF-RHF Final Energy:  -157.28967579041495

   => Energetics <=

    Nuclear Repulsion Energy =            134.7268670682925631
    One-Electron Energy =                -477.4045335744270915
    Two-Electron Energy =                 185.3879907157195817
    DFT Exchange-Correlation Energy =       0.0000000000000000
    Empirical Dispersion Energy =           0.0000000000000000
    PCM Polarization Energy =               0.0000000000000000
    EFP Energy =                            0.0000000000000000
    Total Energy =                       -157.2896757904149467


  Saving occupied orbitals to File 180.

*** tstop() called on lski1497 at Thu Feb 16 16:34:27 2017
Module time:
	user time   =       4.98 seconds =       0.08 minutes
	system time =       0.15 seconds =       0.00 minutes
	total time  =          6 seconds =       0.10 minutes
Total time:
	user time   =       4.98 seconds =       0.08 minutes
	system time =       0.15 seconds =       0.00 minutes
	total time  =          6 seconds =       0.10 minutes


Properties will be evaluated at   0.000000,   0.000000,   0.000000 Bohr

Properties computed using the SCF density matrix

  Nuclear Dipole Moment: (a.u.)
     X:    -0.8744      Y:    -0.3611      Z:     0.2208

  Electronic Dipole Moment: (a.u.)
     X:     0.9049      Y:     0.3732      Z:    -0.2291

  Dipole Moment: (a.u.)
     X:     0.0305      Y:     0.0121      Z:    -0.0082     Total:     0.0339

  Dipole Moment: (Debye)
     X:     0.0776      Y:     0.0308      Z:    -0.0209     Total:     0.0861


  //>>>>>>>>>>>>>>>>>>>>>>>>>>>>>>>>>>>//
  //               DFMP2               //
  //<<<<<<<<<<<<<<<<<<<<<<<<<<<<<<<<<<<//


*** tstart() called on lski1497
*** at Thu Feb 16 16:34:27 2017


*** tstop() called on lski1497 at Thu Feb 16 16:34:27 2017
Module time:
	user time   =       0.53 seconds =       0.01 minutes
	system time =       0.01 seconds =       0.00 minutes
	total time  =          0 seconds =       0.00 minutes
Total time:
	user time   =       5.53 seconds =       0.09 minutes
	system time =       0.16 seconds =       0.00 minutes
	total time  =          6 seconds =       0.10 minutes
	 --------------------------------------------------------
	                          DF-MP2                         
	      2nd-Order Density-Fitted Moller-Plesset Theory     
	              RMP2 Wavefunction,   1 Threads             
	                                                         
	        Rob Parrish, Justin Turney, Andy Simmonett,      
	           Ed Hohenstein, and C. David Sherrill          
	 --------------------------------------------------------

   => Auxiliary Basis Set <=

  Basis Set: 
    Number of shells: 132
    Number of basis function: 364
    Number of Cartesian functions: 414
    Spherical Harmonics?: true
    Max angular momentum: 3

	 --------------------------------------------------------
	                 NBF =    80, NAUX =   364
	 --------------------------------------------------------
	   CLASS    FOCC     OCC    AOCC    AVIR     VIR    FVIR
	   PAIRS       0      17      17      63      63       0
	 --------------------------------------------------------

DGAS Warning! /src/lib/libfock/apps.cc:80 is not currently checking restricted

         ------------------------------------------------------------
                                     CPHF                           
                                  Rob Parrish                       
         ------------------------------------------------------------

  ==> Geometry <==

    Molecular point group: c1
    Full point group: C1

    Geometry (in Angstrom), charge = 0, multiplicity = 1:

       Center              X                  Y                   Z               Mass       
    ------------   -----------------  -----------------  -----------------  -----------------
           H         -1.727667272517     0.300086443072     0.166554428593     1.007825032070
           H         -1.586667272517     1.928086443072    -0.453445571407     1.007825032070
           H         -1.288667272517     0.564086443072    -1.503445571407     1.007825032070
           C         -1.189667272517     0.935086443072    -0.505445571407    12.000000000000
           H          0.837332727483     1.591086443072    -0.783445571407     1.007825032070
           H          0.399332727483     1.328086443072     0.887554428593     1.007825032070
           C          0.299332727483     0.956086443072    -0.110445571407    12.000000000000
           H          0.773332727483    -0.842913556928    -1.183445571407     1.007825032070
           H          1.905332727483    -0.456913556928     0.088554428593     1.007825032070
           C          0.871332727483    -0.471913556928    -0.185445571407    12.000000000000
           H          0.495332727483    -2.378913556928     0.728554428593     1.007825032070
           H         -0.936667272517    -1.401913556928     0.507554428593     1.007825032070
           H          0.196332727483    -1.015913556928     1.780554428593     1.007825032070
           C          0.097332727483    -1.386913556928     0.781554428593    12.000000000000

  Nuclear repulsion =  134.726867068292563
  Reference energy  = -157.289675790414947

  ==> Basis Set <==

  Basis Set: 6-31G(D)
    Number of shells: 44
    Number of basis function: 80
    Number of Cartesian functions: 80
    Spherical Harmonics?: false
    Max angular momentum: 2

  ==> CGRSolver (by Rob Parrish) <==

   Number of roots    =         1
   Preconditioning    =    JACOBI
   Convergence cutoff =     1E-06
   Maximum iterations =       100

  ==> CPHFRHamiltonian (by Rob Parrish) <== 

  ==> DFJK: Density-Fitted J/K Matrices <==

    J tasked:                  Yes
    K tasked:                  Yes
    wK tasked:                  No
    OpenMP threads:              1
    Integrals threads:           1
    Memory (MB):               715
    Algorithm:                Core
    Integral Cache:           NONE
    Schwarz Cutoff:          1E-12
    Fitting Condition:       1E-12

   => Auxiliary Basis Set <=

  Basis Set: 
    Number of shells: 186
    Number of basis function: 574
    Number of Cartesian functions: 574
    Spherical Harmonics?: false
    Max angular momentum: 3

  ==> CPHF Iterations <==

  => Iterations <=

             Iter  Converged  Remaining    Residual
  CGR           1          0          1   7.508E-02
  CGR           2          0          1   8.559E-03
  CGR           3          0          1   2.299E-03
  CGR           4          0          1   4.339E-04
  CGR           5          0          1   7.833E-05
  CGR           6          0          1   1.455E-05
  CGR           7          0          1   2.053E-06
  CGR           8          1          0   4.643E-07

    CGRSolver converged.

  ==> DFCorrGrad: Density-Fitted Correlated Gradients <==

    OpenMP threads:              1
    Integrals threads:           1
    Memory (MB):               715
    Schwarz Cutoff:          0E+00
    Fitting Condition:       1E-12

   => Auxiliary Basis Set <=

  Basis Set: 
    Number of shells: 186
    Number of basis function: 510
    Number of Cartesian functions: 574
    Spherical Harmonics?: true
    Max angular momentum: 3

	-----------------------------------------------------------
	 ==================> DF-MP2 Energies <==================== 
	-----------------------------------------------------------
	 Reference Energy          =    -157.2896757904149467 [Eh]
	 Singles Energy            =      -0.0000000000000000 [Eh]
	 Same-Spin Energy          =      -0.1250566190944387 [Eh]
	 Opposite-Spin Energy      =      -0.4208604994791177 [Eh]
	 Correlation Energy        =      -0.5459171185735565 [Eh]
	 Total Energy              =    -157.8355929089885024 [Eh]
	-----------------------------------------------------------
	 ================> DF-SCS-MP2 Energies <================== 
	-----------------------------------------------------------
	 SCS Same-Spin Scale       =       0.3333333333333333 [-]
	 SCS Opposite-Spin Scale   =       1.2000000000000000 [-]
	 SCS Same-Spin Energy      =      -0.0416855396981462 [Eh]
	 SCS Opposite-Spin Energy  =      -0.5050325993749413 [Eh]
	 SCS Correlation Energy    =      -0.5467181390730875 [Eh]
	 SCS Total Energy          =    -157.8363939294880254 [Eh]
	-----------------------------------------------------------


  -Total Gradient:
     Atom            X                  Y                   Z
    ------   -----------------  -----------------  -----------------
       1        0.012082180208     0.004195230388    -0.006660604791
       2        0.009634033950    -0.013656480257     0.000645691271
       3        0.004181179217     0.005862360160     0.015965180844
       4       -0.026219535072    -0.007921604775    -0.009714879787
       5       -0.009311096141    -0.012869346082     0.008389246214
       6       -0.003799421900    -0.007990907140    -0.015919672116
       7        0.016879355874     0.028425196115     0.014836097609
       8       -0.001100487928     0.006037421811     0.017597596622
       9       -0.018186540241     0.001567143405    -0.001710490703
      10        0.023749277240    -0.012023744896    -0.025029447372
      11       -0.003542923136     0.016605824474    -0.002268054774
      12        0.012942233665     0.006197522294     0.000307188946
      13        0.000014162462    -0.003856856643    -0.016367722719
      14       -0.017322418197    -0.010571758855     0.019929870757


			-----------------------------------------
			 OPTKING 2.0: for geometry optimizations 
			  - R.A. King,  Bethel University        
			-----------------------------------------

	Previous internal coordinate definitions found.
	---Fragment 1 Geometry and Gradient---
	 H          -3.2648179938        0.5670811936        0.3147422563
	 H          -2.9983666091        3.6435553379       -0.8568879461
	 H          -2.4352282215        1.0659688927       -2.8411003857
	 C          -2.2481453343        1.7670572880       -0.9551537050
	 H           1.5823295370        3.0067176312       -1.4804975700
	 H           0.7546294908        2.5097196582        1.6772347981
	 C           0.5656568776        1.8067415368       -0.2087118825
	 H           1.4613870645       -1.5928757763       -2.2363880231
	 H           3.6005570470       -0.8634414890        0.1673436179
	 C           1.6465802256       -0.8917873810       -0.3504413425
	 H           0.9360431996       -4.4954951164        1.3767683429
	 H          -1.7700446227       -2.6492326846        0.9591388676
	 H           0.3710150859       -1.9197983973        3.3647602347
	 C           0.1839321987       -2.6208867926        1.4769238280
	             0.0120821802        0.0041952304       -0.0066606048
	             0.0096340339       -0.0136564803        0.0006456913
	             0.0041811792        0.0058623602        0.0159651808
	            -0.0262195351       -0.0079216048       -0.0097148798
	            -0.0093110961       -0.0128693461        0.0083892462
	            -0.0037994219       -0.0079909071       -0.0159196721
	             0.0168793559        0.0284251961        0.0148360976
	            -0.0011004879        0.0060374218        0.0175975966
	            -0.0181865402        0.0015671434       -0.0017104907
	             0.0237492772       -0.0120237449       -0.0250294474
	            -0.0035429231        0.0166058245       -0.0022680548
	             0.0129422337        0.0061975223        0.0003071889
	             0.0000141625       -0.0038568566       -0.0163677227
	            -0.0173224182       -0.0105717589        0.0199298708

	Previous optimization step data not found.  Starting new optimization.

	---Fragment 1 Intrafragment Coordinates---
	 - Coordinate -           - BOHR/RAD -       - ANG/DEG -
	 R(1,4)           =         2.021436	       1.069698
	 R(2,4)           =         2.023298	       1.070683
	 R(3,4)           =         2.020723	       1.069320
	 R(4,7)           =         2.911397	       1.540645
	 R(5,7)           =         2.022623	       1.070326
	 R(6,7)           =         2.021555	       1.069761
	 R(7,10)          =         2.910419	       1.540128
	 R(8,10)          =         2.020549	       1.069228
	 R(9,10)          =         2.021616	       1.069793
	 R(10,14)         =         2.910049	       1.539932
	 R(11,14)         =         2.022340	       1.070176
	 R(12,14)         =         2.021616	       1.069793
	 R(13,14)         =         2.022486	       1.070254
	 B(1,4,2)         =         1.910870	     109.484805
	 B(1,4,3)         =         1.911121	     109.499161
	 B(1,4,7)         =         1.910399	     109.457783
	 B(2,4,3)         =         1.910042	     109.437340
	 B(2,4,7)         =         1.910564	     109.467262
	 B(3,4,7)         =         1.910803	     109.480971
	 B(4,7,5)         =         1.909937	     109.431343
	 B(4,7,6)         =         1.911630	     109.528316
	 B(4,7,10)        =         1.911154	     109.501062
	 B(5,7,6)         =         1.910605	     109.469614
	 B(5,7,10)        =         1.910047	     109.437654
	 B(6,7,10)        =         1.910425	     109.459295
	 B(7,10,8)        =         1.910418	     109.458897
	 B(7,10,9)        =         1.910808	     109.481258
	 B(7,10,14)       =         1.910992	     109.491802
	 B(8,10,9)        =         1.909766	     109.421538
	 B(8,10,14)       =         1.911215	     109.504546
	 B(9,10,14)       =         1.910599	     109.469263
	 B(10,14,11)      =         1.910018	     109.435980
	 B(10,14,12)      =         1.910599	     109.469263
	 B(10,14,13)      =         1.911000	     109.492218
	 B(11,14,12)      =         1.911104	     109.498172
	 B(11,14,13)      =         1.910439	     109.460096
	 B(12,14,13)      =         1.910640	     109.471594
	 D(1,4,7,5)       =         3.140997	     179.965873
	 D(1,4,7,6)       =        -1.047644	     -60.025575
	 D(1,4,7,10)      =         1.047427	      60.013132
	 D(2,4,7,5)       =        -1.047689	     -60.028143
	 D(2,4,7,6)       =         1.046856	      59.980409
	 D(2,4,7,10)      =        -3.141259	    -179.980883
	 D(3,4,7,5)       =         1.046044	      59.933911
	 D(3,4,7,6)       =         3.140588	     179.942463
	 D(3,4,7,10)      =        -1.047526	     -60.018830
	 D(4,7,10,8)      =         1.047939	      60.042468
	 D(4,7,10,9)      =         3.141248	     179.980229
	 D(4,7,10,14)     =        -1.047257	     -60.003409
	 D(5,7,10,8)      =        -1.045564	     -59.906408
	 D(5,7,10,9)      =         1.047745	      60.031353
	 D(5,7,10,14)     =        -3.140760	    -179.952285
	 D(6,7,10,8)      =        -3.139439	    -179.876606
	 D(6,7,10,9)      =        -1.046130	     -59.938846
	 D(6,7,10,14)     =         1.048550	      60.077516
	 D(7,10,14,11)    =         3.141358	     179.986527
	 D(7,10,14,12)    =         1.046784	      59.976297
	 D(7,10,14,13)    =        -1.047823	     -60.035823
	 D(8,10,14,11)    =         1.046649	      59.968584
	 D(8,10,14,12)    =        -1.047924	     -60.041646
	 D(8,10,14,13)    =         3.140654	     179.946234
	 D(9,10,14,11)    =        -1.047019	     -59.989770
	 D(9,10,14,12)    =         3.141593	     180.000000
	 D(9,10,14,13)    =         1.046986	      59.987880

	Current energy   :      -157.8355929090

	Generating empirical Hessian (Schlegel '84) for each fragment.
	Adding user-defined constraint: Fragment 1; Coordinate 49:
		Value =    -1.047257; Fixed value    =    -1.047200
		Force =     0.000029; Force constant =     0.500000
	Removing off-diagonal coupling between coordinate 49 and others.
	Taking RFO optimization step.
	Going to follow RFO solution 1.
	Using RFO vector 1.

	Determining step-restricting scale parameter for RS-RFO.
	Maximum step size allowed    0.10000

	 Iter      |step|        alpha        rfo_root  
	------------------------------------------------
	    0     0.32762       1.00000           1
	    1     0.23941       3.68952           1
	    2     0.17210      12.44374           1
	    3     0.12958      29.69957           1
	    4     0.10799      49.06867           1
	    5     0.10086      58.73339           1
	    6     0.10001      60.03714           1
	    7     0.10000      60.05565           1
	------------------------------------------------
	Norm of target step-size    0.10000
	Projected energy change by RFO approximation:        -0.0067440325

	Back-transformation to cartesian coordinates...
	Could not converge backtransformation.
	Using first guess instead.

	--- Internal Coordinate Step in ANG or DEG, aJ/ANG or AJ/DEG ---
	 ---------------------------------------------------------------------------
	   Coordinate                Previous        Force       Change         New 
	   ----------                --------       ------       ------       ------
	    1 R(1,4)          =      1.069698     0.105055     0.009580     1.079278
	    2 R(2,4)          =      1.070683     0.133521     0.011481     1.082164
	    3 R(3,4)          =      1.069320     0.142706     0.011838     1.081158
	    4 R(4,7)          =      1.540645    -0.003362     0.000411     1.541056
	    5 R(5,7)          =      1.070326     0.144922     0.012143     1.082469
	    6 R(6,7)          =      1.069761     0.148179     0.012260     1.082021
	    7 R(7,10)         =      1.540128     0.037737     0.003733     1.543861
	    8 R(8,10)         =      1.069228     0.151751     0.012543     1.081771
	    9 R(9,10)         =      1.069793     0.148249     0.012409     1.082202
	   10 R(10,14)        =      1.539932    -0.000038     0.000727     1.540659
	   11 R(11,14)        =      1.070176     0.136747     0.011736     1.081912
	   12 R(12,14)        =      1.069793     0.104424     0.009534     1.079327
	   13 R(13,14)        =      1.070254     0.136875     0.011374     1.081628
	   14 B(1,4,2)        =    109.484805    -0.000450    -0.591988   108.892816
	   15 B(1,4,3)        =    109.499161    -0.000281    -0.390100   109.109061
	   16 B(1,4,7)        =    109.457783     0.000577     0.777791   110.235573
	   17 B(2,4,3)        =    109.437340    -0.000257    -0.338572   109.098768
	   18 B(2,4,7)        =    109.467262     0.000282     0.383253   109.850515
	   19 B(3,4,7)        =    109.480971     0.000128     0.149226   109.630197
	   20 B(4,7,5)        =    109.431343    -0.000568    -0.647189   108.784153
	   21 B(4,7,6)        =    109.528316    -0.000407    -0.495301   109.033016
	   22 B(4,7,10)       =    109.501062     0.001799     2.208340   111.709402
	   23 B(5,7,6)        =    109.469614     0.000153     0.046035   109.515649
	   24 B(5,7,10)       =    109.437654    -0.000497    -0.576909   108.860745
	   25 B(6,7,10)       =    109.459295    -0.000481    -0.545201   108.914094
	   26 B(7,10,8)       =    109.458897    -0.000484    -0.549444   108.909453
	   27 B(7,10,9)       =    109.481258    -0.000504    -0.586985   108.894273
	   28 B(7,10,14)      =    109.491802     0.001809     2.219390   111.711192
	   29 B(8,10,9)       =    109.421538     0.000158     0.053125   109.474663
	   30 B(8,10,14)      =    109.504546    -0.000407    -0.494114   109.010432
	   31 B(9,10,14)      =    109.469263    -0.000573    -0.653392   108.815871
	   32 B(10,14,11)     =    109.435980     0.000293     0.397582   109.833562
	   33 B(10,14,12)     =    109.469263     0.000575     0.775105   110.244368
	   34 B(10,14,13)     =    109.492218     0.000128     0.149565   109.641784
	   35 B(11,14,12)     =    109.498172    -0.000453    -0.596937   108.901235
	   36 B(11,14,13)     =    109.460096    -0.000263    -0.346639   109.113457
	   37 B(12,14,13)     =    109.471594    -0.000280    -0.389089   109.082505
	   38 D(1,4,7,5)      =    179.965873     0.000063     0.416718   180.382590
	   39 D(1,4,7,6)      =    -60.025575    -0.000031    -0.212082   -60.237657
	   40 D(1,4,7,10)     =     60.013132     0.000030     0.174898    60.188030
	   41 D(2,4,7,5)      =    -60.028143     0.000057     0.409595   -59.618548
	   42 D(2,4,7,6)      =     59.980409    -0.000037    -0.219204    59.761205
	   43 D(2,4,7,10)     =   -179.980883     0.000024     0.167775  -179.813108
	   44 D(3,4,7,5)      =     59.933911     0.000042     0.321915    60.255826
	   45 D(3,4,7,6)      =    179.942463    -0.000052    -0.306884   179.635579
	   46 D(3,4,7,10)     =    -60.018830     0.000009     0.080095   -59.938734
	   47 D(4,7,10,8)     =     60.042468     0.000030     0.250095    60.292563
	   48 D(4,7,10,9)     =    179.980229    -0.000065    -0.365134   179.615095
	   49 D(4,7,10,14)    =    -60.003409    -0.000042    -0.169100   -60.172509
	   50 D(5,7,10,8)     =    -59.906408     0.000007     0.049317   -59.857090
	   51 D(5,7,10,9)     =     60.031353    -0.000088    -0.565911    59.465441
	   52 D(5,7,10,14)    =   -179.952285    -0.000065    -0.369877  -180.322162
	   53 D(6,7,10,8)     =   -179.876606     0.000101     0.664378  -179.212228
	   54 D(6,7,10,9)     =    -59.938846     0.000006     0.049149   -59.889697
	   55 D(6,7,10,14)    =     60.077516     0.000029     0.245183    60.322700
	   56 D(7,10,14,11)   =    179.986527     0.000025     0.171324   180.157851
	   57 D(7,10,14,12)   =     59.976297     0.000030     0.177484    60.153781
	   58 D(7,10,14,13)   =    -60.035823     0.000010     0.082824   -59.952999
	   59 D(8,10,14,11)   =     59.968584    -0.000037    -0.216760    59.751824
	   60 D(8,10,14,12)   =    -60.041646    -0.000031    -0.210600   -60.252246
	   61 D(8,10,14,13)   =    179.946234    -0.000051    -0.305260   179.640974
	   62 D(9,10,14,11)   =    -59.989770     0.000057     0.405955   -59.583815
	   63 D(9,10,14,12)   =    180.000000     0.000062     0.412115   180.412115
	   64 D(9,10,14,13)   =     59.987880     0.000042     0.317455    60.305335
	 ---------------------------------------------------------------------------
	 Forces used to impose fixed constraints are not included.
	  Forces zeroed: 49 

  ==> Convergence Check <==

  Measures of convergence in internal coordinates in au.
  Criteria marked as inactive (o), active & met (*), and active & unmet ( ).
  --------------------------------------------------------------------------------------------- ~
   Step     Total Energy     Delta E     MAX Force     RMS Force      MAX Disp      RMS Disp    ~
  --------------------------------------------------------------------------------------------- ~
    Convergence Criteria    1.00e-06 *    3.00e-04 *             o    1.20e-03 *             o  ~
  --------------------------------------------------------------------------------------------- ~
      1    -157.83559291   -1.58e+02      2.38e-02      8.56e-03 o    3.87e-02      1.26e-02 o  ~
  ---------------------------------------------------------------------------------------------

	Writing optimization data to binary file.
	Structure for next step:
	Cartesian Geometry (in Angstrom)
	    H    -1.7817286926   0.3656464631   0.1556327174
	    H    -1.5777186709   1.9935078985  -0.4774015334
	    H    -1.3171720071   0.6010181277  -1.5255932770
	    C    -1.2039333855   0.9787966271  -0.5189338540
	    H     0.8400152241   1.5791053364  -0.8066777895
	    H     0.3874265676   1.3383889233   0.8851487525
	    C     0.2845093286   0.9527043403  -0.1205474603
	    H     0.7736044980  -0.8577579997  -1.1784799325
	    H     1.9085958654  -0.4422015247   0.1103545099
	    C     0.8638761691  -0.4774762518  -0.1697847749
	    H     0.5544293015  -2.4165156181   0.7355467283
	    H    -0.9218365587  -1.4838540915   0.5286427027
	    H     0.2123970347  -1.0582686392   1.8055886133
	    C     0.1231935106  -1.4258833883   0.7922665978
			--------------------------
			 OPTKING Finished Execution 
			--------------------------

    Structure for next step:
    Molecular point group: c1
    Full point group: C1

    Geometry (in Angstrom), charge = 0, multiplicity = 1:

    H           -1.779706342723     0.366442216989     0.155106032132
    H           -1.575696320957     1.994303652409    -0.477928218742
    H           -1.315149657189     0.601813881578    -1.526119962302
    C           -1.201911035526     0.979592381009    -0.519460539296
    H            0.842037573993     1.579901090299    -0.807204474770
    H            0.389448917492     1.339184677218     0.884622067199
    C            0.286531678567     0.953500094180    -0.121074145640
    H            0.775626847958    -0.856962245735    -1.179006617851
    H            1.910618215365    -0.441405770727     0.109827824621
    C            0.865898519026    -0.476680497862    -0.170311460196
    H            0.556451651425    -2.415719864177     0.735020042953
    H           -0.919814208796    -1.483058337608     0.528116017356
    H            0.214419384604    -1.057472885240     1.805061928019
    C            0.125215860480    -1.425087634389     0.791739912511

gradient() will perform analytic gradient computation.
    SCF Algorithm Type (re)set to DF.

*** tstart() called on lski1497
*** at Thu Feb 16 16:34:48 2017


         ---------------------------------------------------------
                                   SCF
            by Justin Turney, Rob Parrish, and Andy Simmonett
                              RHF Reference
                        1 Threads,   1000 MiB Core
         ---------------------------------------------------------

  ==> Geometry <==

    Molecular point group: c1
    Full point group: C1

    Geometry (in Angstrom), charge = 0, multiplicity = 1:

       Center              X                  Y                   Z               Mass       
    ------------   -----------------  -----------------  -----------------  -----------------
           H         -1.779706342723     0.366442216989     0.155106032132     1.007825032070
           H         -1.575696320957     1.994303652409    -0.477928218742     1.007825032070
           H         -1.315149657189     0.601813881578    -1.526119962302     1.007825032070
           C         -1.201911035526     0.979592381009    -0.519460539296    12.000000000000
           H          0.842037573993     1.579901090299    -0.807204474770     1.007825032070
           H          0.389448917492     1.339184677218     0.884622067199     1.007825032070
           C          0.286531678567     0.953500094180    -0.121074145640    12.000000000000
           H          0.775626847958    -0.856962245735    -1.179006617851     1.007825032070
           H          1.910618215365    -0.441405770727     0.109827824621     1.007825032070
           C          0.865898519026    -0.476680497862    -0.170311460196    12.000000000000
           H          0.556451651425    -2.415719864177     0.735020042953     1.007825032070
           H         -0.919814208796    -1.483058337608     0.528116017356     1.007825032070
           H          0.214419384604    -1.057472885240     1.805061928019     1.007825032070
           C          0.125215860480    -1.425087634389     0.791739912511    12.000000000000

  Running in c1 symmetry.

  Rotational constants: A =      0.42540  B =      0.16733  C =      0.13934 [cm^-1]
  Rotational constants: A =  12753.14861  B =   5016.39219  C =   4177.37981 [MHz]
  Nuclear repulsion =  133.362831635649229

  Charge       = 0
  Multiplicity = 1
  Electrons    = 34
  Nalpha       = 17
  Nbeta        = 17

  ==> Algorithm <==

  SCF Algorithm Type is DF.
  DIIS enabled.
  MOM disabled.
  Fractional occupation disabled.
  Guess Type is READ.
  Energy threshold   = 1.00e-10
  Density threshold  = 1.00e-10
  Integral threshold = 0.00e+00

  ==> Primary Basis <==

  Basis Set: 6-31G(D)
    Number of shells: 44
    Number of basis function: 80
    Number of Cartesian functions: 80
    Spherical Harmonics?: false
    Max angular momentum: 2

  ==> Pre-Iterations <==

   -------------------------------------------------------
    Irrep   Nso     Nmo     Nalpha   Nbeta   Ndocc  Nsocc
   -------------------------------------------------------
     A         80      80       0       0       0       0
   -------------------------------------------------------
    Total      80      80      17      17      17       0
   -------------------------------------------------------

  ==> Integral Setup <==

  ==> DFJK: Density-Fitted J/K Matrices <==

    J tasked:                  Yes
    K tasked:                  Yes
    wK tasked:                  No
    OpenMP threads:              1
    Integrals threads:           1
    Memory (MB):               715
    Algorithm:                Core
    Integral Cache:           NONE
    Schwarz Cutoff:          1E-12
    Fitting Condition:       1E-12

   => Auxiliary Basis Set <=

  Basis Set: 
    Number of shells: 186
    Number of basis function: 574
    Number of Cartesian functions: 574
    Spherical Harmonics?: false
    Max angular momentum: 3

  Minimum eigenvalue in the overlap matrix is 5.3632668963E-03.
  Using Symmetric Orthogonalization.
  SCF Guess was Projection but file not found.
  Switching over to SAD guess.

  SCF Guess: Superposition of Atomic Densities via on-the-fly atomic UHF.

  ==> Iterations <==

                           Total Energy        Delta E     RMS |[F,P]|

   @DF-RHF iter   0:  -158.73499520427646   -1.58735e+02   4.54708e-02 
   @DF-RHF iter   1:  -157.18392176554681    1.55107e+00   4.58525e-03 
   @DF-RHF iter   2:  -157.28162397906129   -9.77022e-02   1.52242e-03 DIIS
   @DF-RHF iter   3:  -157.29232437963509   -1.07004e-02   5.99641e-04 DIIS
   @DF-RHF iter   4:  -157.29414558785726   -1.82121e-03   8.61422e-05 DIIS
   @DF-RHF iter   5:  -157.29420240741575   -5.68196e-05   1.79904e-05 DIIS
   @DF-RHF iter   6:  -157.29420472789258   -2.32048e-06   4.75461e-06 DIIS
   @DF-RHF iter   7:  -157.29420484090309   -1.13011e-07   1.11131e-06 DIIS
   @DF-RHF iter   8:  -157.29420484939311   -8.49002e-09   2.45504e-07 DIIS
   @DF-RHF iter   9:  -157.29420484987855   -4.85443e-10   6.74984e-08 DIIS
   @DF-RHF iter  10:  -157.29420484991300   -3.44471e-11   1.90814e-08 DIIS
   @DF-RHF iter  11:  -157.29420484991522   -2.21689e-12   4.21369e-09 DIIS
   @DF-RHF iter  12:  -157.29420484991556   -3.41061e-13   9.53767e-10 DIIS
   @DF-RHF iter  13:  -157.29420484991550    5.68434e-14   2.15260e-10 DIIS
   @DF-RHF iter  14:  -157.29420484991539    1.13687e-13   7.10472e-11 DIIS

  ==> Post-Iterations <==

    Orbital Energies (a.u.)
    -----------------------

    Doubly Occupied:                                                      

       1A    -11.212718     2A    -11.212146     3A    -11.204978  
       4A    -11.204969     5A     -1.069255     6A     -0.973325  
       7A     -0.874272     8A     -0.777026     9A     -0.629173  
      10A     -0.622724    11A     -0.576061    12A     -0.531995  
      13A     -0.531686    14A     -0.504562    15A     -0.467401  
      16A     -0.455769    17A     -0.452654  

    Virtual:                                                              

      18A      0.231222    19A      0.279281    20A      0.285502  
      21A      0.299744    22A      0.317338    23A      0.317942  
      24A      0.339885    25A      0.348137    26A      0.359760  
      27A      0.383052    28A      0.407000    29A      0.409367  
      30A      0.451634    31A      0.711962    32A      0.724439  
      33A      0.730909    34A      0.743617    35A      0.766661  
      36A      0.839886    37A      0.868549    38A      0.922930  
      39A      0.950530    40A      0.997823    41A      1.101087  
      42A      1.110900    43A      1.162630    44A      1.165910  
      45A      1.183635    46A      1.193378    47A      1.201706  
      48A      1.227300    49A      1.237661    50A      1.254811  
      51A      1.260429    52A      1.287827    53A      1.303818  
      54A      1.550317    55A      1.707462    56A      1.716419  
      57A      1.824527    58A      1.862540    59A      1.968602  
      60A      2.032432    61A      2.172143    62A      2.255292  
      63A      2.302472    64A      2.306804    65A      2.347023  
      66A      2.443668    67A      2.465798    68A      2.640077  
      69A      2.651775    70A      2.652298    71A      2.684213  
      72A      2.743411    73A      2.784715    74A      2.938108  
      75A      2.951258    76A      3.077140    77A      4.564358  
      78A      4.687198    79A      4.817701    80A      4.937059  

    Final Occupation by Irrep:
              A 
    DOCC [    17 ]

  Energy converged.

  @DF-RHF Final Energy:  -157.29420484991539

   => Energetics <=

    Nuclear Repulsion Energy =            133.3628316356492292
    One-Electron Energy =                -474.7126433832956991
    Two-Electron Energy =                 184.0556068977311668
    DFT Exchange-Correlation Energy =       0.0000000000000000
    Empirical Dispersion Energy =           0.0000000000000000
    PCM Polarization Energy =               0.0000000000000000
    EFP Energy =                            0.0000000000000000
    Total Energy =                       -157.2942048499153032


  Saving occupied orbitals to File 180.

*** tstop() called on lski1497 at Thu Feb 16 16:34:54 2017
Module time:
	user time   =       4.92 seconds =       0.08 minutes
	system time =       0.13 seconds =       0.00 minutes
	total time  =          6 seconds =       0.10 minutes
Total time:
	user time   =      28.77 seconds =       0.48 minutes
	system time =       0.83 seconds =       0.01 minutes
	total time  =         33 seconds =       0.55 minutes


Properties will be evaluated at   0.000000,   0.000000,   0.000000 Bohr

Properties computed using the SCF density matrix

  Nuclear Dipole Moment: (a.u.)
     X:    -0.8454      Y:    -0.3497      Z:     0.2133

  Electronic Dipole Moment: (a.u.)
     X:     0.8724      Y:     0.3606      Z:    -0.2204

  Dipole Moment: (a.u.)
     X:     0.0270      Y:     0.0109      Z:    -0.0071     Total:     0.0300

  Dipole Moment: (Debye)
     X:     0.0687      Y:     0.0278      Z:    -0.0181     Total:     0.0763


  //>>>>>>>>>>>>>>>>>>>>>>>>>>>>>>>>>>>//
  //               DFMP2               //
  //<<<<<<<<<<<<<<<<<<<<<<<<<<<<<<<<<<<//


*** tstart() called on lski1497
*** at Thu Feb 16 16:34:54 2017


*** tstop() called on lski1497 at Thu Feb 16 16:34:54 2017
Module time:
	user time   =       0.52 seconds =       0.01 minutes
	system time =       0.00 seconds =       0.00 minutes
	total time  =          0 seconds =       0.00 minutes
Total time:
	user time   =      29.30 seconds =       0.49 minutes
	system time =       0.83 seconds =       0.01 minutes
	total time  =         33 seconds =       0.55 minutes
	 --------------------------------------------------------
	                          DF-MP2                         
	      2nd-Order Density-Fitted Moller-Plesset Theory     
	              RMP2 Wavefunction,   1 Threads             
	                                                         
	        Rob Parrish, Justin Turney, Andy Simmonett,      
	           Ed Hohenstein, and C. David Sherrill          
	 --------------------------------------------------------

   => Auxiliary Basis Set <=

  Basis Set: 
    Number of shells: 132
    Number of basis function: 364
    Number of Cartesian functions: 414
    Spherical Harmonics?: true
    Max angular momentum: 3

	 --------------------------------------------------------
	                 NBF =    80, NAUX =   364
	 --------------------------------------------------------
	   CLASS    FOCC     OCC    AOCC    AVIR     VIR    FVIR
	   PAIRS       0      17      17      63      63       0
	 --------------------------------------------------------

DGAS Warning! /src/lib/libfock/apps.cc:80 is not currently checking restricted

         ------------------------------------------------------------
                                     CPHF                           
                                  Rob Parrish                       
         ------------------------------------------------------------

  ==> Geometry <==

    Molecular point group: c1
    Full point group: C1

    Geometry (in Angstrom), charge = 0, multiplicity = 1:

       Center              X                  Y                   Z               Mass       
    ------------   -----------------  -----------------  -----------------  -----------------
           H         -1.779706342723     0.366442216989     0.155106032132     1.007825032070
           H         -1.575696320957     1.994303652409    -0.477928218742     1.007825032070
           H         -1.315149657189     0.601813881578    -1.526119962302     1.007825032070
           C         -1.201911035526     0.979592381009    -0.519460539296    12.000000000000
           H          0.842037573993     1.579901090299    -0.807204474770     1.007825032070
           H          0.389448917492     1.339184677218     0.884622067199     1.007825032070
           C          0.286531678567     0.953500094180    -0.121074145640    12.000000000000
           H          0.775626847958    -0.856962245735    -1.179006617851     1.007825032070
           H          1.910618215365    -0.441405770727     0.109827824621     1.007825032070
           C          0.865898519026    -0.476680497862    -0.170311460196    12.000000000000
           H          0.556451651425    -2.415719864177     0.735020042953     1.007825032070
           H         -0.919814208796    -1.483058337608     0.528116017356     1.007825032070
           H          0.214419384604    -1.057472885240     1.805061928019     1.007825032070
           C          0.125215860480    -1.425087634389     0.791739912511    12.000000000000

  Nuclear repulsion =  133.362831635649229
  Reference energy  = -157.294204849915388

  ==> Basis Set <==

  Basis Set: 6-31G(D)
    Number of shells: 44
    Number of basis function: 80
    Number of Cartesian functions: 80
    Spherical Harmonics?: false
    Max angular momentum: 2

  ==> CGRSolver (by Rob Parrish) <==

   Number of roots    =         1
   Preconditioning    =    JACOBI
   Convergence cutoff =     1E-06
   Maximum iterations =       100

  ==> CPHFRHamiltonian (by Rob Parrish) <== 

  ==> DFJK: Density-Fitted J/K Matrices <==

    J tasked:                  Yes
    K tasked:                  Yes
    wK tasked:                  No
    OpenMP threads:              1
    Integrals threads:           1
    Memory (MB):               715
    Algorithm:                Core
    Integral Cache:           NONE
    Schwarz Cutoff:          1E-12
    Fitting Condition:       1E-12

   => Auxiliary Basis Set <=

  Basis Set: 
    Number of shells: 186
    Number of basis function: 574
    Number of Cartesian functions: 574
    Spherical Harmonics?: false
    Max angular momentum: 3

  ==> CPHF Iterations <==

  => Iterations <=

             Iter  Converged  Remaining    Residual
  CGR           1          0          1   7.479E-02
  CGR           2          0          1   8.592E-03
  CGR           3          0          1   2.322E-03
  CGR           4          0          1   4.340E-04
  CGR           5          0          1   7.741E-05
  CGR           6          0          1   1.436E-05
  CGR           7          0          1   1.936E-06
  CGR           8          1          0   4.363E-07

    CGRSolver converged.

  ==> DFCorrGrad: Density-Fitted Correlated Gradients <==

    OpenMP threads:              1
    Integrals threads:           1
    Memory (MB):               715
    Schwarz Cutoff:          0E+00
    Fitting Condition:       1E-12

   => Auxiliary Basis Set <=

  Basis Set: 
    Number of shells: 186
    Number of basis function: 510
    Number of Cartesian functions: 574
    Spherical Harmonics?: true
    Max angular momentum: 3

	-----------------------------------------------------------
	 ==================> DF-MP2 Energies <==================== 
	-----------------------------------------------------------
	 Reference Energy          =    -157.2942048499153884 [Eh]
	 Singles Energy            =      -0.0000000000000000 [Eh]
	 Same-Spin Energy          =      -0.1246947615761139 [Eh]
	 Opposite-Spin Energy      =      -0.4216708892043345 [Eh]
	 Correlation Energy        =      -0.5463656507804484 [Eh]
	 Total Energy              =    -157.8405705006958328 [Eh]
	-----------------------------------------------------------
	 ================> DF-SCS-MP2 Energies <================== 
	-----------------------------------------------------------
	 SCS Same-Spin Scale       =       0.3333333333333333 [-]
	 SCS Opposite-Spin Scale   =       1.2000000000000000 [-]
	 SCS Same-Spin Energy      =      -0.0415649205253713 [Eh]
	 SCS Opposite-Spin Energy  =      -0.5060050670452013 [Eh]
	 SCS Correlation Energy    =      -0.5475699875705726 [Eh]
	 SCS Total Energy          =    -157.8417748374859571 [Eh]
	-----------------------------------------------------------


  -Total Gradient:
     Atom            X                  Y                   Z
    ------   -----------------  -----------------  -----------------
       1        0.007246340552     0.002400497862    -0.003620661888
       2        0.004928791816    -0.006289551640     0.000837098426
       3        0.003253437516     0.002815384945     0.007958934036
       4       -0.019308647067    -0.003189299197    -0.005533156891
       5       -0.005648266323    -0.007373364889     0.002227050187
       6       -0.003405759901    -0.005711346476    -0.007438892698
       7        0.012299121995     0.020308828631     0.008117169375
       8       -0.002839907132     0.003146846685     0.009226851009
       9       -0.009504862784     0.001114574355     0.001442975676
      10        0.018053525119    -0.007917303308    -0.015689067802
      11       -0.001549932805     0.007887071126    -0.001738273198
      12        0.007537094562     0.003738069237    -0.000111520877
      13        0.000633754087    -0.001070514112    -0.008640147282
      14       -0.011694689635    -0.009859893220     0.012961641927


			-----------------------------------------
			 OPTKING 2.0: for geometry optimizations 
			  - R.A. King,  Bethel University        
			-----------------------------------------

	Previous internal coordinate definitions found.
	---Fragment 1 Geometry and Gradient---
	 H          -3.3631575847        0.6924754336        0.2931079223
	 H          -2.9776345152        3.7686877289       -0.9031534446
	 H          -2.4852726758        1.1372634192       -2.8839487747
	 C          -2.2712826932        1.8511613220       -0.9816381561
	 H           1.5912204084        2.9855803777       -1.5253953906
	 H           0.7359517968        2.5306922813        1.6716934381
	 C           0.5414664009        1.8018540457       -0.2287969770
	 H           1.4657223240       -1.6194239507       -2.2279996166
	 H           3.6105451715       -0.8341360201        0.2075445103
	 C           1.6363110598       -0.9007955938       -0.3218420171
	 H           1.0515412274       -4.5650489571        1.3889865834
	 H          -1.7381969478       -2.8025740972        0.9979946392
	 H           0.4051939145       -1.9983341461        3.4110726969
	 C           0.2366236838       -2.6930253444        1.4961716031
	             0.0072463406        0.0024004979       -0.0036206619
	             0.0049287918       -0.0062895516        0.0008370984
	             0.0032534375        0.0028153849        0.0079589340
	            -0.0193086471       -0.0031892992       -0.0055331569
	            -0.0056482663       -0.0073733649        0.0022270502
	            -0.0034057599       -0.0057113465       -0.0074388927
	             0.0122991220        0.0203088286        0.0081171694
	            -0.0028399071        0.0031468467        0.0092268510
	            -0.0095048628        0.0011145744        0.0014429757
	             0.0180535251       -0.0079173033       -0.0156890678
	            -0.0015499328        0.0078870711       -0.0017382732
	             0.0075370946        0.0037380692       -0.0001115209
	             0.0006337541       -0.0010705141       -0.0086401473
	            -0.0116946896       -0.0098598932        0.0129616419

	---Fragment 1 Intrafragment Coordinates---
	 - Coordinate -           - BOHR/RAD -       - ANG/DEG -
	 R(1,4)           =         2.039539	       1.079278
	 R(2,4)           =         2.044994	       1.082164
	 R(3,4)           =         2.043093	       1.081158
	 R(4,7)           =         2.912174	       1.541056
	 R(5,7)           =         2.045571	       1.082469
	 R(6,7)           =         2.044723	       1.082021
	 R(7,10)          =         2.917474	       1.543861
	 R(8,10)          =         2.044251	       1.081771
	 R(9,10)          =         2.045066	       1.082202
	 R(10,14)         =         2.911423	       1.540659
	 R(11,14)         =         2.044517	       1.081912
	 R(12,14)         =         2.039632	       1.079327
	 R(13,14)         =         2.043981	       1.081628
	 B(1,4,2)         =         1.900538	     108.892816
	 B(1,4,3)         =         1.904312	     109.109061
	 B(1,4,7)         =         1.923974	     110.235573
	 B(2,4,3)         =         1.904133	     109.098768
	 B(2,4,7)         =         1.917253	     109.850515
	 B(3,4,7)         =         1.913408	     109.630197
	 B(4,7,5)         =         1.898642	     108.784153
	 B(4,7,6)         =         1.902985	     109.033016
	 B(4,7,10)        =         1.949697	     111.709402
	 B(5,7,6)         =         1.911409	     109.515649
	 B(5,7,10)        =         1.899978	     108.860745
	 B(6,7,10)        =         1.900910	     108.914094
	 B(7,10,8)        =         1.900829	     108.909453
	 B(7,10,9)        =         1.900564	     108.894273
	 B(7,10,14)       =         1.949728	     111.711192
	 B(8,10,9)        =         1.910693	     109.474663
	 B(8,10,14)       =         1.902591	     109.010432
	 B(9,10,14)       =         1.899195	     108.815871
	 B(10,14,11)      =         1.916957	     109.833562
	 B(10,14,12)      =         1.924127	     110.244368
	 B(10,14,13)      =         1.913610	     109.641784
	 B(11,14,12)      =         1.900685	     108.901235
	 B(11,14,13)      =         1.904389	     109.113457
	 B(12,14,13)      =         1.903849	     109.082505
	 D(1,4,7,5)       =        -3.134915	    -179.617410
	 D(1,4,7,6)       =        -1.051345	     -60.237657
	 D(1,4,7,10)      =         1.050479	      60.188030
	 D(2,4,7,5)       =        -1.040540	     -59.618548
	 D(2,4,7,6)       =         1.043030	      59.761205
	 D(2,4,7,10)      =        -3.138331	    -179.813108
	 D(3,4,7,5)       =         1.051663	      60.255826
	 D(3,4,7,6)       =         3.135232	     179.635579
	 D(3,4,7,10)      =        -1.046128	     -59.938734
	 D(4,7,10,8)      =         1.052304	      60.292563
	 D(4,7,10,9)      =         3.134875	     179.615095
	 D(4,7,10,14)     =        -1.050208	     -60.172509
	 D(5,7,10,8)      =        -1.044703	     -59.857090
	 D(5,7,10,9)      =         1.037868	      59.465441
	 D(5,7,10,14)     =         3.135970	     179.677838
	 D(6,7,10,8)      =        -3.127843	    -179.212228
	 D(6,7,10,9)      =        -1.045272	     -59.889697
	 D(6,7,10,14)     =         1.052830	      60.322700
	 D(7,10,14,11)    =        -3.138838	    -179.842149
	 D(7,10,14,12)    =         1.049882	      60.153781
	 D(7,10,14,13)    =        -1.046377	     -59.952999
	 D(8,10,14,11)    =         1.042866	      59.751824
	 D(8,10,14,12)    =        -1.051600	     -60.252246
	 D(8,10,14,13)    =         3.135326	     179.640974
	 D(9,10,14,11)    =        -1.039934	     -59.583815
	 D(9,10,14,12)    =        -3.134400	    -179.587885
	 D(9,10,14,13)    =         1.052527	      60.305335

	Current energy   :      -157.8405705007

	Energy change for the previous step:
		Projected    :        -0.0067440325
		Actual       :        -0.0049775917

	Performing BFGS update.
	Previous computed or guess Hessian on step 1.
	Steps to be used in Hessian update: 1
	Adding user-defined constraint: Fragment 1; Coordinate 49:
		Value =    -1.050208; Fixed value    =    -1.047200
		Force =     0.001579; Force constant =     0.525000
	Removing off-diagonal coupling between coordinate 49 and others.
	Taking RFO optimization step.
	Going to follow RFO solution 1.
	Using RFO vector 1.

	Determining step-restricting scale parameter for RS-RFO.
	Maximum step size allowed    0.10000

	 Iter      |step|        alpha        rfo_root  
	------------------------------------------------
	    0     0.18624       1.00000           1
	    1     0.15227       3.98953           1
	    2     0.12230      12.76618           1
	    3     0.10589      23.16293           1
	    4     0.10058      28.12616           1
	    5     0.10001      28.72117           1
	------------------------------------------------
	Norm of target step-size    0.10001
	Projected energy change by RFO approximation:        -0.0032778995

	Back-transformation to cartesian coordinates...
	Could not converge backtransformation.
	Using first guess instead.

	--- Internal Coordinate Step in ANG or DEG, aJ/ANG or AJ/DEG ---
	 ---------------------------------------------------------------------------
	   Coordinate                Previous        Force       Change         New 
	   ----------                --------       ------       ------       ------
	    1 R(1,4)          =      1.079278     0.061841     0.011125     1.090403
	    2 R(2,4)          =      1.082164     0.062349     0.009421     1.091585
	    3 R(3,4)          =      1.081158     0.071965     0.011074     1.092232
	    4 R(4,7)          =      1.541056    -0.031043    -0.008048     1.533008
	    5 R(5,7)          =      1.082469     0.070664     0.010695     1.093164
	    6 R(6,7)          =      1.082021     0.076405     0.011797     1.093818
	    7 R(7,10)         =      1.543861    -0.025232    -0.009245     1.534616
	    8 R(8,10)         =      1.081771     0.078044     0.012022     1.093793
	    9 R(9,10)         =      1.082202     0.072219     0.010914     1.093116
	   10 R(10,14)        =      1.540659    -0.029289    -0.007721     1.532937
	   11 R(11,14)        =      1.081912     0.063836     0.009627     1.091539
	   12 R(12,14)        =      1.079327     0.061553     0.011089     1.090416
	   13 R(13,14)        =      1.081628     0.069255     0.010695     1.092323
	   14 B(1,4,2)        =    108.892816    -0.000267    -0.727496   108.165321
	   15 B(1,4,3)        =    109.109061    -0.000209    -0.693358   108.415703
	   16 B(1,4,7)        =    110.235573     0.000325     0.862522   111.098095
	   17 B(2,4,3)        =    109.098768    -0.000198    -0.641910   108.456858
	   18 B(2,4,7)        =    109.850515     0.000180     0.537894   110.388408
	   19 B(3,4,7)        =    109.630197     0.000159     0.606026   110.236223
	   20 B(4,7,5)        =    108.784153    -0.000160    -0.032876   108.751277
	   21 B(4,7,6)        =    109.033016    -0.000128    -0.012868   109.020148
	   22 B(4,7,10)       =    111.709402     0.000678     1.165000   112.874402
	   23 B(5,7,6)        =    109.515649    -0.000058    -0.768144   108.747505
	   24 B(5,7,10)       =    108.860745    -0.000181    -0.251482   108.609263
	   25 B(6,7,10)       =    108.914094    -0.000159    -0.151905   108.762188
	   26 B(7,10,8)       =    108.909453    -0.000161    -0.156137   108.753316
	   27 B(7,10,9)       =    108.894273    -0.000185    -0.265247   108.629026
	   28 B(7,10,14)      =    111.711192     0.000682     1.172212   112.883404
	   29 B(8,10,9)       =    109.474663    -0.000055    -0.753483   108.721180
	   30 B(8,10,14)      =    109.010432    -0.000128    -0.004748   109.005684
	   31 B(9,10,14)      =    108.815871    -0.000163    -0.045130   108.770740
	   32 B(10,14,11)     =    109.833562     0.000186     0.553045   110.386607
	   33 B(10,14,12)     =    110.244368     0.000322     0.853939   111.098306
	   34 B(10,14,13)     =    109.641784     0.000158     0.603202   110.244985
	   35 B(11,14,12)     =    108.901235    -0.000268    -0.732355   108.168880
	   36 B(11,14,13)     =    109.113457    -0.000201    -0.651303   108.462154
	   37 B(12,14,13)     =    109.082505    -0.000207    -0.683053   108.399452
	   38 D(1,4,7,5)      =   -179.617410     0.000036     0.595968  -179.021442
	   39 D(1,4,7,6)      =    -60.237657    -0.000018    -0.356726   -60.594383
	   40 D(1,4,7,10)     =     60.188030     0.000015     0.194196    60.382226
	   41 D(2,4,7,5)      =    -59.618548     0.000034     0.590059   -59.028488
	   42 D(2,4,7,6)      =     59.761205    -0.000021    -0.362634    59.398570
	   43 D(2,4,7,10)     =   -179.813108     0.000012     0.188288  -179.624820
	   44 D(3,4,7,5)      =     60.255826     0.000026     0.516242    60.772068
	   45 D(3,4,7,6)      =    179.635579    -0.000029    -0.436452   179.199127
	   46 D(3,4,7,10)     =    -59.938734     0.000005     0.114470   -59.824264
	   47 D(4,7,10,8)     =     60.292563     0.000027     0.537510    60.830073
	   48 D(4,7,10,9)     =    179.615095    -0.000035    -0.611001   179.004093
	   49 D(4,7,10,14)    =    -60.172509    -0.000011    -0.102015   -60.274524
	   50 D(5,7,10,8)     =    -59.857090     0.000002     0.009762   -59.847329
	   51 D(5,7,10,9)     =     59.465441    -0.000059    -1.138749    58.326692
	   52 D(5,7,10,14)    =    179.677838    -0.000036    -0.629763   179.048075
	   53 D(6,7,10,8)     =   -179.212228     0.000064     1.165535  -178.046694
	   54 D(6,7,10,9)     =    -59.889697     0.000002     0.017023   -59.872673
	   55 D(6,7,10,14)    =     60.322700     0.000026     0.526010    60.848710
	   56 D(7,10,14,11)   =   -179.842149     0.000013     0.196957  -179.645193
	   57 D(7,10,14,12)   =     60.153781     0.000015     0.204659    60.358440
	   58 D(7,10,14,13)   =    -59.952999     0.000005     0.119401   -59.833599
	   59 D(8,10,14,11)   =     59.751824    -0.000021    -0.358165    59.393659
	   60 D(8,10,14,12)   =    -60.252246    -0.000018    -0.350463   -60.602709
	   61 D(8,10,14,13)   =    179.640974    -0.000029    -0.435721   179.205253
	   62 D(9,10,14,11)   =    -59.583815     0.000033     0.579158   -59.004657
	   63 D(9,10,14,12)   =   -179.587885     0.000036     0.586861  -179.001025
	   64 D(9,10,14,13)   =     60.305335     0.000025     0.501602    60.806937
	 ---------------------------------------------------------------------------
	 Forces used to impose fixed constraints are not included.
	  Forces zeroed: 49 

  ==> Convergence Check <==

  Measures of convergence in internal coordinates in au.
  Criteria marked as inactive (o), active & met (*), and active & unmet ( ).
  ---------------------------------------------------------------------------------------------
   Step     Total Energy     Delta E     MAX Force     RMS Force      MAX Disp      RMS Disp   
  ---------------------------------------------------------------------------------------------
    Convergence Criteria    1.00e-06 *    3.00e-04 *             o    1.20e-03 *             o
  ---------------------------------------------------------------------------------------------
      2    -157.84057050   -4.98e-03      9.47e-03      4.18e-03 o    2.27e-02      1.25e-02 o  ~
  ---------------------------------------------------------------------------------------------

	Writing optimization data to binary file.
	Structure for next step:
	Cartesian Geometry (in Angstrom)
	    H    -1.8106419448   0.3955325432   0.1521414458
	    H    -1.5687877609   2.0238417531  -0.4903581856
	    H    -1.3328907994   0.6148316308  -1.5384466374
	    C    -1.2013404228   0.9964969130  -0.5235592276
	    H     0.8495065796   1.5724309112  -0.8148914550
	    H     0.3889465391   1.3445823637   0.8868792647
	    C     0.2781833919   0.9453387789  -0.1254323320
	    H     0.7778422705  -0.8614534425  -1.1821078073
	    H     1.9133960994  -0.4294047386   0.1150630374
	    C     0.8569089358  -0.4755083502  -0.1617265320
	    H     0.5855218926  -2.4306726416   0.7387210459
	    H    -0.9183184311  -1.5244884490   0.5386434489
	    H     0.2171788028  -1.0768405489   1.8209629423
	    C     0.1384659310  -1.4363359653   0.7924993978
			--------------------------
			 OPTKING Finished Execution 
			--------------------------

    Structure for next step:
    Molecular point group: c1
    Full point group: C1

    Geometry (in Angstrom), charge = 0, multiplicity = 1:

    H           -1.809976264744     0.395784826997     0.151973465846
    H           -1.568122080871     2.024094036834    -0.490526165532
    H           -1.332225119406     0.615083914624    -1.538614617333
    C           -1.200674742810     0.996749196789    -0.523727207550
    H            0.850172259682     1.572683194939    -0.815059434935
    H            0.389612219151     1.344834647508     0.886711284713
    C            0.278849071911     0.945591062700    -0.125600311934
    H            0.778507950533    -0.861201158732    -1.182275787260
    H            1.914061779444    -0.429152454805     0.114895057458
    C            0.857574615799    -0.475256066383    -0.161894511975
    H            0.586187572634    -2.430420357800     0.738553065946
    H           -0.917652751063    -1.524236165214     0.538475468904
    H            0.217844482861    -1.076588265082     1.820794962286
    C            0.139131611078    -1.436083681506     0.792331417840

gradient() will perform analytic gradient computation.
    SCF Algorithm Type (re)set to DF.

*** tstart() called on lski1497
*** at Thu Feb 16 16:35:14 2017


         ---------------------------------------------------------
                                   SCF
            by Justin Turney, Rob Parrish, and Andy Simmonett
                              RHF Reference
                        1 Threads,   1000 MiB Core
         ---------------------------------------------------------

  ==> Geometry <==

    Molecular point group: c1
    Full point group: C1

    Geometry (in Angstrom), charge = 0, multiplicity = 1:

       Center              X                  Y                   Z               Mass       
    ------------   -----------------  -----------------  -----------------  -----------------
           H         -1.809976264744     0.395784826997     0.151973465846     1.007825032070
           H         -1.568122080871     2.024094036834    -0.490526165532     1.007825032070
           H         -1.332225119406     0.615083914624    -1.538614617333     1.007825032070
           C         -1.200674742810     0.996749196789    -0.523727207550    12.000000000000
           H          0.850172259682     1.572683194939    -0.815059434935     1.007825032070
           H          0.389612219151     1.344834647508     0.886711284713     1.007825032070
           C          0.278849071911     0.945591062700    -0.125600311934    12.000000000000
           H          0.778507950533    -0.861201158732    -1.182275787260     1.007825032070
           H          1.914061779444    -0.429152454805     0.114895057458     1.007825032070
           C          0.857574615799    -0.475256066383    -0.161894511975    12.000000000000
           H          0.586187572634    -2.430420357800     0.738553065946     1.007825032070
           H         -0.917652751063    -1.524236165214     0.538475468904     1.007825032070
           H          0.217844482861    -1.076588265082     1.820794962286     1.007825032070
           C          0.139131611078    -1.436083681506     0.792331417840    12.000000000000

  Running in c1 symmetry.

  Rotational constants: A =      0.43043  B =      0.16480  C =      0.13796 [cm^-1]
  Rotational constants: A =  12904.08005  B =   4940.70158  C =   4135.89821 [MHz]
  Nuclear repulsion =  132.942714012238298

  Charge       = 0
  Multiplicity = 1
  Electrons    = 34
  Nalpha       = 17
  Nbeta        = 17

  ==> Algorithm <==

  SCF Algorithm Type is DF.
  DIIS enabled.
  MOM disabled.
  Fractional occupation disabled.
  Guess Type is READ.
  Energy threshold   = 1.00e-10
  Density threshold  = 1.00e-10
  Integral threshold = 0.00e+00

  ==> Primary Basis <==

  Basis Set: 6-31G(D)
    Number of shells: 44
    Number of basis function: 80
    Number of Cartesian functions: 80
    Spherical Harmonics?: false
    Max angular momentum: 2

  ==> Pre-Iterations <==

   -------------------------------------------------------
    Irrep   Nso     Nmo     Nalpha   Nbeta   Ndocc  Nsocc
   -------------------------------------------------------
     A         80      80       0       0       0       0
   -------------------------------------------------------
    Total      80      80      17      17      17       0
   -------------------------------------------------------

  ==> Integral Setup <==

  ==> DFJK: Density-Fitted J/K Matrices <==

    J tasked:                  Yes
    K tasked:                  Yes
    wK tasked:                  No
    OpenMP threads:              1
    Integrals threads:           1
    Memory (MB):               715
    Algorithm:                Core
    Integral Cache:           NONE
    Schwarz Cutoff:          1E-12
    Fitting Condition:       1E-12

   => Auxiliary Basis Set <=

  Basis Set: 
    Number of shells: 186
    Number of basis function: 574
    Number of Cartesian functions: 574
    Spherical Harmonics?: false
    Max angular momentum: 3

  Minimum eigenvalue in the overlap matrix is 5.3419541140E-03.
  Using Symmetric Orthogonalization.
  SCF Guess was Projection but file not found.
  Switching over to SAD guess.

  SCF Guess: Superposition of Atomic Densities via on-the-fly atomic UHF.

  ==> Iterations <==

                           Total Energy        Delta E     RMS |[F,P]|

   @DF-RHF iter   0:  -158.67863626938134   -1.58679e+02   4.50711e-02 
   @DF-RHF iter   1:  -157.18460694029773    1.49403e+00   4.58310e-03 
   @DF-RHF iter   2:  -157.28259605253015   -9.79891e-02   1.54361e-03 DIIS
   @DF-RHF iter   3:  -157.29346091899032   -1.08649e-02   6.08197e-04 DIIS
   @DF-RHF iter   4:  -157.29534203418945   -1.88112e-03   8.58260e-05 DIIS
   @DF-RHF iter   5:  -157.29539822810546   -5.61939e-05   1.76378e-05 DIIS
   @DF-RHF iter   6:  -157.29540049077559   -2.26267e-06   4.62139e-06 DIIS
   @DF-RHF iter   7:  -157.29540059557257   -1.04797e-07   1.08418e-06 DIIS
   @DF-RHF iter   8:  -157.29540060334250   -7.76993e-09   2.35623e-07 DIIS
   @DF-RHF iter   9:  -157.29540060377030   -4.27804e-10   6.60588e-08 DIIS
   @DF-RHF iter  10:  -157.29540060380259   -3.22871e-11   1.89810e-08 DIIS
   @DF-RHF iter  11:  -157.29540060380469   -2.10321e-12   3.88412e-09 DIIS
   @DF-RHF iter  12:  -157.29540060380464    5.68434e-14   8.71264e-10 DIIS
   @DF-RHF iter  13:  -157.29540060380475   -1.13687e-13   2.07917e-10 DIIS
   @DF-RHF iter  14:  -157.29540060380486   -1.13687e-13   6.67671e-11 DIIS

  ==> Post-Iterations <==

    Orbital Energies (a.u.)
    -----------------------

    Doubly Occupied:                                                      

       1A    -11.215514     2A    -11.214930     3A    -11.208878  
       4A    -11.208873     5A     -1.069733     6A     -0.973031  
       7A     -0.872361     8A     -0.772994     9A     -0.626891  
      10A     -0.620113    11A     -0.573640    12A     -0.531963  
      13A     -0.529844    14A     -0.502545    15A     -0.463603  
      16A     -0.456585    17A     -0.454267  

    Virtual:                                                              

      18A      0.228670    19A      0.275930    20A      0.282839  
      21A      0.296736    22A      0.316158    23A      0.316323  
      24A      0.335595    25A      0.344337    26A      0.357696  
      27A      0.380353    28A      0.405810    29A      0.408953  
      30A      0.457891    31A      0.709131    32A      0.726574  
      33A      0.727687    34A      0.744219    35A      0.769248  
      36A      0.846406    37A      0.872451    38A      0.926770  
      39A      0.954328    40A      1.001734    41A      1.098120  
      42A      1.109575    43A      1.151094    44A      1.154687  
      45A      1.174613    46A      1.181973    47A      1.189791  
      48A      1.217296    49A      1.235071    50A      1.245131  
      51A      1.250390    52A      1.278517    53A      1.290711  
      54A      1.540484    55A      1.708409    56A      1.719320  
      57A      1.820037    58A      1.861657    59A      1.970257  
      60A      2.028123    61A      2.172849    62A      2.254943  
      63A      2.298912    64A      2.302242    65A      2.341585  
      66A      2.435751    67A      2.454175    68A      2.626031  
      69A      2.637750    70A      2.644901    71A      2.680502  
      72A      2.736675    73A      2.780532    74A      2.953342  
      75A      2.954730    76A      3.076286    77A      4.559378  
      78A      4.680412    79A      4.814893    80A      4.934437  

    Final Occupation by Irrep:
              A 
    DOCC [    17 ]

  Energy converged.

  @DF-RHF Final Energy:  -157.29540060380486

   => Energetics <=

    Nuclear Repulsion Energy =            132.9427140122382980
    One-Electron Energy =                -473.8847002620837543
    Two-Electron Energy =                 183.6465856460405348
    DFT Exchange-Correlation Energy =       0.0000000000000000
    Empirical Dispersion Energy =           0.0000000000000000
    PCM Polarization Energy =               0.0000000000000000
    EFP Energy =                            0.0000000000000000
    Total Energy =                       -157.2954006038049215


  Saving occupied orbitals to File 180.

*** tstop() called on lski1497 at Thu Feb 16 16:35:21 2017
Module time:
	user time   =       4.90 seconds =       0.08 minutes
	system time =       0.13 seconds =       0.00 minutes
	total time  =          7 seconds =       0.12 minutes
Total time:
	user time   =      52.06 seconds =       0.87 minutes
	system time =       1.45 seconds =       0.02 minutes
	total time  =         60 seconds =       1.00 minutes


Properties will be evaluated at   0.000000,   0.000000,   0.000000 Bohr

Properties computed using the SCF density matrix

  Nuclear Dipole Moment: (a.u.)
     X:    -0.8358      Y:    -0.3460      Z:     0.2109

  Electronic Dipole Moment: (a.u.)
     X:     0.8610      Y:     0.3564      Z:    -0.2173

  Dipole Moment: (a.u.)
     X:     0.0252      Y:     0.0104      Z:    -0.0065     Total:     0.0280

  Dipole Moment: (Debye)
     X:     0.0639      Y:     0.0264      Z:    -0.0164     Total:     0.0711


  //>>>>>>>>>>>>>>>>>>>>>>>>>>>>>>>>>>>//
  //               DFMP2               //
  //<<<<<<<<<<<<<<<<<<<<<<<<<<<<<<<<<<<//


*** tstart() called on lski1497
*** at Thu Feb 16 16:35:21 2017


*** tstop() called on lski1497 at Thu Feb 16 16:35:21 2017
Module time:
	user time   =       0.52 seconds =       0.01 minutes
	system time =       0.00 seconds =       0.00 minutes
	total time  =          0 seconds =       0.00 minutes
Total time:
	user time   =      52.59 seconds =       0.88 minutes
	system time =       1.45 seconds =       0.02 minutes
	total time  =         60 seconds =       1.00 minutes
	 --------------------------------------------------------
	                          DF-MP2                         
	      2nd-Order Density-Fitted Moller-Plesset Theory     
	              RMP2 Wavefunction,   1 Threads             
	                                                         
	        Rob Parrish, Justin Turney, Andy Simmonett,      
	           Ed Hohenstein, and C. David Sherrill          
	 --------------------------------------------------------

   => Auxiliary Basis Set <=

  Basis Set: 
    Number of shells: 132
    Number of basis function: 364
    Number of Cartesian functions: 414
    Spherical Harmonics?: true
    Max angular momentum: 3

	 --------------------------------------------------------
	                 NBF =    80, NAUX =   364
	 --------------------------------------------------------
	   CLASS    FOCC     OCC    AOCC    AVIR     VIR    FVIR
	   PAIRS       0      17      17      63      63       0
	 --------------------------------------------------------

DGAS Warning! /src/lib/libfock/apps.cc:80 is not currently checking restricted

         ------------------------------------------------------------
                                     CPHF                           
                                  Rob Parrish                       
         ------------------------------------------------------------

  ==> Geometry <==

    Molecular point group: c1
    Full point group: C1

    Geometry (in Angstrom), charge = 0, multiplicity = 1:

       Center              X                  Y                   Z               Mass       
    ------------   -----------------  -----------------  -----------------  -----------------
           H         -1.809976264744     0.395784826997     0.151973465846     1.007825032070
           H         -1.568122080871     2.024094036834    -0.490526165532     1.007825032070
           H         -1.332225119406     0.615083914624    -1.538614617333     1.007825032070
           C         -1.200674742810     0.996749196789    -0.523727207550    12.000000000000
           H          0.850172259682     1.572683194939    -0.815059434935     1.007825032070
           H          0.389612219151     1.344834647508     0.886711284713     1.007825032070
           C          0.278849071911     0.945591062700    -0.125600311934    12.000000000000
           H          0.778507950533    -0.861201158732    -1.182275787260     1.007825032070
           H          1.914061779444    -0.429152454805     0.114895057458     1.007825032070
           C          0.857574615799    -0.475256066383    -0.161894511975    12.000000000000
           H          0.586187572634    -2.430420357800     0.738553065946     1.007825032070
           H         -0.917652751063    -1.524236165214     0.538475468904     1.007825032070
           H          0.217844482861    -1.076588265082     1.820794962286     1.007825032070
           C          0.139131611078    -1.436083681506     0.792331417840    12.000000000000

  Nuclear repulsion =  132.942714012238298
  Reference energy  = -157.295400603804865

  ==> Basis Set <==

  Basis Set: 6-31G(D)
    Number of shells: 44
    Number of basis function: 80
    Number of Cartesian functions: 80
    Spherical Harmonics?: false
    Max angular momentum: 2

  ==> CGRSolver (by Rob Parrish) <==

[...]
    Number of shells: 186
    Number of basis function: 574
    Number of Cartesian functions: 574
    Spherical Harmonics?: false
    Max angular momentum: 3

  ==> CPHF Iterations <==

  => Iterations <=

             Iter  Converged  Remaining    Residual
  CGR           1          0          1   7.652E-02
  CGR           2          0          1   8.981E-03
  CGR           3          0          1   2.426E-03
  CGR           4          0          1   4.350E-04
  CGR           5          0          1   7.982E-05
  CGR           6          0          1   1.502E-05
  CGR           7          0          1   1.964E-06
  CGR           8          1          0   4.255E-07

    CGRSolver converged.

  ==> DFCorrGrad: Density-Fitted Correlated Gradients <==

    OpenMP threads:              1
    Integrals threads:           1
    Memory (MB):               715
    Schwarz Cutoff:          0E+00
    Fitting Condition:       1E-12

   => Auxiliary Basis Set <=

  Basis Set: 
    Number of shells: 186
    Number of basis function: 510
    Number of Cartesian functions: 574
    Spherical Harmonics?: true
    Max angular momentum: 3

	-----------------------------------------------------------
	 ==================> DF-MP2 Energies <==================== 
	-----------------------------------------------------------
	 Reference Energy          =    -157.2962140471000225 [Eh]
	 Singles Energy            =      -0.0000000000000000 [Eh]
	 Same-Spin Energy          =      -0.1246804792168662 [Eh]
	 Opposite-Spin Energy      =      -0.4225060129508191 [Eh]
	 Correlation Energy        =      -0.5471864921676852 [Eh]
	 Total Energy              =    -157.8434005392677193 [Eh]
	-----------------------------------------------------------
	 ================> DF-SCS-MP2 Energies <================== 
	-----------------------------------------------------------
	 SCS Same-Spin Scale       =       0.3333333333333333 [-]
	 SCS Opposite-Spin Scale   =       1.2000000000000000 [-]
	 SCS Same-Spin Energy      =      -0.0415601597389554 [Eh]
	 SCS Opposite-Spin Energy  =      -0.5070072155409828 [Eh]
	 SCS Correlation Energy    =      -0.5485673752799383 [Eh]
	 SCS Total Energy          =    -157.8447814223799526 [Eh]
	-----------------------------------------------------------


  -Total Gradient:
     Atom            X                  Y                   Z
    ------   -----------------  -----------------  -----------------
       1       -0.000015855171    -0.000006297903     0.000001026567
       2       -0.000003880462     0.000007805179     0.000002994464
       3        0.000003671658    -0.000000715291    -0.000003652262
       4       -0.000168940171    -0.000079150202     0.000582585991
       5        0.000034023959     0.000000985001     0.000005785355
       6       -0.000020320981     0.000001600213    -0.000002800738
       7        0.000083976076     0.000037925412    -0.000993375060
       8       -0.000010377493    -0.000014271222     0.000010510767
       9        0.000019330006     0.000021246341    -0.000019203895
      10        0.000484278376     0.000197235352     0.000849377324
      11        0.000001628024    -0.000009002219    -0.000002235032
      12       -0.000014439894    -0.000006199547     0.000006785716
      13        0.000003201700     0.000003424362     0.000001621677
      14       -0.000396295627    -0.000154585475    -0.000439420872


			-----------------------------------------
			 OPTKING 2.0: for geometry optimizations 
			  - R.A. King,  Bethel University        
			-----------------------------------------

	Previous internal coordinate definitions found.
	---Fragment 1 Geometry and Gradient---
	 H          -3.4696026800        0.9233392558        0.3761759125
	 H          -2.9106408653        3.8862367998       -1.0421476270
	 H          -2.5780328466        1.0896487828       -2.8392277737
	 C          -2.2675998744        1.9235374991       -0.9716298254
	 H           1.6225769095        2.9814900321       -1.5035311646
	 H           0.7627895464        2.5567064385        1.6709216049
	 C           0.5154109229        1.7756563372       -0.2339993080
	 H           1.5001714377       -1.6203659428       -2.2437653373
	 H           3.6180410359       -0.8130864055        0.1769289406
	 C           1.6045157678       -0.8984983088       -0.3026371248
	 H           1.2287082327       -4.5821677890        1.4679162716
	 H          -1.6835128855       -3.0555360574        0.9282785402
	 H           0.2976586584       -2.0331917294        3.4164768192
	 C           0.2830445322       -2.7446834161        1.4739980078
	            -0.0000158552       -0.0000062979        0.0000010266
	            -0.0000038805        0.0000078052        0.0000029945
	             0.0000036717       -0.0000007153       -0.0000036523
	            -0.0001689402       -0.0000791502        0.0005825860
	             0.0000340240        0.0000009850        0.0000057854
	            -0.0000203210        0.0000016002       -0.0000028007
	             0.0000839761        0.0000379254       -0.0009933751
	            -0.0000103775       -0.0000142712        0.0000105108
	             0.0000193300        0.0000212463       -0.0000192039
	             0.0004842784        0.0001972354        0.0008493773
	             0.0000016280       -0.0000090022       -0.0000022350
	            -0.0000144399       -0.0000061995        0.0000067857
	             0.0000032017        0.0000034244        0.0000016217
	            -0.0003962956       -0.0001545855       -0.0004394209

	---Fragment 1 Intrafragment Coordinates---
	 - Coordinate -           - BOHR/RAD -       - ANG/DEG -
	 R(1,4)           =         2.064410	       1.092439
	 R(2,4)           =         2.066558	       1.093576
	 R(3,4)           =         2.068734	       1.094727
	 R(4,7)           =         2.882901	       1.525565
	 R(5,7)           =         2.071609	       1.096248
	 R(6,7)           =         2.073634	       1.097320
	 R(7,10)          =         2.888246	       1.528394
	 R(8,10)          =         2.073634	       1.097320
	 R(9,10)          =         2.071609	       1.096248
	 R(10,14)         =         2.882901	       1.525565
	 R(11,14)         =         2.066559	       1.093576
	 R(12,14)         =         2.064410	       1.092439
	 R(13,14)         =         2.068733	       1.094727
	 B(1,4,2)         =         1.876799	     107.532639
	 B(1,4,3)         =         1.882554	     107.862381
	 B(1,4,7)         =         1.949994	     111.726425
	 B(2,4,3)         =         1.881086	     107.778276
	 B(2,4,7)         =         1.936742	     110.967142
	 B(3,4,7)         =         1.933892	     110.803875
	 B(4,7,5)         =         1.906328	     109.224567
	 B(4,7,6)         =         1.908042	     109.322754
	 B(4,7,10)        =         1.988245	     113.918038
	 B(5,7,6)         =         1.854552	     106.257976
	 B(5,7,10)        =         1.899520	     108.834507
	 B(6,7,10)        =         1.902426	     109.000967
	 B(7,10,8)        =         1.902426	     109.000981
	 B(7,10,9)        =         1.899519	     108.834416
	 B(7,10,14)       =         1.988245	     113.918044
	 B(8,10,9)        =         1.854552	     106.258020
	 B(8,10,14)       =         1.908043	     109.322799
	 B(9,10,14)       =         1.906328	     109.224550
	 B(10,14,11)      =         1.936744	     110.967252
	 B(10,14,12)      =         1.949994	     111.726451
	 B(10,14,13)      =         1.933892	     110.803876
	 B(11,14,12)      =         1.876799	     107.532642
	 B(11,14,13)      =         1.881085	     107.778216
	 B(12,14,13)      =         1.882552	     107.862292
	 D(1,4,7,5)       =        -3.027005	    -173.434608
	 D(1,4,7,6)       =        -1.004537	     -57.555729
	 D(1,4,7,10)      =         1.128337	      64.648942
	 D(2,4,7,5)       =        -0.932631	     -53.435824
	 D(2,4,7,6)       =         1.089837	      62.443055
	 D(2,4,7,10)      =        -3.060475	    -175.352275
	 D(3,4,7,5)       =         1.156446	      66.259461
	 D(3,4,7,6)       =        -3.104272	    -177.861660
	 D(3,4,7,10)      =        -0.971398	     -55.656990
	 D(4,7,10,8)      =         1.086735	      62.265319
	 D(4,7,10,9)      =         3.102361	     177.752183
	 D(4,7,10,14)     =        -1.049228	     -60.116351
	 D(5,7,10,8)      =        -1.044863	     -59.866230
	 D(5,7,10,9)      =         0.970763	      55.620634
	 D(5,7,10,14)     =         3.102359	     177.752100
	 D(6,7,10,8)      =        -3.060489	    -175.353085
	 D(6,7,10,9)      =        -1.044863	     -59.866220
	 D(6,7,10,14)     =         1.086734	      62.265245
	 D(7,10,14,11)    =        -3.060472	    -175.352137
	 D(7,10,14,12)    =         1.128338	      64.648983
	 D(7,10,14,13)    =        -0.971395	     -55.656854
	 D(8,10,14,11)    =         1.089838	      62.443136
	 D(8,10,14,12)    =        -1.004537	     -57.555744
	 D(8,10,14,13)    =        -3.104270	    -177.861581
	 D(9,10,14,11)    =        -0.932631	     -53.435812
	 D(9,10,14,12)    =        -3.027006	    -173.434691
	 D(9,10,14,13)    =         1.156446	      66.259471

	Current energy   :      -157.8434005393

	Energy change for the previous step:
		Projected    :         0.0000002387
		Actual       :         0.0000011718

	Performing BFGS update.
	Previous computed or guess Hessian on step 1.
	Steps to be used in Hessian update: 7 6
	Adding user-defined constraint: Fragment 1; Coordinate 49:
		Value =    -1.049228; Fixed value    =    -1.047200
		Force =     0.001369; Force constant =     0.675000
	Removing off-diagonal coupling between coordinate 49 and others.
	Taking RFO optimization step.
	Going to follow RFO solution 1.
	Using RFO vector 1.
	Norm of target step-size    0.00348
	Projected energy change by RFO approximation:         0.0000003657

	Back-transformation to cartesian coordinates...
	Successfully converged to displaced geometry.

	--- Internal Coordinate Step in ANG or DEG, aJ/ANG or AJ/DEG ---
	 ---------------------------------------------------------------------------
	   Coordinate                Previous        Force       Change         New 
	   ----------                --------       ------       ------       ------
	    1 R(1,4)          =      1.092439    -0.000107    -0.000020     1.092418
	    2 R(2,4)          =      1.093576    -0.000070    -0.000015     1.093560
	    3 R(3,4)          =      1.094727    -0.000025    -0.000006     1.094721
	    4 R(4,7)          =      1.525565    -0.000210    -0.000043     1.525522
	    5 R(5,7)          =      1.096248    -0.000125    -0.000026     1.096222
	    6 R(6,7)          =      1.097320     0.000036     0.000004     1.097324
	    7 R(7,10)         =      1.528394     0.000098     0.000023     1.528417
	    8 R(8,10)         =      1.097320     0.000036     0.000004     1.097324
	    9 R(9,10)         =      1.096248    -0.000125    -0.000026     1.096222
	   10 R(10,14)        =      1.525565    -0.000211    -0.000043     1.525522
	   11 R(11,14)        =      1.093576    -0.000072    -0.000016     1.093560
	   12 R(12,14)        =      1.092439    -0.000106    -0.000020     1.092418
	   13 R(13,14)        =      1.094727    -0.000023    -0.000005     1.094722
	   14 B(1,4,2)        =    107.532639     0.000000     0.001502   107.534142
	   15 B(1,4,3)        =    107.862381     0.000000     0.001720   107.864101
	   16 B(1,4,7)        =    111.726425    -0.000001    -0.007549   111.718876
	   17 B(2,4,3)        =    107.778276    -0.000000     0.000123   107.778398
	   18 B(2,4,7)        =    110.967142     0.000000     0.000997   110.968139
	   19 B(3,4,7)        =    110.803875     0.000001     0.003414   110.807289
	   20 B(4,7,5)        =    109.224567     0.000002    -0.015842   109.208724
	   21 B(4,7,6)        =    109.322754    -0.000002     0.012435   109.335189
	   22 B(4,7,10)       =    113.918038    -0.000001    -0.004635   113.913402
	   23 B(5,7,6)        =    106.257976     0.000000     0.002329   106.260305
	   24 B(5,7,10)       =    108.834507     0.000001     0.004405   108.838912
	   25 B(6,7,10)       =    109.000967    -0.000000     0.001770   109.002737
	   26 B(7,10,8)       =    109.000981    -0.000000     0.001764   109.002745
	   27 B(7,10,9)       =    108.834416     0.000001     0.004508   108.838924
	   28 B(7,10,14)      =    113.918044    -0.000001    -0.004681   113.913363
	   29 B(8,10,9)       =    106.258020     0.000000     0.002301   106.260321
	   30 B(8,10,14)      =    109.322799    -0.000002     0.012402   109.335201
	   31 B(9,10,14)      =    109.224550     0.000002    -0.015831   109.208719
	   32 B(10,14,11)     =    110.967252     0.000000     0.000882   110.968134
	   33 B(10,14,12)     =    111.726451    -0.000001    -0.007570   111.718881
	   34 B(10,14,13)     =    110.803876     0.000001     0.003414   110.807290
	   35 B(11,14,12)     =    107.532642     0.000000     0.001501   107.534143
	   36 B(11,14,13)     =    107.778216    -0.000000     0.000180   107.778396
	   37 B(12,14,13)     =    107.862292     0.000000     0.001806   107.864099
	   38 D(1,4,7,5)      =   -173.434608     0.000000     0.035268  -173.399340
	   39 D(1,4,7,6)      =    -57.555729     0.000000     0.036135   -57.519594
	   40 D(1,4,7,10)     =     64.648942    -0.000000     0.044476    64.693418
	   41 D(2,4,7,5)      =    -53.435824     0.000000     0.032777   -53.403047
	   42 D(2,4,7,6)      =     62.443055     0.000000     0.033644    62.476699
	   43 D(2,4,7,10)     =   -175.352275    -0.000000     0.041985  -175.310289
	   44 D(3,4,7,5)      =     66.259461     0.000000     0.035831    66.295292
	   45 D(3,4,7,6)      =   -177.861660     0.000000     0.036698  -177.824962
	   46 D(3,4,7,10)     =    -55.656990    -0.000000     0.045039   -55.611950
	   47 D(4,7,10,8)     =     62.265319     0.000001     0.026130    62.291449
	   48 D(4,7,10,9)     =    177.752183     0.000001     0.032274   177.784458
	   49 D(4,7,10,14)    =    -60.116351     0.000002     0.012010   -60.104341
	   50 D(5,7,10,8)     =    -59.866230     0.000000     0.046454   -59.819777
	   51 D(5,7,10,9)     =     55.620634     0.000000     0.052598    55.673232
	   52 D(5,7,10,14)    =    177.752100     0.000001     0.032333   177.784433
	   53 D(6,7,10,8)     =   -175.353085     0.000000     0.040329  -175.312756
	   54 D(6,7,10,9)     =    -59.866220     0.000000     0.046473   -59.819747
	   55 D(6,7,10,14)    =     62.265245     0.000001     0.026209    62.291454
	   56 D(7,10,14,11)   =   -175.352137    -0.000000     0.041856  -175.310281
	   57 D(7,10,14,12)   =     64.648983    -0.000000     0.044440    64.693424
	   58 D(7,10,14,13)   =    -55.656854    -0.000000     0.044907   -55.611947
	   59 D(8,10,14,11)   =     62.443136     0.000000     0.033579    62.476714
	   60 D(8,10,14,12)   =    -57.555744     0.000000     0.036163   -57.519581
	   61 D(8,10,14,13)   =   -177.861581     0.000000     0.036630  -177.824951
	   62 D(9,10,14,11)   =    -53.435812     0.000000     0.032757   -53.403054
	   63 D(9,10,14,12)   =   -173.434691     0.000000     0.035342  -173.399350
	   64 D(9,10,14,13)   =     66.259471     0.000000     0.035809    66.295280
	 ---------------------------------------------------------------------------
	 Forces used to impose fixed constraints are not included.
	  Forces zeroed: 49 

  ==> Convergence Check <==

  Measures of convergence in internal coordinates in au.
  Criteria marked as inactive (o), active & met (*), and active & unmet ( ).
  ---------------------------------------------------------------------------------------------
   Step     Total Energy     Delta E     MAX Force     RMS Force      MAX Disp      RMS Disp   
  ---------------------------------------------------------------------------------------------
    Convergence Criteria    1.00e-06 *    3.00e-04 *             o    1.20e-03 *             o
  ---------------------------------------------------------------------------------------------
      8    -157.84340054    1.17e-06      6.34e-05 *    2.11e-05 o    9.18e-04 *    4.35e-04 o  ~
  ---------------------------------------------------------------------------------------------


  **** Optimization is complete! (in 8 steps) ****

  ==> Optimization Summary <==

  Measures of convergence in internal coordinates in au.
  --------------------------------------------------------------------------------------------------------------- ~
   Step         Total Energy             Delta E       MAX Force       RMS Force        MAX Disp        RMS Disp  ~
  --------------------------------------------------------------------------------------------------------------- ~
      1    -157.835592908989   -157.835592908989      0.02377507      0.00856369      0.03873566      0.01263962  ~
      2    -157.840570500696     -0.004977591707      0.00947282      0.00417636      0.02271773      0.01253603  ~
      3    -157.842632465340     -0.002061964644      0.00419122      0.00141497      0.03112196      0.01251524  ~
      4    -157.843221368288     -0.000588902948      0.00089395      0.00043832      0.02832473      0.01250434  ~
      5    -157.843351459389     -0.000130091102      0.00037735      0.00013389      0.02492755      0.01250113  ~
      6    -157.843390725735     -0.000039266345      0.00027791      0.00008261      0.02235999      0.01144777  ~
      7    -157.843401711117     -0.000010985382      0.00031223      0.00007132      0.00163809      0.00072859  ~
      8    -157.843400539268      0.000001171849      0.00010734      0.00002501      0.00091800      0.00043488  ~
  --------------------------------------------------------------------------------------------------------------- ~

	Writing optimization data to binary file.
	Final energy is   -157.8434005392677
	Final (previous) structure:
	Cartesian Geometry (in Angstrom)
	    H    -1.8360346611   0.4886100900   0.1990637193
	    H    -1.5402448083   2.0565079416  -0.5514807722
	    H    -1.3642362254   0.5766173012  -1.5024546279
	    C    -1.1999621717   1.0178922044  -0.5141643588
	    H     0.8586307197   1.5777365726  -0.7956344247
	    H     0.4036508429   1.3529507763   0.8842136307
	    C     0.2727437135   0.9396368639  -0.1238271006
	    H     0.7938565338  -0.8574607265  -1.1873494779
	    H     1.9145848559  -0.4302667944   0.0936267629
	    C     0.8490731752  -0.4754648270  -0.1601486689
	    H     0.6502043928  -2.4247787599   0.7767878351
	    H    -0.8908766494  -1.6169200416   0.4912238467
	    H     0.1575141780  -1.0759187239   1.8079216664
	    C     0.1497807155  -1.4524239086   0.7800061512
	Saving final (previous) structure.
			--------------------------
			 OPTKING Finished Execution 
			--------------------------

    Final optimized geometry and variables:
    Molecular point group: c1
    Full point group: C1

    Geometry (in Angstrom), charge = 0, multiplicity = 1:

    H           -1.836034661120     0.488610089985     0.199063719309
    H           -1.540244808281     2.056507941637    -0.551480772219
    H           -1.364236225406     0.576617301202    -1.502454627852
    C           -1.199962171718     1.017892204401    -0.514164358792
    H            0.858630719708     1.577736572647    -0.795634424717
    H            0.403650842923     1.352950776294     0.884213630673
    C            0.272743713466     0.939636863926    -0.123827100594
    H            0.793856533808    -0.857460726489    -1.187349477905
    H            1.914584855934    -0.430266794406     0.093626762924
    C            0.849073175159    -0.475464826976    -0.160148668905
    H            0.650204392755    -2.424778759867     0.776787835068
    H           -0.890876649371    -1.616920041581     0.491223846685
    H            0.157514177954    -1.075918723874     1.807921666409
    C            0.149780715479    -1.452423908578     0.780006151217

	Cleaning optimization helper files.

*** Psi4 exiting successfully. Buy a developer a beer!
