 Entering Gaussian System, Link 0=g09
 Initial command:
 /softlib/exe/x86_64/pkg/gaussian/09revB.01/dist/g09/l1.exe /zenodotus/hwlab/hwlab_store011/chs2057/Weinsteinlab/parameters/Pyrrol/torsion-scan/torsion-scan/Gau-6334.inp -scrdir=/zenodotus/hwlab/hwlab_store011/chs2057/Weinsteinlab/parameters/Pyrrol/torsion-scan/torsion-scan/
 Entering Link 1 = /softlib/exe/x86_64/pkg/gaussian/09revB.01/dist/g09/l1.exe PID=      6335.
  
 Copyright (c) 1988,1990,1992,1993,1995,1998,2003,2009,2010,
            Gaussian, Inc.  All Rights Reserved.
  
 This is part of the Gaussian(R) 09 program.  It is based on
 the Gaussian(R) 03 system (copyright 2003, Gaussian, Inc.),
 the Gaussian(R) 98 system (copyright 1998, Gaussian, Inc.),
 the Gaussian(R) 94 system (copyright 1995, Gaussian, Inc.),
 the Gaussian 92(TM) system (copyright 1992, Gaussian, Inc.),
 the Gaussian 90(TM) system (copyright 1990, Gaussian, Inc.),
 the Gaussian 88(TM) system (copyright 1988, Gaussian, Inc.),
 the Gaussian 86(TM) system (copyright 1986, Carnegie Mellon
 University), and the Gaussian 82(TM) system (copyright 1983,
 Carnegie Mellon University). Gaussian is a federally registered
 trademark of Gaussian, Inc.
  
 This software contains proprietary and confidential information,
 including trade secrets, belonging to Gaussian, Inc.
  
 This software is provided under written license and may be
 used, copied, transmitted, or stored only in accord with that
 written license.
  
 The following legend is applicable only to US Government
 contracts under FAR:
  
                    RESTRICTED RIGHTS LEGEND
  
 Use, reproduction and disclosure by the US Government is
 subject to restrictions as set forth in subparagraphs (a)
 and (c) of the Commercial Computer Software - Restricted
 Rights clause in FAR 52.227-19.
  
 Gaussian, Inc.
 340 Quinnipiac St., Bldg. 40, Wallingford CT 06492
  
  
 ---------------------------------------------------------------
 Warning -- This program may not be used in any manner that
 competes with the business of Gaussian, Inc. or will provide
 assistance to any competitor of Gaussian, Inc.  The licensee
 of this program is prohibited from giving any competitor of
 Gaussian, Inc. access to this program.  By using this program,
 the user acknowledges that Gaussian, Inc. is engaged in the
 business of creating and licensing software in the field of
 computational chemistry and represents and warrants to the
 licensee that it is not a competitor of Gaussian, Inc. and that
 it will not use this program in any manner prohibited above.
 ---------------------------------------------------------------
  

 Cite this work as:
 Gaussian 09, Revision B.01,
 M. J. Frisch, G. W. Trucks, H. B. Schlegel, G. E. Scuseria, 
 M. A. Robb, J. R. Cheeseman, G. Scalmani, V. Barone, B. Mennucci, 
 G. A. Petersson, H. Nakatsuji, M. Caricato, X. Li, H. P. Hratchian, 
 A. F. Izmaylov, J. Bloino, G. Zheng, J. L. Sonnenberg, M. Hada, 
 M. Ehara, K. Toyota, R. Fukuda, J. Hasegawa, M. Ishida, T. Nakajima, 
 Y. Honda, O. Kitao, H. Nakai, T. Vreven, J. A. Montgomery, Jr., 
 J. E. Peralta, F. Ogliaro, M. Bearpark, J. J. Heyd, E. Brothers, 
 K. N. Kudin, V. N. Staroverov, T. Keith, R. Kobayashi, J. Normand, 
 K. Raghavachari, A. Rendell, J. C. Burant, S. S. Iyengar, J. Tomasi, 
 M. Cossi, N. Rega, J. M. Millam, M. Klene, J. E. Knox, J. B. Cross, 
 V. Bakken, C. Adamo, J. Jaramillo, R. Gomperts, R. E. Stratmann, 
 O. Yazyev, A. J. Austin, R. Cammi, C. Pomelli, J. W. Ochterski, 
 R. L. Martin, K. Morokuma, V. G. Zakrzewski, G. A. Voth, 
 P. Salvador, J. J. Dannenberg, S. Dapprich, A. D. Daniels, 
 O. Farkas, J. B. Foresman, J. V. Ortiz, J. Cioslowski, 
 and D. J. Fox, Gaussian, Inc., Wallingford CT, 2010.
 
 ******************************************
 Gaussian 09:  EM64L-G09RevB.01 12-Aug-2010
                23-Mar-2015 
 ******************************************
 %chk=PRL.scan1.pos.chk
 %nproc=16
 Will use up to   16 processors via shared memory.
 %mem=32GB
 ------------------------------------------------------
 # opt=modredundant B3LYP/cc-pVDZ Geom=PrintInputOrient
 ------------------------------------------------------
 1/14=-1,18=120,19=15,26=3,38=1/1,3;
 2/9=2110,12=2,17=6,18=5,40=1/2;
 3/5=16,11=2,16=1,25=1,30=1,71=1,74=-5/1,2,3;
 4//1;
 5/5=2,38=5/2;
 6/7=2,8=2,9=2,10=2,28=1/1;
 7//1,2,3,16;
 1/14=-1,18=20,19=15/3(2);
 2/9=2110/2;
 99//99;
 2/9=2110/2;
 3/5=16,11=2,16=1,25=1,30=1,71=1,74=-5/1,2,3;
 4/5=5,16=3/1;
 5/5=2,38=5/2;
 7//1,2,3,16;
 1/14=-1,18=20,19=15/3(-5);
 2/9=2110/2;
 6/7=2,8=2,9=2,10=2,19=2,28=1/1;
 99/9=1/99;
 -------------------------------
 PRL Dihedral Scan at MP2/6-31G*
 -------------------------------
 Symbolic Z-matrix:
 Charge =  0 Multiplicity = 1
 C1                    0.779     0.587    -0.13 
 C2                   -0.41     -0.337     0.142 
 N3                   -1.469     0.488     0.542 
 C4                   -1.064     1.829     0.518 
 C5                    0.218     1.966     0.144 
 C6                   -2.808     0.033     0.853 
 C7                   -3.702    -0.196    -0.375 
 C8                   -5.092    -0.707     0.007 
 C9                   -0.439    -1.679     0.026 
 H10                   1.14      0.471    -1.167 
 H11                   1.631     0.338     0.527 
 H12                  -1.783     2.599     0.799 
 H13                   0.769     2.9       0.063 
 H14                  -2.73     -0.9       1.439 
 H15                  -3.273     0.78      1.519 
 H16                  -3.787     0.753    -0.934 
 H17                  -3.207    -0.912    -1.051 
 H18                  -5.72     -0.864    -0.884 
 H19                  -5.033    -1.669     0.545 
 H20                  -5.62      0.006     0.664 
 H21                  -1.336    -2.266     0.226 
 H22                   0.46     -2.217    -0.275 
 
 The following ModRedundant input section has been read:
 D       2       3       6       7 S   6 15.000                                

 GradGradGradGradGradGradGradGradGradGradGradGradGradGradGradGradGradGrad
 Berny optimization.
 Initialization pass.
                           ----------------------------
                           !    Initial Parameters    !
                           ! (Angstroms and Degrees)  !
 --------------------------                            --------------------------
 ! Name  Definition              Value          Derivative Info.                !
 --------------------------------------------------------------------------------
 ! R1    R(1,2)                  1.5302         estimate D2E/DX2                !
 ! R2    R(1,5)                  1.5137         estimate D2E/DX2                !
 ! R3    R(1,10)                 1.1041         estimate D2E/DX2                !
 ! R4    R(1,11)                 1.1043         estimate D2E/DX2                !
 ! R5    R(2,3)                  1.4008         estimate D2E/DX2                !
 ! R6    R(2,9)                  1.3473         estimate D2E/DX2                !
 ! R7    R(3,4)                  1.401          estimate D2E/DX2                !
 ! R8    R(3,6)                  1.448          estimate D2E/DX2                !
 ! R9    R(4,5)                  1.3424         estimate D2E/DX2                !
 ! R10   R(4,12)                 1.0903         estimate D2E/DX2                !
 ! R11   R(5,13)                 1.0874         estimate D2E/DX2                !
 ! R12   R(6,7)                  1.5361         estimate D2E/DX2                !
 ! R13   R(6,14)                 1.1045         estimate D2E/DX2                !
 ! R14   R(6,15)                 1.1035         estimate D2E/DX2                !
 ! R15   R(7,8)                  1.5294         estimate D2E/DX2                !
 ! R16   R(7,16)                 1.1047         estimate D2E/DX2                !
 ! R17   R(7,17)                 1.1021         estimate D2E/DX2                !
 ! R18   R(8,18)                 1.1013         estimate D2E/DX2                !
 ! R19   R(8,19)                 1.1038         estimate D2E/DX2                !
 ! R20   R(8,20)                 1.104          estimate D2E/DX2                !
 ! R21   R(9,21)                 1.0905         estimate D2E/DX2                !
 ! R22   R(9,22)                 1.0901         estimate D2E/DX2                !
 ! A1    A(2,1,5)              103.2941         estimate D2E/DX2                !
 ! A2    A(2,1,10)             110.9501         estimate D2E/DX2                !
 ! A3    A(2,1,11)             110.9515         estimate D2E/DX2                !
 ! A4    A(5,1,10)             112.7601         estimate D2E/DX2                !
 ! A5    A(5,1,11)             112.5593         estimate D2E/DX2                !
 ! A6    A(10,1,11)            106.4284         estimate D2E/DX2                !
 ! A7    A(1,2,3)              106.4133         estimate D2E/DX2                !
 ! A8    A(1,2,9)              127.0768         estimate D2E/DX2                !
 ! A9    A(3,2,9)              126.5097         estimate D2E/DX2                !
 ! A10   A(2,3,4)              109.8949         estimate D2E/DX2                !
 ! A11   A(2,3,6)              125.1262         estimate D2E/DX2                !
 ! A12   A(4,3,6)              124.8731         estimate D2E/DX2                !
 ! A13   A(3,4,5)              112.2413         estimate D2E/DX2                !
 ! A14   A(3,4,12)             118.7448         estimate D2E/DX2                !
 ! A15   A(5,4,12)             129.0109         estimate D2E/DX2                !
 ! A16   A(1,5,4)              108.1421         estimate D2E/DX2                !
 ! A17   A(1,5,13)             125.5334         estimate D2E/DX2                !
 ! A18   A(4,5,13)             126.3193         estimate D2E/DX2                !
 ! A19   A(3,6,7)              114.4139         estimate D2E/DX2                !
 ! A20   A(3,6,14)             108.3053         estimate D2E/DX2                !
 ! A21   A(3,6,15)             107.8529         estimate D2E/DX2                !
 ! A22   A(7,6,14)             109.8343         estimate D2E/DX2                !
 ! A23   A(7,6,15)             109.7636         estimate D2E/DX2                !
 ! A24   A(14,6,15)            106.3414         estimate D2E/DX2                !
 ! A25   A(6,7,8)              112.2762         estimate D2E/DX2                !
 ! A26   A(6,7,16)             108.7381         estimate D2E/DX2                !
 ! A27   A(6,7,17)             109.0137         estimate D2E/DX2                !
 ! A28   A(8,7,16)             110.0894         estimate D2E/DX2                !
 ! A29   A(8,7,17)             110.141          estimate D2E/DX2                !
 ! A30   A(16,7,17)            106.3966         estimate D2E/DX2                !
 ! A31   A(7,8,18)             111.3338         estimate D2E/DX2                !
 ! A32   A(7,8,19)             111.3676         estimate D2E/DX2                !
 ! A33   A(7,8,20)             111.5628         estimate D2E/DX2                !
 ! A34   A(18,8,19)            107.4914         estimate D2E/DX2                !
 ! A35   A(18,8,20)            107.5064         estimate D2E/DX2                !
 ! A36   A(19,8,20)            107.3599         estimate D2E/DX2                !
 ! A37   A(2,9,21)             122.5529         estimate D2E/DX2                !
 ! A38   A(2,9,22)             119.8428         estimate D2E/DX2                !
 ! A39   A(21,9,22)            117.6039         estimate D2E/DX2                !
 ! D1    D(5,1,2,3)             -1.0401         estimate D2E/DX2                !
 ! D2    D(5,1,2,9)            179.1459         estimate D2E/DX2                !
 ! D3    D(10,1,2,3)          -122.1131         estimate D2E/DX2                !
 ! D4    D(10,1,2,9)            58.0729         estimate D2E/DX2                !
 ! D5    D(11,1,2,3)           119.7959         estimate D2E/DX2                !
 ! D6    D(11,1,2,9)           -60.0181         estimate D2E/DX2                !
 ! D7    D(2,1,5,4)              0.5057         estimate D2E/DX2                !
 ! D8    D(2,1,5,13)           179.7239         estimate D2E/DX2                !
 ! D9    D(10,1,5,4)           120.3441         estimate D2E/DX2                !
 ! D10   D(10,1,5,13)          -60.4378         estimate D2E/DX2                !
 ! D11   D(11,1,5,4)          -119.2316         estimate D2E/DX2                !
 ! D12   D(11,1,5,13)           59.9866         estimate D2E/DX2                !
 ! D13   D(1,2,3,4)              1.2262         estimate D2E/DX2                !
 ! D14   D(1,2,3,6)            177.6311         estimate D2E/DX2                !
 ! D15   D(9,2,3,4)           -178.9584         estimate D2E/DX2                !
 ! D16   D(9,2,3,6)             -2.5534         estimate D2E/DX2                !
 ! D17   D(1,2,9,21)          -179.0825         estimate D2E/DX2                !
 ! D18   D(1,2,9,22)             1.1326         estimate D2E/DX2                !
 ! D19   D(3,2,9,21)             1.1395         estimate D2E/DX2                !
 ! D20   D(3,2,9,22)          -178.6455         estimate D2E/DX2                !
 ! D21   D(2,3,4,5)             -0.9558         estimate D2E/DX2                !
 ! D22   D(2,3,4,12)           179.6059         estimate D2E/DX2                !
 ! D23   D(6,3,4,5)           -177.3719         estimate D2E/DX2                !
 ! D24   D(6,3,4,12)             3.1898         estimate D2E/DX2                !
 ! D25   D(2,3,6,7)            -81.2022         Scan                            !
 ! D26   D(2,3,6,14)            41.6616         estimate D2E/DX2                !
 ! D27   D(2,3,6,15)           156.3638         estimate D2E/DX2                !
 ! D28   D(4,3,6,7)             94.6766         estimate D2E/DX2                !
 ! D29   D(4,3,6,14)          -142.4596         estimate D2E/DX2                !
 ! D30   D(4,3,6,15)           -27.7574         estimate D2E/DX2                !
 ! D31   D(3,4,5,1)              0.2261         estimate D2E/DX2                !
 ! D32   D(3,4,5,13)          -178.9842         estimate D2E/DX2                !
 ! D33   D(12,4,5,1)           179.5924         estimate D2E/DX2                !
 ! D34   D(12,4,5,13)            0.382          estimate D2E/DX2                !
 ! D35   D(3,6,7,8)            178.6324         estimate D2E/DX2                !
 ! D36   D(3,6,7,16)           -59.2996         estimate D2E/DX2                !
 ! D37   D(3,6,7,17)            56.3064         estimate D2E/DX2                !
 ! D38   D(14,6,7,8)            56.6            estimate D2E/DX2                !
 ! D39   D(14,6,7,16)          178.668          estimate D2E/DX2                !
 ! D40   D(14,6,7,17)          -65.726          estimate D2E/DX2                !
 ! D41   D(15,6,7,8)           -59.9786         estimate D2E/DX2                !
 ! D42   D(15,6,7,16)           62.0894         estimate D2E/DX2                !
 ! D43   D(15,6,7,17)          177.6953         estimate D2E/DX2                !
 ! D44   D(6,7,8,18)           179.8977         estimate D2E/DX2                !
 ! D45   D(6,7,8,19)           -60.1488         estimate D2E/DX2                !
 ! D46   D(6,7,8,20)            59.7927         estimate D2E/DX2                !
 ! D47   D(16,7,8,18)           58.6013         estimate D2E/DX2                !
 ! D48   D(16,7,8,19)          178.5548         estimate D2E/DX2                !
 ! D49   D(16,7,8,20)          -61.5036         estimate D2E/DX2                !
 ! D50   D(17,7,8,18)          -58.4178         estimate D2E/DX2                !
 ! D51   D(17,7,8,19)           61.5357         estimate D2E/DX2                !
 ! D52   D(17,7,8,20)         -178.5227         estimate D2E/DX2                !
 --------------------------------------------------------------------------------
 Trust Radius=3.00D-01 FncErr=1.00D-07 GrdErr=1.00D-06
 Number of optimizations in scan=   7
 Number of steps in this run=    123 maximum allowed number of steps=    132.
 GradGradGradGradGradGradGradGradGradGradGradGradGradGradGradGradGradGrad

                          Input orientation:                          
 ---------------------------------------------------------------------
 Center     Atomic      Atomic             Coordinates (Angstroms)
 Number     Number       Type             X           Y           Z
 ---------------------------------------------------------------------
      1          6           0        0.779000    0.587000   -0.130000
      2          6           0       -0.410000   -0.337000    0.142000
      3          7           0       -1.469000    0.488000    0.542000
      4          6           0       -1.064000    1.829000    0.518000
      5          6           0        0.218000    1.966000    0.144000
      6          6           0       -2.808000    0.033000    0.853000
      7          6           0       -3.702000   -0.196000   -0.375000
      8          6           0       -5.092000   -0.707000    0.007000
      9          6           0       -0.439000   -1.679000    0.026000
     10          1           0        1.140000    0.471000   -1.167000
     11          1           0        1.631000    0.338000    0.527000
     12          1           0       -1.783000    2.599000    0.799000
     13          1           0        0.769000    2.900000    0.063000
     14          1           0       -2.730000   -0.900000    1.439000
     15          1           0       -3.273000    0.780000    1.519000
     16          1           0       -3.787000    0.753000   -0.934000
     17          1           0       -3.207000   -0.912000   -1.051000
     18          1           0       -5.720000   -0.864000   -0.884000
     19          1           0       -5.033000   -1.669000    0.545000
     20          1           0       -5.620000    0.006000    0.664000
     21          1           0       -1.336000   -2.266000    0.226000
     22          1           0        0.460000   -2.217000   -0.275000
 ---------------------------------------------------------------------
                    Distance matrix (angstroms):
                    1          2          3          4          5
     1  C    0.000000
     2  C    1.530190   0.000000
     3  N    2.348380   1.400752   0.000000
     4  C    2.314977   2.293610   1.401029   0.000000
     5  C    1.513750   2.387090   2.277906   1.342449   0.000000
     6  C    3.760289   2.528404   1.447987   2.525743   3.660034
     7  C    4.555488   3.335331   2.508991   3.443417   4.506662
     8  C    6.013472   4.698537   3.852321   4.787191   5.946411
     9  C    2.577327   1.347316   2.454189   3.597048   3.705617
    10  H    1.104150   2.183769   3.118950   3.088852   2.191764
    11  H    1.104334   2.183926   3.103663   3.079965   2.189439
    12  H    3.387481   3.307094   2.149643   1.090331   2.198571
    13  H    2.321060   3.445933   3.325031   2.171164   1.087437
    14  H    4.121409   2.716906   2.078767   3.327347   4.310648
    15  H    4.378944   3.367579   2.072247   2.642363   3.935010
    16  H    4.639216   3.708100   2.760783   3.268151   4.321282
    17  H    4.356999   3.094686   2.741951   3.816712   4.630500
    18  H    6.701561   5.433829   4.683202   5.558434   6.657742
    19  H    6.270925   4.827915   4.165904   5.290529   6.398986
    20  H    6.474195   5.247307   4.180671   4.909356   6.180149
    21  H    3.569253   2.141395   2.775259   4.114398   4.509042
    22  H    2.825810   2.113099   3.421338   4.395627   4.210892
                    6          7          8          9         10
     6  C    0.000000
     7  C    1.536119   0.000000
     8  C    2.545579   1.529426   0.000000
     9  C    3.037603   3.606558   4.753478   0.000000
    10  H    4.456338   4.951476   6.450100   2.922155   0.000000
    11  H    4.461393   5.435039   6.823573   2.933290   1.768730
    12  H    2.763675   3.587877   4.744089   4.550291   4.115516
    13  H    4.651744   5.455905   6.882217   4.735808   2.747832
    14  H    1.104522   2.175085   2.768920   2.802158   4.862898
    15  H    1.103535   2.173443   2.793935   4.038228   5.175389
    16  H    2.161067   1.104675   2.172581   4.247979   4.940561
    17  H    2.162739   1.102115   2.171316   3.067579   4.563174
    18  H    3.507352   2.185779   1.101324   5.420451   6.994420
    19  H    2.818207   2.188079   1.103798   4.623234   6.753997
    20  H    2.818473   2.190673   1.103994   5.485347   7.019002
    21  H    2.800949   3.200634   4.072589   1.090494   3.944895
    22  H    4.124889   4.627816   5.760584   1.090067   2.912629
                   11         12         13         14         15
    11  H    0.000000
    12  H    4.103840   0.000000
    13  H    2.742660   2.673013   0.000000
    14  H    4.624144   3.680952   5.345688   0.000000
    15  H    5.022812   2.459118   4.790835   1.767385   0.000000
    16  H    5.626853   3.229090   5.134272   3.079089   2.506419
    17  H    5.240117   4.216325   5.619690   2.535305   3.077681
    18  H    7.581090   5.506798   7.561192   3.786519   3.803282
    19  H    6.959689   5.370553   7.400763   2.587355   3.169208
    20  H    7.259889   4.632973   7.039585   3.126269   2.615054
    21  H    3.959104   4.918980   5.580784   2.297947   3.834310
    22  H    2.922750   5.420183   5.137452   3.853360   5.112312
                   16         17         18         19         20
    16  H    0.000000
    17  H    1.767007   0.000000
    18  H    2.520650   2.519000   0.000000
    19  H    3.099361   2.540579   1.778211   0.000000
    20  H    2.543915   3.099438   1.778540   1.778863   0.000000
    21  H    4.058000   2.639069   4.734676   3.758454   4.868930
    22  H    5.224193   3.968890   6.355619   5.580838   6.541395
                   21         22
    21  H    0.000000
    22  H    1.865213   0.000000
 Stoichiometry    C8H13N
 Framework group  C1[X(C8H13N)]
 Deg. of freedom    60
 Full point group                 C1      NOp   1
 Largest Abelian subgroup         C1      NOp   1
 Largest concise Abelian subgroup C1      NOp   1
                         Standard orientation:                         
 ---------------------------------------------------------------------
 Center     Atomic      Atomic             Coordinates (Angstroms)
 Number     Number       Type             X           Y           Z
 ---------------------------------------------------------------------
      1          6           0        2.471965    0.316529    0.287968
      2          6           0        1.075144    0.834374   -0.061614
      3          7           0        0.288424   -0.294688   -0.323138
      4          6           0        1.048871   -1.457616   -0.143692
      5          6           0        2.316474   -1.186967    0.205739
      6          6           0       -1.122393   -0.269979   -0.648178
      7          6           0       -2.051929   -0.140102    0.567863
      8          6           0       -3.526851   -0.085219    0.166941
      9          6           0        0.674892    2.119812   -0.113672
     10          1           0        2.780708    0.659823    1.290951
     11          1           0        3.225444    0.703901   -0.420386
     12          1           0        0.572920   -2.425340   -0.304329
     13          1           0        3.104143   -1.914612    0.386374
     14          1           0       -1.302486    0.564998   -1.348426
     15          1           0       -1.358431   -1.195350   -1.201138
     16          1           0       -1.873974   -0.995723    1.243550
     17          1           0       -1.778537    0.765283    1.133717
     18          1           0       -4.178907    0.005983    1.049787
     19          1           0       -3.733511    0.778326   -0.488765
     20          1           0       -3.832893   -0.994392   -0.379453
     21          1           0       -0.348430    2.406280   -0.358467
     22          1           0        1.387943    2.918657    0.090415
 ---------------------------------------------------------------------
 Rotational constants (GHZ):      3.1441629      1.0197759      0.8267813
 Standard basis: CC-pVDZ (5D, 7F)
 There are   191 symmetry adapted basis functions of A   symmetry.
 Integral buffers will be    131072 words long.
 Raffenetti 2 integral format.
 Two-electron integral symmetry is turned on.
   191 basis functions,   388 primitive gaussians,   200 cartesian basis functions
    34 alpha electrons       34 beta electrons
       nuclear repulsion energy       442.5730450962 Hartrees.
 NAtoms=   22 NActive=   22 NUniq=   22 SFac= 1.00D+00 NAtFMM=   50 NAOKFM=F Big=F
 One-electron integrals computed using PRISM.
 NBasis=   191 RedAO= T  NBF=   191
 NBsUse=   191 1.00D-06 NBFU=   191
 Harris functional with IExCor=  402 diagonalized for initial guess.
 ExpMin= 1.22D-01 ExpMax= 9.05D+03 ExpMxC= 3.09D+02 IAcc=1 IRadAn=         1 AccDes= 0.00D+00
 HarFok:  IExCor=  402 AccDes= 0.00D+00 IRadAn=         1 IDoV= 1
 ScaDFX=  1.000000  1.000000  1.000000  1.000000
 FoFCou: FMM=F IPFlag=           0 FMFlag=      100000 FMFlg1=           0
         NFxFlg=           0 DoJE=T BraDBF=F KetDBF=T FulRan=T
         Omega=  0.000000  0.000000  1.000000  0.000000  0.000000 ICntrl=     500 IOpCl=  0
         NMat0=    1 NMatS0=    1 NMatT0=    0 NMatD0=    1 NMtDS0=    0 NMtDT0=    0
         I1Cent=           4 NGrid=           0.
 Petite list used in FoFCou.
 Initial guess orbital symmetries:
       Occupied  (A) (A) (A) (A) (A) (A) (A) (A) (A) (A) (A) (A)
                 (A) (A) (A) (A) (A) (A) (A) (A) (A) (A) (A) (A)
                 (A) (A) (A) (A) (A) (A) (A) (A) (A) (A)
       Virtual   (A) (A) (A) (A) (A) (A) (A) (A) (A) (A) (A) (A)
                 (A) (A) (A) (A) (A) (A) (A) (A) (A) (A) (A) (A)
                 (A) (A) (A) (A) (A) (A) (A) (A) (A) (A) (A) (A)
                 (A) (A) (A) (A) (A) (A) (A) (A) (A) (A) (A) (A)
                 (A) (A) (A) (A) (A) (A) (A) (A) (A) (A) (A) (A)
                 (A) (A) (A) (A) (A) (A) (A) (A) (A) (A) (A) (A)
                 (A) (A) (A) (A) (A) (A) (A) (A) (A) (A) (A) (A)
                 (A) (A) (A) (A) (A) (A) (A) (A) (A) (A) (A) (A)
                 (A) (A) (A) (A) (A) (A) (A) (A) (A) (A) (A) (A)
                 (A) (A) (A) (A) (A) (A) (A) (A) (A) (A) (A) (A)
                 (A) (A) (A) (A) (A) (A) (A) (A) (A) (A) (A) (A)
                 (A) (A) (A) (A) (A) (A) (A) (A) (A) (A) (A) (A)
                 (A) (A) (A) (A) (A) (A) (A) (A) (A) (A) (A) (A)
                 (A)
 The electronic state of the initial guess is 1-A.
 Requested convergence on RMS density matrix=1.00D-08 within 128 cycles.
 Requested convergence on MAX density matrix=1.00D-06.
 Requested convergence on             energy=1.00D-06.
 No special actions if energy rises.
 Keep R1 ints in memory in canonical form, NReq=206404496.
 Integral accuracy reduced to 1.0D-05 until final iterations.
 Initial convergence to 1.0D-05 achieved.  Increase integral accuracy.
 SCF Done:  E(RB3LYP) =  -367.407838485     A.U. after   14 cycles
             Convg  =    0.6428D-08             -V/T =  2.0079

 **********************************************************************

            Population analysis using the SCF density.

 **********************************************************************

 Orbital symmetries:
       Occupied  (A) (A) (A) (A) (A) (A) (A) (A) (A) (A) (A) (A)
                 (A) (A) (A) (A) (A) (A) (A) (A) (A) (A) (A) (A)
                 (A) (A) (A) (A) (A) (A) (A) (A) (A) (A)
       Virtual   (A) (A) (A) (A) (A) (A) (A) (A) (A) (A) (A) (A)
                 (A) (A) (A) (A) (A) (A) (A) (A) (A) (A) (A) (A)
                 (A) (A) (A) (A) (A) (A) (A) (A) (A) (A) (A) (A)
                 (A) (A) (A) (A) (A) (A) (A) (A) (A) (A) (A) (A)
                 (A) (A) (A) (A) (A) (A) (A) (A) (A) (A) (A) (A)
                 (A) (A) (A) (A) (A) (A) (A) (A) (A) (A) (A) (A)
                 (A) (A) (A) (A) (A) (A) (A) (A) (A) (A) (A) (A)
                 (A) (A) (A) (A) (A) (A) (A) (A) (A) (A) (A) (A)
                 (A) (A) (A) (A) (A) (A) (A) (A) (A) (A) (A) (A)
                 (A) (A) (A) (A) (A) (A) (A) (A) (A) (A) (A) (A)
                 (A) (A) (A) (A) (A) (A) (A) (A) (A) (A) (A) (A)
                 (A) (A) (A) (A) (A) (A) (A) (A) (A) (A) (A) (A)
                 (A) (A) (A) (A) (A) (A) (A) (A) (A) (A) (A) (A)
                 (A)
 The electronic state is 1-A.
 Alpha  occ. eigenvalues --  -14.35092 -10.22426 -10.21762 -10.21459 -10.19171
 Alpha  occ. eigenvalues --  -10.18778 -10.18486 -10.16860 -10.15253  -0.96580
 Alpha  occ. eigenvalues --   -0.81033  -0.76087  -0.75543  -0.68218  -0.65177
 Alpha  occ. eigenvalues --   -0.60267  -0.57916  -0.52812  -0.49634  -0.47079
 Alpha  occ. eigenvalues --   -0.44639  -0.43549  -0.42538  -0.41679  -0.39718
 Alpha  occ. eigenvalues --   -0.38849  -0.37276  -0.36753  -0.35771  -0.34206
 Alpha  occ. eigenvalues --   -0.33389  -0.32115  -0.26065  -0.17147
 Alpha virt. eigenvalues --    0.01150   0.05047   0.06714   0.07416   0.08286
 Alpha virt. eigenvalues --    0.09655   0.10734   0.11023   0.13082   0.13635
 Alpha virt. eigenvalues --    0.14153   0.14933   0.15174   0.15477   0.16437
 Alpha virt. eigenvalues --    0.19607   0.20734   0.22221   0.23739   0.24927
 Alpha virt. eigenvalues --    0.26962   0.34616   0.35798   0.38939   0.39895
 Alpha virt. eigenvalues --    0.41023   0.42002   0.43007   0.45287   0.46782
 Alpha virt. eigenvalues --    0.48299   0.48625   0.49691   0.50978   0.52615
 Alpha virt. eigenvalues --    0.54302   0.56206   0.56785   0.57014   0.59217
 Alpha virt. eigenvalues --    0.60760   0.61998   0.63005   0.63843   0.64445
 Alpha virt. eigenvalues --    0.65061   0.65382   0.65819   0.66319   0.67197
 Alpha virt. eigenvalues --    0.68001   0.69633   0.70496   0.71593   0.72020
 Alpha virt. eigenvalues --    0.73118   0.78650   0.81492   0.82470   0.84579
 Alpha virt. eigenvalues --    0.86461   0.90061   0.90965   0.94979   0.97195
 Alpha virt. eigenvalues --    1.00456   1.01118   1.03539   1.04713   1.08502
 Alpha virt. eigenvalues --    1.09221   1.12124   1.13055   1.13920   1.20365
 Alpha virt. eigenvalues --    1.20821   1.22361   1.26830   1.33061   1.34172
 Alpha virt. eigenvalues --    1.35473   1.36843   1.38816   1.41850   1.41901
 Alpha virt. eigenvalues --    1.46940   1.49419   1.49585   1.50945   1.53280
 Alpha virt. eigenvalues --    1.54033   1.56234   1.59095   1.60425   1.61054
 Alpha virt. eigenvalues --    1.62097   1.63110   1.63571   1.64921   1.66062
 Alpha virt. eigenvalues --    1.67742   1.67903   1.68595   1.69786   1.71026
 Alpha virt. eigenvalues --    1.71427   1.72347   1.72564   1.75725   1.76597
 Alpha virt. eigenvalues --    1.78087   1.80478   1.82360   1.83742   1.84498
 Alpha virt. eigenvalues --    1.87997   1.88232   1.92163   1.93579   1.94330
 Alpha virt. eigenvalues --    1.97857   1.98626   1.99698   2.03961   2.04395
 Alpha virt. eigenvalues --    2.05799   2.09627   2.10342   2.13866   2.15595
 Alpha virt. eigenvalues --    2.17587   2.18102   2.21818   2.24309   2.27859
 Alpha virt. eigenvalues --    2.29871   2.31314   2.33145   2.38568   2.39614
 Alpha virt. eigenvalues --    2.41401   2.43130   2.45514   2.46410   2.47707
 Alpha virt. eigenvalues --    2.51825   2.54322   2.56167   2.58102   2.62390
 Alpha virt. eigenvalues --    2.63591   2.67587   2.70212   2.78244   2.87290
 Alpha virt. eigenvalues --    3.05637   3.21415
          Condensed to atoms (all electrons):
              1          2          3          4          5          6
     1  C    4.671288   0.371316  -0.067557  -0.054229   0.382297   0.011347
     2  C    0.371316   4.703106   0.424729  -0.087635  -0.036330  -0.055918
     3  N   -0.067557   0.424729   6.311934   0.391808  -0.040441   0.376913
     4  C   -0.054229  -0.087635   0.391808   4.679588   0.614946  -0.053134
     5  C    0.382297  -0.036330  -0.040441   0.614946   4.887466   0.004859
     6  C    0.011347  -0.055918   0.376913  -0.053134   0.004859   4.560571
     7  C   -0.000674  -0.005074  -0.046288  -0.001447   0.000003   0.441404
     8  C    0.000005   0.000003   0.004049  -0.000103  -0.000002  -0.041161
     9  C   -0.074820   0.682684  -0.058415   0.006584   0.006274  -0.007731
    10  H    0.353184  -0.008066   0.002116  -0.001169  -0.016499  -0.000170
    11  H    0.351277  -0.006716   0.001964  -0.001897  -0.016036  -0.000153
    12  H    0.010378   0.001230  -0.034507   0.393335  -0.049840  -0.001766
    13  H   -0.039861   0.005498   0.004516  -0.035391   0.398063  -0.000143
    14  H    0.000513  -0.009655  -0.018316   0.006490  -0.000835   0.357758
    15  H   -0.000901   0.007463  -0.015435  -0.006890   0.002071   0.358283
    16  H    0.000146  -0.000458  -0.000606   0.003357  -0.000647  -0.025408
    17  H   -0.000436   0.005123  -0.005891  -0.000654   0.000326  -0.025173
    18  H    0.000000  -0.000011  -0.000191  -0.000001   0.000000   0.004534
    19  H    0.000001  -0.000015   0.000184   0.000014  -0.000001  -0.005321
    20  H   -0.000001   0.000017   0.000217  -0.000011   0.000001  -0.004689
    21  H    0.008768   0.023807  -0.013748  -0.000182  -0.000472   0.006034
    22  H   -0.016164   0.013799   0.005265  -0.000027   0.000636  -0.000537
              7          8          9         10         11         12
     1  C   -0.000674   0.000005  -0.074820   0.353184   0.351277   0.010378
     2  C   -0.005074   0.000003   0.682684  -0.008066  -0.006716   0.001230
     3  N   -0.046288   0.004049  -0.058415   0.002116   0.001964  -0.034507
     4  C   -0.001447  -0.000103   0.006584  -0.001169  -0.001897   0.393335
     5  C    0.000003  -0.000002   0.006274  -0.016499  -0.016036  -0.049840
     6  C    0.441404  -0.041161  -0.007731  -0.000170  -0.000153  -0.001766
     7  C    4.619472   0.426625  -0.001085   0.000037   0.000009  -0.000777
     8  C    0.426625   4.526194  -0.000285   0.000000   0.000000  -0.000052
     9  C   -0.001085  -0.000285   4.774731  -0.003722  -0.003299  -0.000735
    10  H    0.000037   0.000000  -0.003722   0.668353  -0.038363  -0.000240
    11  H    0.000009   0.000000  -0.003299  -0.038363   0.668640  -0.000263
    12  H   -0.000777  -0.000052  -0.000735  -0.000240  -0.000263   0.700133
    13  H    0.000011   0.000000  -0.000241  -0.000346  -0.000383  -0.007162
    14  H   -0.044447  -0.000338   0.008504   0.000033  -0.000110   0.000385
    15  H   -0.035917  -0.002522   0.000304   0.000022   0.000011   0.002699
    16  H    0.366848  -0.022536  -0.000040  -0.000016   0.000002   0.001101
    17  H    0.378515  -0.023599   0.004967  -0.000063   0.000024  -0.000071
    18  H   -0.006954   0.376703   0.000015   0.000000   0.000000   0.000001
    19  H   -0.025591   0.389330   0.000020   0.000000   0.000000   0.000005
    20  H   -0.027581   0.389001  -0.000007   0.000000   0.000000  -0.000020
    21  H   -0.002394  -0.000018   0.338380  -0.000055  -0.000109  -0.000025
    22  H    0.000222   0.000001   0.360396   0.001572   0.001499   0.000019
             13         14         15         16         17         18
     1  C   -0.039861   0.000513  -0.000901   0.000146  -0.000436   0.000000
     2  C    0.005498  -0.009655   0.007463  -0.000458   0.005123  -0.000011
     3  N    0.004516  -0.018316  -0.015435  -0.000606  -0.005891  -0.000191
     4  C   -0.035391   0.006490  -0.006890   0.003357  -0.000654  -0.000001
     5  C    0.398063  -0.000835   0.002071  -0.000647   0.000326   0.000000
     6  C   -0.000143   0.357758   0.358283  -0.025408  -0.025173   0.004534
     7  C    0.000011  -0.044447  -0.035917   0.366848   0.378515  -0.006954
     8  C    0.000000  -0.000338  -0.002522  -0.022536  -0.023599   0.376703
     9  C   -0.000241   0.008504   0.000304  -0.000040   0.004967   0.000015
    10  H   -0.000346   0.000033   0.000022  -0.000016  -0.000063   0.000000
    11  H   -0.000383  -0.000110   0.000011   0.000002   0.000024   0.000000
    12  H   -0.007162   0.000385   0.002699   0.001101  -0.000071   0.000001
    13  H    0.709070   0.000016  -0.000003   0.000003   0.000001   0.000000
    14  H    0.000016   0.710573  -0.032723   0.010404  -0.013615  -0.000268
    15  H   -0.000003  -0.032723   0.714064  -0.011844   0.009675  -0.000240
    16  H    0.000003   0.010404  -0.011844   0.717495  -0.041444  -0.005180
    17  H    0.000001  -0.013615   0.009675  -0.041444   0.692318  -0.004724
    18  H    0.000000  -0.000268  -0.000240  -0.005180  -0.004724   0.677610
    19  H    0.000000   0.007848  -0.001798   0.008754  -0.008275  -0.029630
    20  H    0.000000  -0.001491   0.007620  -0.008651   0.008296  -0.030560
    21  H    0.000013   0.002752  -0.000101  -0.000083   0.002047  -0.000020
    22  H   -0.000006  -0.000007  -0.000002   0.000001  -0.000104   0.000000
             19         20         21         22
     1  C    0.000001  -0.000001   0.008768  -0.016164
     2  C   -0.000015   0.000017   0.023807   0.013799
     3  N    0.000184   0.000217  -0.013748   0.005265
     4  C    0.000014  -0.000011  -0.000182  -0.000027
     5  C   -0.000001   0.000001  -0.000472   0.000636
     6  C   -0.005321  -0.004689   0.006034  -0.000537
     7  C   -0.025591  -0.027581  -0.002394   0.000222
     8  C    0.389330   0.389001  -0.000018   0.000001
     9  C    0.000020  -0.000007   0.338380   0.360396
    10  H    0.000000   0.000000  -0.000055   0.001572
    11  H    0.000000   0.000000  -0.000109   0.001499
    12  H    0.000005  -0.000020  -0.000025   0.000019
    13  H    0.000000   0.000000   0.000013  -0.000006
    14  H    0.007848  -0.001491   0.002752  -0.000007
    15  H   -0.001798   0.007620  -0.000101  -0.000002
    16  H    0.008754  -0.008651  -0.000083   0.000001
    17  H   -0.008275   0.008296   0.002047  -0.000104
    18  H   -0.029630  -0.030560  -0.000020   0.000000
    19  H    0.676515  -0.032596  -0.000016   0.000000
    20  H   -0.032596   0.683729   0.000000   0.000000
    21  H   -0.000016   0.000000   0.697952  -0.056751
    22  H    0.000000   0.000000  -0.056751   0.699323
 Mulliken atomic charges:
              1
     1  C    0.094121
     2  C   -0.028898
     3  N   -0.222301
     4  C    0.146648
     5  C   -0.135839
     6  C    0.099600
     7  C   -0.034920
     8  C   -0.021295
     9  C   -0.032479
    10  H    0.043393
    11  H    0.043902
    12  H   -0.013828
    13  H   -0.033656
    14  H    0.016529
    15  H    0.006164
    16  H    0.008802
    17  H    0.022755
    18  H    0.018916
    19  H    0.020572
    20  H    0.016725
    21  H   -0.005779
    22  H   -0.009135
 Sum of Mulliken atomic charges =   0.00000
 Mulliken charges with hydrogens summed into heavy atoms:
              1
     1  C    0.181417
     2  C   -0.028898
     3  N   -0.222301
     4  C    0.132820
     5  C   -0.169495
     6  C    0.122292
     7  C   -0.003362
     8  C    0.034919
     9  C   -0.047393
 Sum of Mulliken charges with hydrogens summed into heavy atoms =   0.00000
 Electronic spatial extent (au):  <R**2>=           1480.2413
 Charge=              0.0000 electrons
 Dipole moment (field-independent basis, Debye):
    X=             -0.7955    Y=             -1.0350    Z=             -0.0615  Tot=              1.3068
 Quadrupole moment (field-independent basis, Debye-Ang):
   XX=            -53.2135   YY=            -55.9437   ZZ=            -58.4904
   XY=              0.4812   XZ=              1.3765   YZ=              0.6751
 Traceless Quadrupole moment (field-independent basis, Debye-Ang):
   XX=              2.6691   YY=             -0.0612   ZZ=             -2.6079
   XY=              0.4812   XZ=              1.3765   YZ=              0.6751
 Octapole moment (field-independent basis, Debye-Ang**2):
  XXX=              7.4502  YYY=            -10.0189  ZZZ=              0.5672  XYY=             -1.1278
  XXY=              1.8325  XXZ=              3.4908  XZZ=             -3.8549  YZZ=             -1.0555
  YYZ=             -0.8416  XYZ=              0.4380
 Hexadecapole moment (field-independent basis, Debye-Ang**3):
 XXXX=          -1431.0392 YYYY=           -465.7220 ZZZZ=           -140.0776 XXXY=              0.3078
 XXXZ=              0.8464 YYYX=             -2.3004 YYYZ=              4.7294 ZZZX=              0.9590
 ZZZY=              2.6908 XXYY=           -312.3899 XXZZ=           -263.8486 YYZZ=           -110.8440
 XXYZ=             -1.4650 YYXZ=              5.8304 ZZXY=              2.4817
 N-N= 4.425730450962D+02 E-N=-1.735929689389D+03  KE= 3.645397719444D+02
 Calling FoFJK, ICntrl=      2127 FMM=F ISym2X=0 I1Cent= 0 IOpClX= 0 NMat=1 NMatS=1 NMatT=0.
 ***** Axes restored to original set *****
 -------------------------------------------------------------------
 Center     Atomic                   Forces (Hartrees/Bohr)
 Number     Number              X              Y              Z
 -------------------------------------------------------------------
      1        6          -0.000219942   -0.000315975   -0.000096047
      2        6           0.000451881    0.000027586   -0.000045448
      3        7          -0.000707552    0.000336913    0.000111585
      4        6          -0.000873543    0.000168132    0.000328812
      5        6           0.000798151    0.000567492   -0.000193269
      6        6           0.000523157    0.000253222    0.000236481
      7        6          -0.000424846    0.000667872    0.000011836
      8        6          -0.000206470   -0.000216482    0.000106604
      9        6          -0.000125007   -0.000583628   -0.000081017
     10        1           0.000064964   -0.000005292   -0.000137077
     11        1           0.000160974   -0.000024900    0.000143344
     12        1           0.000195196   -0.000208703   -0.000077095
     13        1          -0.000227206   -0.000289706    0.000051969
     14        1          -0.000017629   -0.000126609    0.000109405
     15        1           0.000014224   -0.000097886   -0.000074287
     16        1           0.000063203   -0.000175306    0.000036994
     17        1           0.000240965   -0.000320954   -0.000312804
     18        1          -0.000006223    0.000007017   -0.000026980
     19        1           0.000002719    0.000112599   -0.000032935
     20        1           0.000125198   -0.000026934   -0.000041861
     21        1           0.000217755    0.000195217   -0.000028216
     22        1          -0.000049969    0.000056328    0.000010005
 -------------------------------------------------------------------
 Cartesian Forces:  Max     0.000873543 RMS     0.000278810

 GradGradGradGradGradGradGradGradGradGradGradGradGradGradGradGradGradGrad
 Berny optimization.
 Internal  Forces:  Max     0.000652233 RMS     0.000134242
 Search for a local minimum.
 Step number   1 out of a maximum of  123 on scan point     1 out of     7
 All quantities printed in internal units (Hartrees-Bohrs-Radians)
 Mixed Optimization -- En-DIIS/RFO-DIIS
 Second derivative matrix not updated -- first step.
 ITU=  0
     Eigenvalues ---    0.00288   0.00377   0.00704   0.01326   0.01340
     Eigenvalues ---    0.01555   0.01809   0.02375   0.02786   0.02786
     Eigenvalues ---    0.03163   0.03532   0.04810   0.05085   0.05358
     Eigenvalues ---    0.05443   0.05464   0.06980   0.08269   0.08520
     Eigenvalues ---    0.09549   0.09839   0.11898   0.12157   0.15997
     Eigenvalues ---    0.15999   0.16000   0.16000   0.16000   0.16000
     Eigenvalues ---    0.16000   0.21891   0.21966   0.22150   0.24087
     Eigenvalues ---    0.24922   0.25000   0.28729   0.28866   0.29476
     Eigenvalues ---    0.30183   0.33170   0.33187   0.33207   0.33227
     Eigenvalues ---    0.33244   0.33266   0.33294   0.33449   0.33536
     Eigenvalues ---    0.34756   0.34774   0.34805   0.35111   0.38510
     Eigenvalues ---    0.42964   0.43909   0.54197   0.555961000.00000
     Eigenvalues --- 1000.000001000.000001000.000001000.000001000.00000
     Eigenvalues --- 1000.000001000.000001000.000001000.000001000.00000
     Eigenvalues --- 1000.000001000.000001000.000001000.000001000.00000
     Eigenvalues --- 1000.000001000.000001000.000001000.000001000.00000
     Eigenvalues --- 1000.000001000.000001000.000001000.000001000.00000
     Eigenvalues --- 1000.000001000.000001000.000001000.000001000.00000
     Eigenvalues --- 1000.000001000.000001000.000001000.000001000.00000
     Eigenvalues --- 1000.000001000.000001000.000001000.000001000.00000
     Eigenvalues --- 1000.000001000.000001000.000001000.000001000.00000
     Eigenvalues --- 1000.000001000.000001000.000001000.000001000.00000
     Eigenvalues --- 1000.000001000.000001000.00000
 RFO step:  Lambda=-5.66796349D-06 EMin= 2.88166409D-03
 Linear search not attempted -- first point.
 Iteration  1 RMS(Cart)=  0.00064410 RMS(Int)=  0.00000030
 Iteration  2 RMS(Cart)=  0.00000031 RMS(Int)=  0.00000006
 Iteration  1 RMS(Cart)=  0.00000000 RMS(Int)=  0.00000000
 Variable       Old X    -DE/DX   Delta X   Delta X   Delta X     New X
                                 (Linear)    (Quad)   (Total)
    R1        2.89164  -0.00007   0.00000  -0.00032  -0.00032   2.89132
    R2        2.86057   0.00028   0.00000   0.00090   0.00090   2.86147
    R3        2.08654   0.00015   0.00000   0.00045   0.00045   2.08699
    R4        2.08689   0.00022   0.00000   0.00065   0.00065   2.08754
    R5        2.64704   0.00060   0.00000   0.00130   0.00130   2.64834
    R6        2.54606   0.00034   0.00000   0.00060   0.00060   2.54666
    R7        2.64756  -0.00005   0.00000  -0.00008  -0.00008   2.64748
    R8        2.73630  -0.00031   0.00000  -0.00082  -0.00082   2.73548
    R9        2.53686   0.00065   0.00000   0.00118   0.00118   2.53804
   R10        2.06043  -0.00030   0.00000  -0.00085  -0.00085   2.05958
   R11        2.05496  -0.00037   0.00000  -0.00105  -0.00105   2.05391
   R12        2.90284   0.00033   0.00000   0.00115   0.00115   2.90399
   R13        2.08724   0.00016   0.00000   0.00049   0.00049   2.08773
   R14        2.08538  -0.00012   0.00000  -0.00035  -0.00035   2.08503
   R15        2.89020   0.00012   0.00000   0.00040   0.00040   2.89060
   R16        2.08753  -0.00018   0.00000  -0.00053  -0.00053   2.08701
   R17        2.08270   0.00051   0.00000   0.00153   0.00153   2.08422
   R18        2.08120   0.00003   0.00000   0.00008   0.00008   2.08128
   R19        2.08588  -0.00011   0.00000  -0.00034  -0.00034   2.08553
   R20        2.08625  -0.00011   0.00000  -0.00032  -0.00032   2.08593
   R21        2.06074  -0.00029   0.00000  -0.00083  -0.00083   2.05990
   R22        2.05993  -0.00007   0.00000  -0.00021  -0.00021   2.05972
    A1        1.80282   0.00004   0.00000   0.00005   0.00005   1.80287
    A2        1.93644   0.00001   0.00000   0.00029   0.00029   1.93673
    A3        1.93647  -0.00001   0.00000  -0.00005  -0.00005   1.93642
    A4        1.96804  -0.00001   0.00000   0.00010   0.00010   1.96814
    A5        1.96453  -0.00004   0.00000  -0.00041  -0.00041   1.96412
    A6        1.85753   0.00001   0.00000   0.00003   0.00003   1.85755
    A7        1.85726   0.00004   0.00000   0.00008   0.00008   1.85734
    A8        2.21791  -0.00008   0.00000  -0.00025  -0.00025   2.21765
    A9        2.20801   0.00003   0.00000   0.00018   0.00018   2.20819
   A10        1.91803   0.00002   0.00000   0.00013   0.00013   1.91816
   A11        2.18386  -0.00004   0.00000  -0.00017  -0.00017   2.18370
   A12        2.17945   0.00002   0.00000   0.00004   0.00004   2.17949
   A13        1.95898  -0.00009   0.00000  -0.00025  -0.00025   1.95873
   A14        2.07249   0.00005   0.00000   0.00014   0.00014   2.07263
   A15        2.25167   0.00004   0.00000   0.00012   0.00012   2.25179
   A16        1.88744  -0.00001   0.00000   0.00001   0.00001   1.88745
   A17        2.19097   0.00006   0.00000   0.00034   0.00034   2.19131
   A18        2.20469  -0.00005   0.00000  -0.00035  -0.00035   2.20434
   A19        1.99690  -0.00010   0.00000  -0.00044  -0.00044   1.99646
   A20        1.89028   0.00005   0.00000   0.00045   0.00045   1.89073
   A21        1.88239   0.00006   0.00000   0.00027   0.00027   1.88265
   A22        1.91697   0.00003   0.00000   0.00020   0.00020   1.91717
   A23        1.91574  -0.00001   0.00000  -0.00028  -0.00028   1.91545
   A24        1.85601  -0.00002   0.00000  -0.00017  -0.00017   1.85584
   A25        1.95959   0.00000   0.00000   0.00009   0.00009   1.95968
   A26        1.89784   0.00001   0.00000   0.00042   0.00042   1.89826
   A27        1.90265  -0.00002   0.00000  -0.00050  -0.00050   1.90215
   A28        1.92142   0.00003   0.00000   0.00068   0.00068   1.92210
   A29        1.92232   0.00000   0.00000  -0.00028  -0.00028   1.92204
   A30        1.85697  -0.00002   0.00000  -0.00044  -0.00044   1.85653
   A31        1.94314   0.00001   0.00000   0.00018   0.00018   1.94332
   A32        1.94373   0.00001   0.00000   0.00009   0.00009   1.94382
   A33        1.94714  -0.00012   0.00000  -0.00091  -0.00091   1.94623
   A34        1.87608   0.00002   0.00000   0.00036   0.00036   1.87644
   A35        1.87634   0.00006   0.00000   0.00034   0.00034   1.87668
   A36        1.87378   0.00004   0.00000  -0.00001  -0.00001   1.87377
   A37        2.13895  -0.00005   0.00000  -0.00033  -0.00033   2.13862
   A38        2.09165   0.00000   0.00000   0.00001   0.00001   2.09167
   A39        2.05258   0.00005   0.00000   0.00032   0.00032   2.05289
    D1       -0.01815   0.00001   0.00000   0.00030   0.00030  -0.01785
    D2        3.12669   0.00000   0.00000  -0.00036  -0.00036   3.12633
    D3       -2.13128   0.00000   0.00000   0.00001   0.00001  -2.13127
    D4        1.01356  -0.00001   0.00000  -0.00065  -0.00065   1.01291
    D5        2.09083  -0.00001   0.00000  -0.00018  -0.00018   2.09066
    D6       -1.04751  -0.00002   0.00000  -0.00084  -0.00084  -1.04835
    D7        0.00883  -0.00001   0.00000   0.00005   0.00005   0.00887
    D8        3.13677  -0.00001   0.00000  -0.00024  -0.00024   3.13653
    D9        2.10040   0.00002   0.00000   0.00047   0.00047   2.10087
   D10       -1.05484   0.00002   0.00000   0.00018   0.00018  -1.05466
   D11       -2.08098   0.00000   0.00000   0.00028   0.00028  -2.08070
   D12        1.04696  -0.00001   0.00000  -0.00001  -0.00001   1.04696
   D13        0.02140  -0.00001   0.00000  -0.00053  -0.00053   0.02087
   D14        3.10025  -0.00001   0.00000  -0.00038  -0.00038   3.09987
   D15       -3.12341   0.00000   0.00000   0.00012   0.00012  -3.12330
   D16       -0.04457   0.00000   0.00000   0.00027   0.00027  -0.04429
   D17       -3.12558  -0.00001   0.00000  -0.00030  -0.00030  -3.12587
   D18        0.01977   0.00001   0.00000   0.00043   0.00043   0.02020
   D19        0.01989  -0.00003   0.00000  -0.00108  -0.00108   0.01881
   D20       -3.11795  -0.00001   0.00000  -0.00036  -0.00036  -3.11831
   D21       -0.01668   0.00001   0.00000   0.00061   0.00061  -0.01607
   D22        3.13471   0.00001   0.00000   0.00016   0.00016   3.13487
   D23       -3.09572   0.00001   0.00000   0.00046   0.00046  -3.09526
   D24        0.05567   0.00000   0.00000   0.00001   0.00001   0.05568
   D25       -1.41725  -0.00002   0.00000   0.00000   0.00000  -1.41725
   D26        0.72713  -0.00001   0.00000   0.00029   0.00029   0.72743
   D27        2.72906   0.00002   0.00000   0.00046   0.00046   2.72953
   D28        1.65242  -0.00001   0.00000   0.00018   0.00018   1.65260
   D29       -2.48639   0.00000   0.00000   0.00047   0.00047  -2.48592
   D30       -0.48446   0.00003   0.00000   0.00065   0.00065  -0.48381
   D31        0.00395   0.00000   0.00000  -0.00039  -0.00039   0.00356
   D32       -3.12386   0.00000   0.00000  -0.00010  -0.00010  -3.12396
   D33        3.13448   0.00001   0.00000   0.00012   0.00012   3.13460
   D34        0.00667   0.00001   0.00000   0.00041   0.00041   0.00708
   D35        3.11772  -0.00001   0.00000  -0.00017  -0.00017   3.11756
   D36       -1.03497   0.00004   0.00000   0.00105   0.00105  -1.03393
   D37        0.98273   0.00000   0.00000   0.00048   0.00048   0.98321
   D38        0.98786  -0.00003   0.00000  -0.00059  -0.00059   0.98726
   D39        3.11834   0.00002   0.00000   0.00062   0.00062   3.11896
   D40       -1.14714  -0.00001   0.00000   0.00005   0.00005  -1.14708
   D41       -1.04682  -0.00002   0.00000  -0.00034  -0.00034  -1.04717
   D42        1.08366   0.00003   0.00000   0.00087   0.00087   1.08453
   D43        3.10137   0.00000   0.00000   0.00031   0.00031   3.10167
   D44        3.13981   0.00001   0.00000   0.00052   0.00052   3.14033
   D45       -1.04980   0.00004   0.00000   0.00115   0.00115  -1.04864
   D46        1.04358   0.00001   0.00000   0.00059   0.00059   1.04417
   D47        1.02279  -0.00003   0.00000  -0.00056  -0.00056   1.02223
   D48        3.11637   0.00001   0.00000   0.00008   0.00008   3.11645
   D49       -1.07344  -0.00002   0.00000  -0.00049  -0.00049  -1.07393
   D50       -1.01958  -0.00002   0.00000  -0.00025  -0.00025  -1.01984
   D51        1.07400   0.00002   0.00000   0.00038   0.00038   1.07438
   D52       -3.11581  -0.00001   0.00000  -0.00019  -0.00019  -3.11600
         Item               Value     Threshold  Converged?
 Maximum Force            0.000652     0.000450     NO 
 RMS     Force            0.000135     0.000300     YES
 Maximum Displacement     0.002096     0.001800     NO 
 RMS     Displacement     0.000644     0.001200     YES
 Predicted change in Energy=-2.834029D-06
 GradGradGradGradGradGradGradGradGradGradGradGradGradGradGradGradGradGrad

                          Input orientation:                          
 ---------------------------------------------------------------------
 Center     Atomic      Atomic             Coordinates (Angstroms)
 Number     Number       Type             X           Y           Z
 ---------------------------------------------------------------------
      1          6           0        0.778757    0.586707   -0.130566
      2          6           0       -0.410001   -0.337100    0.142186
      3          7           0       -1.469394    0.488344    0.542644
      4          6           0       -1.064453    1.829323    0.518861
      5          6           0        0.217907    1.966218    0.143808
      6          6           0       -2.807883    0.033308    0.853778
      7          6           0       -3.701945   -0.195592   -0.374955
      8          6           0       -5.092133   -0.707096    0.006534
      9          6           0       -0.438953   -1.679385    0.025760
     10          1           0        1.139586    0.470621   -1.167867
     11          1           0        1.631225    0.337876    0.526473
     12          1           0       -1.783002    2.599022    0.800098
     13          1           0        0.768437    2.899847    0.062763
     14          1           0       -2.730138   -0.899810    1.440109
     15          1           0       -3.273171    0.780157    1.519440
     16          1           0       -3.786277    0.752803   -0.934529
     17          1           0       -3.206174   -0.912344   -1.050914
     18          1           0       -5.719845   -0.864493   -0.884650
     19          1           0       -5.033112   -1.668532    0.545168
     20          1           0       -5.619835    0.006343    0.663016
     21          1           0       -1.335466   -2.266033    0.226572
     22          1           0        0.459870   -2.217183   -0.275729
 ---------------------------------------------------------------------
                    Distance matrix (angstroms):
                    1          2          3          4          5
     1  C    0.000000
     2  C    1.530020   0.000000
     3  N    2.348844   1.401441   0.000000
     4  C    2.315874   2.294250   1.400989   0.000000
     5  C    1.514227   2.387372   2.278193   1.343075   0.000000
     6  C    3.760209   2.528518   1.447555   2.525349   3.660000
     7  C    4.555043   3.335320   2.508793   3.443190   4.506416
     8  C    6.013325   4.698687   3.852367   4.787286   5.946593
     9  C    2.577291   1.347636   2.455204   3.597976   3.706187
    10  H    1.104386   2.184004   3.119766   3.090131   2.192440
    11  H    1.104679   2.184003   3.104309   3.080771   2.189839
    12  H    3.387943   3.307385   2.149324   1.089882   2.198817
    13  H    2.321227   3.445700   3.324683   2.171067   1.086883
    14  H    4.121784   2.717404   2.078916   3.327368   4.311088
    15  H    4.379277   3.367913   2.071931   2.642034   3.935318
    16  H    4.638264   3.707620   2.760422   3.267961   4.320727
    17  H    4.355901   3.094022   2.741853   3.816792   4.630098
    18  H    6.701228   5.433873   4.683340   5.558702   6.657894
    19  H    6.270610   4.827863   4.165598   5.290174   6.398882
    20  H    6.473684   5.247056   4.180069   4.908722   6.179800
    21  H    3.568700   2.141119   2.775686   4.114709   4.509076
    22  H    2.825697   2.113301   3.422231   4.396493   4.211342
                    6          7          8          9         10
     6  C    0.000000
     7  C    1.536726   0.000000
     8  C    2.546334   1.529638   0.000000
     9  C    3.038217   3.606846   4.753715   0.000000
    10  H    4.456546   4.951058   6.449849   2.922166   0.000000
    11  H    4.461565   5.435059   6.823917   2.933545   1.769214
    12  H    2.763358   3.587891   4.744523   4.550916   4.116369
    13  H    4.651109   5.455058   6.881822   4.735876   2.748334
    14  H    1.104780   2.175957   2.769711   2.803150   4.863577
    15  H    1.103350   2.173629   2.794535   4.038963   5.175892
    16  H    2.161706   1.104396   2.173054   4.247620   4.939454
    17  H    2.163503   1.102924   2.171903   3.066772   4.562006
    18  H    3.508233   2.186123   1.101365   5.420398   6.993892
    19  H    2.818358   2.188191   1.103617   4.623441   6.753715
    20  H    2.818545   2.190083   1.103826   5.485373   7.018366
    21  H    2.801494   3.201372   4.073236   1.090054   3.944569
    22  H    4.125373   4.627892   5.760622   1.089956   2.912425
                   11         12         13         14         15
    11  H    0.000000
    12  H    4.104217   0.000000
    13  H    2.742831   2.672826   0.000000
    14  H    4.624725   3.680829   5.345512   0.000000
    15  H    5.023414   2.458927   4.790573   1.767334   0.000000
    16  H    5.626368   3.229639   5.133206   3.079849   2.507188
    17  H    5.239429   4.216793   5.618772   2.536131   3.078273
    18  H    7.581238   5.507544   7.560796   3.787361   3.804042
    19  H    6.959842   5.370309   7.400052   2.587574   3.169018
    20  H    7.259919   4.632717   7.038657   3.126554   2.615164
    21  H    3.958729   4.919144   5.580283   2.298771   3.834773
    22  H    2.923000   5.420674   5.137488   3.854312   5.112951
                   16         17         18         19         20
    16  H    0.000000
    17  H    1.767139   0.000000
    18  H    2.521273   2.519618   0.000000
    19  H    3.099510   2.541063   1.778331   0.000000
    20  H    2.543873   3.099565   1.778659   1.778577   0.000000
    21  H    4.058079   2.638938   4.735177   3.759135   4.869291
    22  H    5.223467   3.967795   6.355267   5.581016   6.541263
                   21         22
    21  H    0.000000
    22  H    1.864919   0.000000
 Stoichiometry    C8H13N
 Framework group  C1[X(C8H13N)]
 Deg. of freedom    60
 Full point group                 C1      NOp   1
 Largest Abelian subgroup         C1      NOp   1
 Largest concise Abelian subgroup C1      NOp   1
                         Standard orientation:                         
 ---------------------------------------------------------------------
 Center     Atomic      Atomic             Coordinates (Angstroms)
 Number     Number       Type             X           Y           Z
 ---------------------------------------------------------------------
      1          6           0        2.471728    0.316877    0.288490
      2          6           0        1.075216    0.834477   -0.061947
      3          7           0        0.288198   -0.295209   -0.323572
      4          6           0        1.048538   -1.458147   -0.144052
      5          6           0        2.316463   -1.187126    0.206328
      6          6           0       -1.122137   -0.270368   -0.648767
      7          6           0       -2.051701   -0.140165    0.567985
      8          6           0       -3.526945   -0.084830    0.167502
      9          6           0        0.674981    2.120257   -0.113943
     10          1           0        2.780296    0.660485    1.291678
     11          1           0        3.225716    0.704004   -0.419995
     12          1           0        0.572898   -2.425511   -0.304730
     13          1           0        3.103548   -1.914527    0.387156
     14          1           0       -1.302475    0.564440   -1.349561
     15          1           0       -1.358535   -1.195760   -1.201169
     16          1           0       -1.873308   -0.994789    1.244360
     17          1           0       -1.777737    0.766274    1.133452
     18          1           0       -4.178829    0.007103    1.050451
     19          1           0       -3.733391    0.777946   -0.488979
     20          1           0       -3.832620   -0.994396   -0.378103
     21          1           0       -0.347761    2.406399   -0.359583
     22          1           0        1.387947    2.918947    0.090457
 ---------------------------------------------------------------------
 Rotational constants (GHZ):      3.1423185      1.0197980      0.8267612
 Standard basis: CC-pVDZ (5D, 7F)
 There are   191 symmetry adapted basis functions of A   symmetry.
 Integral buffers will be    131072 words long.
 Raffenetti 2 integral format.
 Two-electron integral symmetry is turned on.
   191 basis functions,   388 primitive gaussians,   200 cartesian basis functions
    34 alpha electrons       34 beta electrons
       nuclear repulsion energy       442.5298225222 Hartrees.
 NAtoms=   22 NActive=   22 NUniq=   22 SFac= 1.00D+00 NAtFMM=   50 NAOKFM=F Big=F
 One-electron integrals computed using PRISM.
 NBasis=   191 RedAO= T  NBF=   191
 NBsUse=   191 1.00D-06 NBFU=   191
 Initial guess read from the read-write file.
 B after Tr=     0.000000    0.000000    0.000000
         Rot=    1.000000    0.000000    0.000000    0.000000 Ang=   0.00 deg.
 Initial guess orbital symmetries:
       Occupied  (A) (A) (A) (A) (A) (A) (A) (A) (A) (A) (A) (A)
                 (A) (A) (A) (A) (A) (A) (A) (A) (A) (A) (A) (A)
                 (A) (A) (A) (A) (A) (A) (A) (A) (A) (A)
       Virtual   (A) (A) (A) (A) (A) (A) (A) (A) (A) (A) (A) (A)
                 (A) (A) (A) (A) (A) (A) (A) (A) (A) (A) (A) (A)
                 (A) (A) (A) (A) (A) (A) (A) (A) (A) (A) (A) (A)
                 (A) (A) (A) (A) (A) (A) (A) (A) (A) (A) (A) (A)
                 (A) (A) (A) (A) (A) (A) (A) (A) (A) (A) (A) (A)
                 (A) (A) (A) (A) (A) (A) (A) (A) (A) (A) (A) (A)
                 (A) (A) (A) (A) (A) (A) (A) (A) (A) (A) (A) (A)
                 (A) (A) (A) (A) (A) (A) (A) (A) (A) (A) (A) (A)
                 (A) (A) (A) (A) (A) (A) (A) (A) (A) (A) (A) (A)
                 (A) (A) (A) (A) (A) (A) (A) (A) (A) (A) (A) (A)
                 (A) (A) (A) (A) (A) (A) (A) (A) (A) (A) (A) (A)
                 (A) (A) (A) (A) (A) (A) (A) (A) (A) (A) (A) (A)
                 (A) (A) (A) (A) (A) (A) (A) (A) (A) (A) (A) (A)
                 (A)
 Requested convergence on RMS density matrix=1.00D-08 within 128 cycles.
 Requested convergence on MAX density matrix=1.00D-06.
 Requested convergence on             energy=1.00D-06.
 No special actions if energy rises.
 Keep R1 ints in memory in canonical form, NReq=206404496.
 SCF Done:  E(RB3LYP) =  -367.407841342     A.U. after    8 cycles
             Convg  =    0.3958D-08             -V/T =  2.0079
 Calling FoFJK, ICntrl=      2127 FMM=F ISym2X=0 I1Cent= 0 IOpClX= 0 NMat=1 NMatS=1 NMatT=0.
 ***** Axes restored to original set *****
 -------------------------------------------------------------------
 Center     Atomic                   Forces (Hartrees/Bohr)
 Number     Number              X              Y              Z
 -------------------------------------------------------------------
      1        6          -0.000117182   -0.000065864    0.000000734
      2        6           0.000160796   -0.000041788   -0.000061030
      3        7          -0.000166605    0.000076409    0.000034559
      4        6           0.000036945   -0.000123570   -0.000018220
      5        6           0.000049400    0.000024992   -0.000011082
      6        6           0.000187662    0.000019566    0.000031609
      7        6          -0.000091451    0.000001793   -0.000032014
      8        6          -0.000039875   -0.000029511    0.000005638
      9        6          -0.000034346    0.000016989   -0.000002706
     10        1           0.000003198    0.000014485    0.000008146
     11        1           0.000002950    0.000015409    0.000005919
     12        1           0.000004623    0.000006726    0.000007490
     13        1          -0.000004603    0.000026186    0.000014767
     14        1          -0.000032837   -0.000010670   -0.000012595
     15        1          -0.000026917   -0.000008594    0.000003372
     16        1           0.000019351   -0.000012475    0.000023393
     17        1           0.000025884    0.000000814   -0.000008311
     18        1           0.000014127    0.000013271    0.000005152
     19        1           0.000017515    0.000014148   -0.000006986
     20        1           0.000004447    0.000014733    0.000012108
     21        1          -0.000025960    0.000014639    0.000007331
     22        1           0.000012878    0.000032311   -0.000007274
 -------------------------------------------------------------------
 Cartesian Forces:  Max     0.000187662 RMS     0.000049763

 GradGradGradGradGradGradGradGradGradGradGradGradGradGradGradGradGradGrad
 Berny optimization.
 Using GEDIIS/GDIIS optimizer.
 Internal  Forces:  Max     0.000071218 RMS     0.000021309
 Search for a local minimum.
 Step number   2 out of a maximum of  123 on scan point     1 out of     7
 All quantities printed in internal units (Hartrees-Bohrs-Radians)
 Mixed Optimization -- En-DIIS/RFO-DIIS
 Swaping is turned off.
 Update second derivatives using D2CorX and points    1    2
 DE= -2.86D-06 DEPred=-2.83D-06 R= 1.01D+00
 SS=  1.41D+00  RLast= 5.32D-03 DXNew= 5.0454D-01 1.5972D-02
 Trust test= 1.01D+00 RLast= 5.32D-03 DXMaxT set to 3.00D-01
 ITU=  1  0
     Eigenvalues ---    0.00288   0.00377   0.00704   0.01324   0.01340
     Eigenvalues ---    0.01557   0.01816   0.02375   0.02777   0.02786
     Eigenvalues ---    0.03166   0.03539   0.04803   0.05064   0.05348
     Eigenvalues ---    0.05447   0.05462   0.06980   0.08219   0.08488
     Eigenvalues ---    0.09548   0.09736   0.11901   0.12158   0.15584
     Eigenvalues ---    0.15998   0.15999   0.16000   0.16000   0.16000
     Eigenvalues ---    0.16082   0.21835   0.21891   0.22237   0.24105
     Eigenvalues ---    0.24721   0.25052   0.28018   0.28917   0.29496
     Eigenvalues ---    0.30321   0.32908   0.33192   0.33206   0.33236
     Eigenvalues ---    0.33247   0.33273   0.33315   0.33477   0.33650
     Eigenvalues ---    0.34760   0.34800   0.34906   0.35898   0.38014
     Eigenvalues ---    0.42951   0.43667   0.54121   0.572371000.00000
     Eigenvalues --- 1000.000001000.000001000.000001000.000001000.00000
     Eigenvalues --- 1000.000001000.000001000.000001000.000001000.00000
     Eigenvalues --- 1000.000001000.000001000.000001000.000001000.00000
     Eigenvalues --- 1000.000001000.000001000.000001000.000001000.00000
     Eigenvalues --- 1000.000001000.000001000.000001000.000001000.00000
     Eigenvalues --- 1000.000001000.000001000.000001000.000001000.00000
     Eigenvalues --- 1000.000001000.000001000.000001000.000001000.00000
     Eigenvalues --- 1000.000001000.000001000.000001000.000001000.00000
     Eigenvalues --- 1000.000001000.000001000.000001000.000001000.00000
     Eigenvalues --- 1000.000001000.000001000.000001000.000001000.00000
     Eigenvalues --- 1000.000001000.000001000.00000
 En-DIIS/RFO-DIIS IScMMF=        0 using points:     2    1
 RFO step:  Lambda=-1.09582845D-07.
 DidBck=F Rises=F RFO-DIIS coefs:    1.03798   -0.03798
 Iteration  1 RMS(Cart)=  0.00020769 RMS(Int)=  0.00000004
 Iteration  2 RMS(Cart)=  0.00000004 RMS(Int)=  0.00000002
 Iteration  1 RMS(Cart)=  0.00000000 RMS(Int)=  0.00000000
 Variable       Old X    -DE/DX   Delta X   Delta X   Delta X     New X
                                  (DIIS)     (GDIIS)  (Total)
    R1        2.89132  -0.00007  -0.00001  -0.00024  -0.00025   2.89107
    R2        2.86147  -0.00001   0.00003  -0.00003   0.00001   2.86148
    R3        2.08699  -0.00001   0.00002  -0.00003  -0.00001   2.08697
    R4        2.08754   0.00000   0.00002   0.00002   0.00004   2.08758
    R5        2.64834   0.00005   0.00005   0.00012   0.00017   2.64851
    R6        2.54666  -0.00007   0.00002  -0.00012  -0.00009   2.54657
    R7        2.64748  -0.00006   0.00000  -0.00013  -0.00013   2.64735
    R8        2.73548  -0.00007  -0.00003  -0.00020  -0.00023   2.73525
    R9        2.53804   0.00000   0.00004   0.00001   0.00005   2.53810
   R10        2.05958   0.00000  -0.00003   0.00001  -0.00002   2.05955
   R11        2.05391   0.00002  -0.00004   0.00005   0.00001   2.05392
   R12        2.90399   0.00004   0.00004   0.00016   0.00020   2.90419
   R13        2.08773   0.00000   0.00002   0.00000   0.00002   2.08775
   R14        2.08503   0.00001  -0.00001   0.00002   0.00001   2.08504
   R15        2.89060   0.00000   0.00002   0.00001   0.00002   2.89062
   R16        2.08701  -0.00003  -0.00002  -0.00008  -0.00010   2.08690
   R17        2.08422   0.00002   0.00006   0.00007   0.00013   2.08435
   R18        2.08128  -0.00001   0.00000  -0.00004  -0.00003   2.08124
   R19        2.08553  -0.00001  -0.00001  -0.00005  -0.00006   2.08547
   R20        2.08593   0.00001  -0.00001   0.00003   0.00002   2.08595
   R21        2.05990   0.00002  -0.00003   0.00004   0.00001   2.05991
   R22        2.05972   0.00000  -0.00001  -0.00002  -0.00002   2.05969
    A1        1.80287   0.00002   0.00000   0.00012   0.00012   1.80299
    A2        1.93673   0.00000   0.00001   0.00015   0.00016   1.93689
    A3        1.93642   0.00000   0.00000   0.00003   0.00003   1.93645
    A4        1.96814  -0.00001   0.00000  -0.00005  -0.00004   1.96809
    A5        1.96412  -0.00002  -0.00002  -0.00025  -0.00027   1.96385
    A6        1.85755   0.00000   0.00000   0.00000   0.00000   1.85756
    A7        1.85734   0.00001   0.00000   0.00003   0.00003   1.85737
    A8        2.21765   0.00005  -0.00001   0.00021   0.00020   2.21785
    A9        2.20819  -0.00006   0.00001  -0.00024  -0.00023   2.20796
   A10        1.91816  -0.00004   0.00001  -0.00016  -0.00015   1.91801
   A11        2.18370  -0.00002  -0.00001  -0.00006  -0.00007   2.18363
   A12        2.17949   0.00005   0.00000   0.00022   0.00023   2.17971
   A13        1.95873   0.00005  -0.00001   0.00020   0.00019   1.95892
   A14        2.07263  -0.00001   0.00001  -0.00005  -0.00004   2.07258
   A15        2.25179  -0.00003   0.00000  -0.00015  -0.00015   2.25164
   A16        1.88745  -0.00004   0.00000  -0.00019  -0.00019   1.88725
   A17        2.19131   0.00004   0.00001   0.00024   0.00025   2.19156
   A18        2.20434   0.00000  -0.00001  -0.00005  -0.00007   2.20427
   A19        1.99646   0.00000  -0.00002   0.00002   0.00000   1.99646
   A20        1.89073   0.00003   0.00002   0.00027   0.00029   1.89103
   A21        1.88265   0.00002   0.00001   0.00023   0.00024   1.88290
   A22        1.91717  -0.00002   0.00001  -0.00027  -0.00027   1.91690
   A23        1.91545  -0.00002  -0.00001  -0.00019  -0.00020   1.91525
   A24        1.85584   0.00000  -0.00001  -0.00005  -0.00006   1.85578
   A25        1.95968   0.00000   0.00000   0.00003   0.00003   1.95971
   A26        1.89826  -0.00001   0.00002  -0.00018  -0.00016   1.89810
   A27        1.90215  -0.00001  -0.00002  -0.00014  -0.00016   1.90199
   A28        1.92210   0.00001   0.00003   0.00013   0.00016   1.92226
   A29        1.92204   0.00001  -0.00001   0.00018   0.00017   1.92221
   A30        1.85653   0.00000  -0.00002  -0.00004  -0.00006   1.85647
   A31        1.94332  -0.00001   0.00001  -0.00007  -0.00006   1.94326
   A32        1.94382  -0.00002   0.00000  -0.00014  -0.00013   1.94369
   A33        1.94623  -0.00001  -0.00003  -0.00007  -0.00011   1.94613
   A34        1.87644   0.00002   0.00001   0.00013   0.00014   1.87657
   A35        1.87668   0.00001   0.00001   0.00009   0.00010   1.87678
   A36        1.87377   0.00002   0.00000   0.00009   0.00009   1.87386
   A37        2.13862  -0.00002  -0.00001  -0.00010  -0.00011   2.13851
   A38        2.09167  -0.00003   0.00000  -0.00019  -0.00018   2.09148
   A39        2.05289   0.00004   0.00001   0.00028   0.00030   2.05319
    D1       -0.01785   0.00000   0.00001  -0.00022  -0.00021  -0.01806
    D2        3.12633   0.00001  -0.00001   0.00008   0.00006   3.12639
    D3       -2.13127   0.00000   0.00000  -0.00031  -0.00031  -2.13158
    D4        1.01291   0.00000  -0.00002  -0.00001  -0.00004   1.01288
    D5        2.09066  -0.00001  -0.00001  -0.00043  -0.00044   2.09022
    D6       -1.04835  -0.00001  -0.00003  -0.00014  -0.00017  -1.04852
    D7        0.00887   0.00000   0.00000   0.00015   0.00015   0.00902
    D8        3.13653   0.00000  -0.00001  -0.00012  -0.00013   3.13640
    D9        2.10087   0.00001   0.00002   0.00038   0.00039   2.10127
   D10       -1.05466   0.00001   0.00001   0.00011   0.00011  -1.05454
   D11       -2.08070  -0.00001   0.00001   0.00016   0.00017  -2.08053
   D12        1.04696  -0.00001   0.00000  -0.00011  -0.00011   1.04685
   D13        0.02087   0.00000  -0.00002   0.00022   0.00020   0.02107
   D14        3.09987   0.00001  -0.00001   0.00026   0.00024   3.10011
   D15       -3.12330   0.00000   0.00000  -0.00007  -0.00007  -3.12337
   D16       -0.04429   0.00000   0.00001  -0.00004  -0.00003  -0.04432
   D17       -3.12587  -0.00001  -0.00001  -0.00038  -0.00039  -3.12626
   D18        0.02020   0.00000   0.00002  -0.00006  -0.00004   0.02016
   D19        0.01881   0.00000  -0.00004  -0.00002  -0.00006   0.01874
   D20       -3.11831   0.00001  -0.00001   0.00030   0.00028  -3.11802
   D21       -0.01607   0.00000   0.00002  -0.00013  -0.00011  -0.01618
   D22        3.13487   0.00000   0.00001  -0.00001   0.00000   3.13487
   D23       -3.09526   0.00000   0.00002  -0.00016  -0.00014  -3.09540
   D24        0.05568   0.00000   0.00000  -0.00003  -0.00003   0.05565
   D25       -1.41725   0.00000   0.00000   0.00000   0.00000  -1.41725
   D26        0.72743  -0.00002   0.00001  -0.00013  -0.00012   0.72730
   D27        2.72953   0.00001   0.00002   0.00006   0.00008   2.72961
   D28        1.65260   0.00000   0.00001   0.00003   0.00003   1.65263
   D29       -2.48592  -0.00001   0.00002  -0.00011  -0.00009  -2.48600
   D30       -0.48381   0.00001   0.00002   0.00009   0.00011  -0.48370
   D31        0.00356   0.00000  -0.00001  -0.00002  -0.00003   0.00353
   D32       -3.12396   0.00001   0.00000   0.00025   0.00025  -3.12371
   D33        3.13460   0.00000   0.00000  -0.00016  -0.00015   3.13445
   D34        0.00708   0.00000   0.00002   0.00011   0.00013   0.00721
   D35        3.11756   0.00000  -0.00001   0.00004   0.00003   3.11759
   D36       -1.03393   0.00001   0.00004   0.00010   0.00014  -1.03378
   D37        0.98321  -0.00001   0.00002  -0.00012  -0.00010   0.98312
   D38        0.98726  -0.00001  -0.00002  -0.00012  -0.00015   0.98712
   D39        3.11896  -0.00001   0.00002  -0.00006  -0.00004   3.11893
   D40       -1.14708  -0.00002   0.00000  -0.00028  -0.00028  -1.14736
   D41       -1.04717   0.00001  -0.00001   0.00021   0.00020  -1.04697
   D42        1.08453   0.00002   0.00003   0.00027   0.00031   1.08484
   D43        3.10167   0.00000   0.00001   0.00006   0.00007   3.10174
   D44        3.14033   0.00000   0.00002  -0.00011  -0.00009   3.14024
   D45       -1.04864   0.00000   0.00004  -0.00009  -0.00005  -1.04869
   D46        1.04417   0.00000   0.00002  -0.00012  -0.00010   1.04407
   D47        1.02223   0.00001  -0.00002   0.00000  -0.00002   1.02221
   D48        3.11645   0.00001   0.00000   0.00002   0.00003   3.11647
   D49       -1.07393   0.00001  -0.00002  -0.00001  -0.00003  -1.07396
   D50       -1.01984  -0.00001  -0.00001  -0.00014  -0.00015  -1.01998
   D51        1.07438  -0.00001   0.00001  -0.00012  -0.00010   1.07427
   D52       -3.11600  -0.00001  -0.00001  -0.00015  -0.00016  -3.11615
         Item               Value     Threshold  Converged?
 Maximum Force            0.000071     0.000450     YES
 RMS     Force            0.000021     0.000300     YES
 Maximum Displacement     0.000819     0.001800     YES
 RMS     Displacement     0.000208     0.001200     YES
 Predicted change in Energy=-1.312949D-07
 Optimization completed.
    -- Stationary point found.
                           ----------------------------
                           !   Optimized Parameters   !
                           ! (Angstroms and Degrees)  !
 --------------------------                            --------------------------
 ! Name  Definition              Value          Derivative Info.                !
 --------------------------------------------------------------------------------
 ! R1    R(1,2)                  1.53           -DE/DX =   -0.0001              !
 ! R2    R(1,5)                  1.5142         -DE/DX =    0.0                 !
 ! R3    R(1,10)                 1.1044         -DE/DX =    0.0                 !
 ! R4    R(1,11)                 1.1047         -DE/DX =    0.0                 !
 ! R5    R(2,3)                  1.4014         -DE/DX =    0.0                 !
 ! R6    R(2,9)                  1.3476         -DE/DX =   -0.0001              !
 ! R7    R(3,4)                  1.401          -DE/DX =   -0.0001              !
 ! R8    R(3,6)                  1.4476         -DE/DX =   -0.0001              !
 ! R9    R(4,5)                  1.3431         -DE/DX =    0.0                 !
 ! R10   R(4,12)                 1.0899         -DE/DX =    0.0                 !
 ! R11   R(5,13)                 1.0869         -DE/DX =    0.0                 !
 ! R12   R(6,7)                  1.5367         -DE/DX =    0.0                 !
 ! R13   R(6,14)                 1.1048         -DE/DX =    0.0                 !
 ! R14   R(6,15)                 1.1034         -DE/DX =    0.0                 !
 ! R15   R(7,8)                  1.5296         -DE/DX =    0.0                 !
 ! R16   R(7,16)                 1.1044         -DE/DX =    0.0                 !
 ! R17   R(7,17)                 1.1029         -DE/DX =    0.0                 !
 ! R18   R(8,18)                 1.1014         -DE/DX =    0.0                 !
 ! R19   R(8,19)                 1.1036         -DE/DX =    0.0                 !
 ! R20   R(8,20)                 1.1038         -DE/DX =    0.0                 !
 ! R21   R(9,21)                 1.0901         -DE/DX =    0.0                 !
 ! R22   R(9,22)                 1.09           -DE/DX =    0.0                 !
 ! A1    A(2,1,5)              103.2968         -DE/DX =    0.0                 !
 ! A2    A(2,1,10)             110.9664         -DE/DX =    0.0                 !
 ! A3    A(2,1,11)             110.9488         -DE/DX =    0.0                 !
 ! A4    A(5,1,10)             112.7659         -DE/DX =    0.0                 !
 ! A5    A(5,1,11)             112.536          -DE/DX =    0.0                 !
 ! A6    A(10,1,11)            106.43           -DE/DX =    0.0                 !
[...]
    22  H    2.725217   2.096872   3.441375   4.361809   4.132593
                    6          7          8          9         10
     6  C    0.000000
     7  C    1.528180   0.000000
     8  C    2.514933   1.531511   0.000000
     9  C    3.271906   3.159560   4.671680   0.000000
    10  H    4.530072   5.271982   6.752010   2.856334   0.000000
    11  H    4.494417   5.155825   6.613981   2.885860   1.769500
    12  H    2.635641   4.146020   4.985027   4.581131   4.106226
    13  H    4.607622   5.888873   7.102764   4.719815   2.745313
    14  H    1.106670   2.145751   2.666923   4.099796   5.178744
    15  H    1.109438   2.149643   2.749269   3.938938   4.896413
    16  H    2.167790   1.100766   2.160987   2.846643   5.110611
    17  H    2.167638   1.101595   2.168463   2.902451   5.256162
    18  H    3.479866   2.183245   1.100983   5.045239   7.414484
    19  H    2.796649   2.190876   1.103157   5.250057   7.177076
    20  H    2.769175   2.190182   1.103438   5.218151   7.052489
    21  H    3.154515   2.556655   3.963518   1.084707   3.888326
    22  H    4.346212   4.215848   5.708065   1.090765   2.769260
                   11         12         13         14         15
    11  H    0.000000
    12  H    4.090796   0.000000
    13  H    2.744343   2.667124   0.000000
    14  H    4.863501   2.478622   4.728140   0.000000
    15  H    5.194597   2.726912   4.895284   1.768631   0.000000
    16  H    5.282129   4.677632   6.173352   3.063807   2.473390
    17  H    4.820754   4.523850   5.965887   2.539713   3.069790
    18  H    7.252286   6.029900   8.020465   3.699953   3.746475
    19  H    6.824663   4.934446   7.171241   2.486417   3.158394
    20  H    7.143197   5.036071   7.312726   2.989037   2.541996
    21  H    3.917136   5.032021   5.612513   4.027073   3.794469
    22  H    2.813417   5.398728   5.041757   5.141363   4.991116
                   16         17         18         19         20
    16  H    0.000000
    17  H    1.771998   0.000000
    18  H    2.492981   2.521836   0.000000
    19  H    3.090024   2.527399   1.779274   0.000000
    20  H    2.537590   3.095760   1.778556   1.779739   0.000000
    21  H    2.066462   2.306354   4.168664   4.658913   4.551942
    22  H    3.833574   3.860476   5.995734   6.288369   6.273065
                   21         22
    21  H    0.000000
    22  H    1.857339   0.000000
 Stoichiometry    C8H13N
 Framework group  C1[X(C8H13N)]
 Deg. of freedom    60
 Full point group                 C1      NOp   1
 Largest Abelian subgroup         C1      NOp   1
 Largest concise Abelian subgroup C1      NOp   1
                         Standard orientation:                         
 ---------------------------------------------------------------------
 Center     Atomic      Atomic             Coordinates (Angstroms)
 Number     Number       Type             X           Y           Z
 ---------------------------------------------------------------------
      1          6           0       -2.472298    0.490762    0.096141
      2          6           0       -0.978439    0.823121   -0.022682
      3          7           0       -0.305640   -0.411754   -0.077543
      4          6           0       -1.245475   -1.455237   -0.028481
      5          6           0       -2.509027   -1.017726    0.067886
      6          6           0        1.113866   -0.760393   -0.139835
      7          6           0        2.139600    0.355712    0.053851
      8          6           0        3.558067   -0.219754    0.101987
      9          6           0       -0.502225    2.083843   -0.077067
     10          1           0       -3.039523    0.948023   -0.733327
     11          1           0       -2.893059    0.905968    1.029600
     12          1           0       -0.880937   -2.481603   -0.070555
     13          1           0       -3.402364   -1.634370    0.124773
     14          1           0        1.297224   -1.530834    0.633159
     15          1           0        1.318327   -1.251907   -1.113212
     16          1           0        2.069238    1.079928   -0.772130
     17          1           0        1.927492    0.904083    0.985415
     18          1           0        4.305501    0.581332    0.210458
     19          1           0        3.684422   -0.912445    0.951205
     20          1           0        3.798233   -0.776864   -0.819709
     21          1           0        0.546737    2.342538   -0.173737
     22          1           0       -1.216228    2.906465   -0.019953
 ---------------------------------------------------------------------
 Rotational constants (GHZ):      3.3248021      1.0061181      0.7899138

 **********************************************************************

            Population analysis using the SCF density.

 **********************************************************************

 Orbital symmetries:
       Occupied  (A) (A) (A) (A) (A) (A) (A) (A) (A) (A) (A) (A)
                 (A) (A) (A) (A) (A) (A) (A) (A) (A) (A) (A) (A)
                 (A) (A) (A) (A) (A) (A) (A) (A) (A) (A)
       Virtual   (A) (A) (A) (A) (A) (A) (A) (A) (A) (A) (A) (A)
                 (A) (A) (A) (A) (A) (A) (A) (A) (A) (A) (A) (A)
                 (A) (A) (A) (A) (A) (A) (A) (A) (A) (A) (A) (A)
                 (A) (A) (A) (A) (A) (A) (A) (A) (A) (A) (A) (A)
                 (A) (A) (A) (A) (A) (A) (A) (A) (A) (A) (A) (A)
                 (A) (A) (A) (A) (A) (A) (A) (A) (A) (A) (A) (A)
                 (A) (A) (A) (A) (A) (A) (A) (A) (A) (A) (A) (A)
                 (A) (A) (A) (A) (A) (A) (A) (A) (A) (A) (A) (A)
                 (A) (A) (A) (A) (A) (A) (A) (A) (A) (A) (A) (A)
                 (A) (A) (A) (A) (A) (A) (A) (A) (A) (A) (A) (A)
                 (A) (A) (A) (A) (A) (A) (A) (A) (A) (A) (A) (A)
                 (A) (A) (A) (A) (A) (A) (A) (A) (A) (A) (A) (A)
                 (A) (A) (A) (A) (A) (A) (A) (A) (A) (A) (A) (A)
                 (A)
 The electronic state is 1-A.
 Alpha  occ. eigenvalues --  -14.35066 -10.22755 -10.21932 -10.21155 -10.19305
 Alpha  occ. eigenvalues --  -10.18952 -10.18718 -10.16837 -10.14779  -0.96035
 Alpha  occ. eigenvalues --   -0.81108  -0.76558  -0.75118  -0.68156  -0.65021
 Alpha  occ. eigenvalues --   -0.61003  -0.56567  -0.53133  -0.49314  -0.48193
 Alpha  occ. eigenvalues --   -0.43736  -0.43501  -0.42652  -0.41311  -0.40446
 Alpha  occ. eigenvalues --   -0.39402  -0.37332  -0.36226  -0.35098  -0.34815
 Alpha  occ. eigenvalues --   -0.32780  -0.31976  -0.25966  -0.16874
 Alpha virt. eigenvalues --    0.01302   0.05379   0.05857   0.07307   0.08674
 Alpha virt. eigenvalues --    0.09841   0.10500   0.10817   0.12513   0.13276
 Alpha virt. eigenvalues --    0.14650   0.15023   0.15652   0.15982   0.17519
 Alpha virt. eigenvalues --    0.19429   0.19892   0.21902   0.23354   0.25069
 Alpha virt. eigenvalues --    0.28512   0.34561   0.35700   0.37981   0.40523
 Alpha virt. eigenvalues --    0.40695   0.43016   0.44926   0.45566   0.47383
 Alpha virt. eigenvalues --    0.48411   0.49416   0.51009   0.51339   0.52943
 Alpha virt. eigenvalues --    0.55410   0.56341   0.56595   0.57519   0.58441
 Alpha virt. eigenvalues --    0.60133   0.61262   0.63526   0.63695   0.64863
 Alpha virt. eigenvalues --    0.65016   0.66101   0.66352   0.66871   0.67428
 Alpha virt. eigenvalues --    0.68561   0.70497   0.70597   0.71653   0.72836
 Alpha virt. eigenvalues --    0.73028   0.78411   0.82166   0.83742   0.85336
 Alpha virt. eigenvalues --    0.87816   0.89474   0.90977   0.95327   0.96787
 Alpha virt. eigenvalues --    0.99575   1.02085   1.03809   1.05158   1.06940
 Alpha virt. eigenvalues --    1.09136   1.12070   1.12636   1.18073   1.20179
 Alpha virt. eigenvalues --    1.22020   1.23049   1.31389   1.32984   1.34511
 Alpha virt. eigenvalues --    1.34615   1.35924   1.40168   1.41561   1.42341
 Alpha virt. eigenvalues --    1.44495   1.47367   1.51033   1.52091   1.53545
 Alpha virt. eigenvalues --    1.53897   1.57283   1.58427   1.61045   1.61474
 Alpha virt. eigenvalues --    1.61983   1.62934   1.63480   1.63971   1.66520
 Alpha virt. eigenvalues --    1.66757   1.67330   1.69046   1.70043   1.70432
 Alpha virt. eigenvalues --    1.71298   1.73092   1.74496   1.75791   1.77328
 Alpha virt. eigenvalues --    1.78665   1.80717   1.81983   1.84551   1.86740
 Alpha virt. eigenvalues --    1.87518   1.88138   1.91396   1.93624   1.94146
 Alpha virt. eigenvalues --    1.96093   1.99933   2.01258   2.04392   2.06033
 Alpha virt. eigenvalues --    2.07673   2.08618   2.11174   2.12272   2.16222
 Alpha virt. eigenvalues --    2.17398   2.19700   2.23133   2.23331   2.28530
 Alpha virt. eigenvalues --    2.30577   2.33842   2.36009   2.38927   2.40882
 Alpha virt. eigenvalues --    2.41478   2.42081   2.42611   2.46294   2.47482
 Alpha virt. eigenvalues --    2.50328   2.52849   2.56317   2.58065   2.59426
 Alpha virt. eigenvalues --    2.64585   2.66710   2.72513   2.77696   2.88234
 Alpha virt. eigenvalues --    3.05739   3.20093
          Condensed to atoms (all electrons):
              1          2          3          4          5          6
     1  C    4.667274   0.375748  -0.065240  -0.053404   0.377423   0.009907
     2  C    0.375748   4.700975   0.424855  -0.082431  -0.037086  -0.064478
     3  N   -0.065240   0.424855   6.353961   0.389452  -0.039610   0.372534
     4  C   -0.053404  -0.082431   0.389452   4.649202   0.626098  -0.045266
     5  C    0.377423  -0.037086  -0.039610   0.626098   4.885906   0.003194
     6  C    0.009907  -0.064478   0.372534  -0.045266   0.003194   4.543670
     7  C   -0.000049  -0.005867  -0.028242   0.005207  -0.000453   0.441240
     8  C    0.000005   0.000377   0.002433  -0.000130   0.000006  -0.037898
     9  C   -0.070542   0.683457  -0.058266   0.004642   0.006568  -0.006545
    10  H    0.355691  -0.009662   0.001724  -0.001729  -0.015556  -0.000253
    11  H    0.354535  -0.010381   0.001739  -0.001876  -0.017076  -0.000198
    12  H    0.010860   0.000681  -0.037081   0.397225  -0.055188   0.001899
    13  H   -0.040437   0.005439   0.004754  -0.032171   0.394684  -0.000050
    14  H   -0.000769   0.003620  -0.029138  -0.004051   0.002301   0.367864
    15  H   -0.000627   0.002741  -0.032914  -0.001341   0.001048   0.358930
    16  H   -0.000081   0.000127  -0.000876  -0.000060   0.000043  -0.017214
    17  H   -0.000097   0.001763  -0.000680   0.000156  -0.000034  -0.023107
    18  H    0.000000  -0.000005  -0.000141   0.000003   0.000000   0.003805
    19  H   -0.000001   0.000007   0.000085  -0.000002   0.000001  -0.004807
    20  H    0.000000   0.000017   0.000110   0.000005   0.000000  -0.004161
    21  H    0.007924   0.011717  -0.009409  -0.000182  -0.000466  -0.001119
    22  H   -0.017032   0.016813   0.004889  -0.000109   0.000928   0.000155
              7          8          9         10         11         12
     1  C   -0.000049   0.000005  -0.070542   0.355691   0.354535   0.010860
     2  C   -0.005867   0.000377   0.683457  -0.009662  -0.010381   0.000681
     3  N   -0.028242   0.002433  -0.058266   0.001724   0.001739  -0.037081
     4  C    0.005207  -0.000130   0.004642  -0.001729  -0.001876   0.397225
     5  C   -0.000453   0.000006   0.006568  -0.015556  -0.017076  -0.055188
     6  C    0.441240  -0.037898  -0.006545  -0.000253  -0.000198   0.001899
     7  C    4.583048   0.438545   0.001010   0.000007   0.000000   0.000687
     8  C    0.438545   4.504166   0.000160   0.000000   0.000000  -0.000015
     9  C    0.001010   0.000160   4.772047  -0.003677  -0.003143  -0.000709
    10  H    0.000007   0.000000  -0.003677   0.667405  -0.038430  -0.000262
    11  H    0.000000   0.000000  -0.003143  -0.038430   0.670295  -0.000256
    12  H    0.000687  -0.000015  -0.000709  -0.000262  -0.000256   0.707411
    13  H    0.000007   0.000000  -0.000225  -0.000404  -0.000428  -0.007687
    14  H   -0.029418  -0.004929   0.000488   0.000022  -0.000003   0.000634
    15  H   -0.027216  -0.004687   0.000965  -0.000004   0.000027   0.000788
    16  H    0.371603  -0.024485  -0.002065  -0.000019   0.000014  -0.000002
    17  H    0.377205  -0.023128  -0.000127   0.000016  -0.000034   0.000039
    18  H   -0.008996   0.378136   0.000032   0.000000   0.000000   0.000001
    19  H   -0.022289   0.385487   0.000007   0.000000   0.000000  -0.000005
    20  H   -0.024002   0.385381   0.000000   0.000000   0.000000   0.000008
    21  H    0.004466   0.000599   0.353121  -0.000001  -0.000054  -0.000014
    22  H   -0.000110  -0.000022   0.351886   0.001769   0.001628   0.000018
             13         14         15         16         17         18
     1  C   -0.040437  -0.000769  -0.000627  -0.000081  -0.000097   0.000000
     2  C    0.005439   0.003620   0.002741   0.000127   0.001763  -0.000005
     3  N    0.004754  -0.029138  -0.032914  -0.000876  -0.000680  -0.000141
     4  C   -0.032171  -0.004051  -0.001341  -0.000060   0.000156   0.000003
     5  C    0.394684   0.002301   0.001048   0.000043  -0.000034   0.000000
     6  C   -0.000050   0.367864   0.358930  -0.017214  -0.023107   0.003805
     7  C    0.000007  -0.029418  -0.027216   0.371603   0.377205  -0.008996
     8  C    0.000000  -0.004929  -0.004687  -0.024485  -0.023128   0.378136
     9  C   -0.000225   0.000488   0.000965  -0.002065  -0.000127   0.000032
    10  H   -0.000404   0.000022  -0.000004  -0.000019   0.000016   0.000000
    11  H   -0.000428  -0.000003   0.000027   0.000014  -0.000034   0.000000
    12  H   -0.007687   0.000634   0.000788  -0.000002   0.000039   0.000001
    13  H    0.709819  -0.000006   0.000006   0.000000   0.000000   0.000000
    14  H   -0.000006   0.733568  -0.059042   0.009662  -0.011358   0.000031
    15  H    0.000006  -0.059042   0.742786  -0.012932   0.010070  -0.000322
    16  H    0.000000   0.009662  -0.012932   0.688901  -0.049615  -0.005143
    17  H    0.000000  -0.011358   0.010070  -0.049615   0.689720  -0.004406
    18  H    0.000000   0.000031  -0.000322  -0.005143  -0.004406   0.677973
    19  H    0.000000   0.009504  -0.001957   0.008307  -0.009227  -0.029366
    20  H    0.000000  -0.002669   0.009424  -0.008797   0.008487  -0.029539
    21  H    0.000013  -0.000077  -0.000191   0.002515   0.001497  -0.000080
    22  H   -0.000014   0.000034   0.000023   0.000325   0.000208   0.000000
             19         20         21         22
     1  C   -0.000001   0.000000   0.007924  -0.017032
     2  C    0.000007   0.000017   0.011717   0.016813
     3  N    0.000085   0.000110  -0.009409   0.004889
     4  C   -0.000002   0.000005  -0.000182  -0.000109
     5  C    0.000001   0.000000  -0.000466   0.000928
     6  C   -0.004807  -0.004161  -0.001119   0.000155
     7  C   -0.022289  -0.024002   0.004466  -0.000110
     8  C    0.385487   0.385381   0.000599  -0.000022
     9  C    0.000007   0.000000   0.353121   0.351886
    10  H    0.000000   0.000000  -0.000001   0.001769
    11  H    0.000000   0.000000  -0.000054   0.001628
    12  H   -0.000005   0.000008  -0.000014   0.000018
    13  H    0.000000   0.000000   0.000013  -0.000014
    14  H    0.009504  -0.002669  -0.000077   0.000034
    15  H   -0.001957   0.009424  -0.000191   0.000023
    16  H    0.008307  -0.008797   0.002515   0.000325
    17  H   -0.009227   0.008487   0.001497   0.000208
    18  H   -0.029366  -0.029539  -0.000080   0.000000
    19  H    0.676094  -0.031936   0.000023   0.000001
    20  H   -0.031936   0.678250   0.000027   0.000000
    21  H    0.000023   0.000027   0.693203  -0.055225
    22  H    0.000001   0.000000  -0.055225   0.708310
 Mulliken atomic charges:
              1
     1  C    0.088912
     2  C   -0.018427
     3  N   -0.254940
     4  C    0.150761
     5  C   -0.132730
     6  C    0.101897
     7  C   -0.076384
     8  C   -0.000001
     9  C   -0.029083
    10  H    0.043364
    11  H    0.043640
    12  H   -0.019033
    13  H   -0.033300
    14  H    0.013732
    15  H    0.014427
    16  H    0.039790
    17  H    0.032652
    18  H    0.018020
    19  H    0.020073
    20  H    0.019397
    21  H   -0.008287
    22  H   -0.014478
 Sum of Mulliken atomic charges =   0.00000
 Mulliken charges with hydrogens summed into heavy atoms:
              1
     1  C    0.175915
     2  C   -0.018427
     3  N   -0.254940
     4  C    0.131728
     5  C   -0.166030
     6  C    0.130056
     7  C   -0.003942
     8  C    0.057488
     9  C   -0.051849
 Sum of Mulliken charges with hydrogens summed into heavy atoms =   0.00000
 Electronic spatial extent (au):  <R**2>=           1507.6570
 Charge=              0.0000 electrons
 Dipole moment (field-independent basis, Debye):
    X=              0.9095    Y=             -1.1210    Z=              0.0670  Tot=              1.4451
 Quadrupole moment (field-independent basis, Debye-Ang):
   XX=            -52.4421   YY=            -55.9218   ZZ=            -58.6505
   XY=             -0.3684   XZ=             -0.4231   YZ=              0.1281
 Traceless Quadrupole moment (field-independent basis, Debye-Ang):
   XX=              3.2294   YY=             -0.2503   ZZ=             -2.9790
   XY=             -0.3684   XZ=             -0.4231   YZ=              0.1281
 Octapole moment (field-independent basis, Debye-Ang**2):
  XXX=             -5.2062  YYY=            -10.0852  ZZZ=              0.3675  XYY=              0.1102
  XXY=              3.6504  XXZ=              0.8541  XZZ=              4.2153  YZZ=             -1.3113
  YYZ=              0.0005  XYZ=             -0.3113
 Hexadecapole moment (field-independent basis, Debye-Ang**3):
 XXXX=          -1479.0662 YYYY=           -489.5030 ZZZZ=            -93.0111 XXXY=              8.9681
 XXXZ=             -2.2929 YYYX=              4.8347 YYYZ=              0.1391 ZZZX=             -0.9616
 ZZZY=              1.5254 XXYY=           -324.7861 XXZZ=           -268.9112 YYZZ=           -106.7471
 XXYZ=             -0.6022 YYXZ=             -0.6714 ZZXY=             -5.3543
 N-N= 4.413624219699D+02 E-N=-1.733503977691D+03  KE= 3.645278067718D+02
 1\1\GINC-NODE109\Scan\RB3LYP\CC-pVDZ\C8H13N1\CHS2057\23-Mar-2015\0\\# 
 opt=modredundant B3LYP/cc-pVDZ Geom=PrintInputOrient\\PRL Dihedral Sca
 n at MP2/6-31G*\\0,1\C,0.8122645254,0.5796236139,0.0381581982\C,-0.513
 2073083,-0.1328860746,-0.2645806063\N,-1.5231448649,0.6537443328,0.320
 073977\C,-0.9421434501,1.7817916682,0.9238133656\C,0.392547525,1.81201
 23873,0.801532912\C,-2.9725501159,0.4827649515,0.4221409469\C,-3.57348
 74136,-0.85288826,-0.0140238129\C,-5.0716915451,-0.8969851018,0.300564
 4711\C,-0.5941542986,-1.2749892404,-0.9774665379\H,1.3481675161,0.8177
 586861,-0.8972281597\H,1.4827117503,-0.0730902171,0.6257350514\H,-1.59
 78573595,2.4997573555,1.416407699\H,1.058318514,2.5792043999,1.1884463
 737\H,-3.2498190603,0.6529883668,1.4799043227\H,-3.4687117706,1.289525
 0595,-0.1556266418\H,-3.4248623461,-0.9981194262,-1.0949971327\H,-3.05
 99380847,-1.6817621748,0.4985653124\H,-5.5184989661,-1.8442893486,-0.0
 387613081\H,-5.259838769,-0.8074451403,1.3838645864\H,-5.6126469966,-0
 .0755227298,-0.199576675\H,-1.5194685347,-1.788973485,-1.2145393485\H,
 0.3320114594,-1.7192197107,-1.3444069936\\Version=EM64L-G09RevB.01\Sta
 te=1-A\HF=-367.4078413,-367.4071965,-367.404908,-367.4011858,-367.3975
 922,-367.3964813,-367.3965771\RMSD=3.958e-09,3.147e-09,7.590e-09,2.932
 e-09,4.976e-09,5.334e-09,6.707e-09\PG=C01 [X(C8H13N1)]\\@


 If fifty million people say a stupid thing,
 it is still a stupid thing.
                   -- Anatole France
 The theorems and results in mathematical physics are
 not theorems and results about Nature, but about our
 description of it.
                   --Gerard 't Hooft
 Job cpu time:  0 days  2 hours 23 minutes 37.8 seconds.
 File lengths (MBytes):  RWF=     94 Int=      0 D2E=      0 Chk=      5 Scr=      2
 Normal termination of Gaussian 09 at Mon Mar 23 15:43:34 2015.
