    -----------------------------------------------------------------------
          Psi4: An Open-Source Ab Initio Electronic Structure Package
                              Psi4 1.0.0 Driver

                          Git: Rev {master} 6a9a71b 

    J. M. Turney, A. C. Simmonett, R. M. Parrish, E. G. Hohenstein,
    F. A. Evangelista, J. T. Fermann, B. J. Mintz, L. A. Burns, J. J. Wilke,
    M. L. Abrams, N. J. Russ, M. L. Leininger, C. L. Janssen, E. T. Seidl,
    W. D. Allen, H. F. Schaefer, R. A. King, E. F. Valeev, C. D. Sherrill,
    and T. D. Crawford, WIREs Comput. Mol. Sci. 2, 556-565 (2012)
    (doi: 10.1002/wcms.93)

                         Additional Contributions by
    A. E. DePrince, U. Bozkaya, A. Yu. Sokolov, D. G. A. Smith, R. Di Remigio,
    R. M. Richard, J. F. Gonthier, H. R. McAlexander, M. Saitow, and
    B. P. Pritchard
    -----------------------------------------------------------------------


    Psi4 started on: Mon Feb 20 17:22:59 2017

    Process ID:  28113
    PSI4DATADIR: /Users/sternc1/anaconda/share/psi4
    Memory level set to 256.000 MB

  ==> Input File <==

--------------------------------------------------------------------------

memory 1000 mb

molecule butane {
  symmetry C1
  0 1 
  H      1.604   0.760   -8.260
  H      1.745   2.388   -8.880
  H      2.043   1.024   -9.930
  C      2.142   1.395   -8.932
  H      4.169   2.051   -9.210
  H      3.731   1.788   -7.539
  C      3.631   1.416   -8.537
  H      3.482   -0.705   -8.233
  H      4.429   -0.253   -9.629
  C      4.203   -0.012   -8.612
  H      5.885   -1.088   -7.820
  H      5.263   0.145   -6.750
  H      6.210   0.597   -8.147
  C      5.488   -0.096   -7.768
  units Angstrom
}

dih_string = "4 7 10 14 200"
set optking fixed_dihedral = $dih_string

optimize('MP2/6-31G(d)')
--------------------------------------------------------------------------

  Memory set to 1000.000 MiB by Python script.
gradient() will perform analytic gradient computation.
    SCF Algorithm Type (re)set to DF.

*** tstart() called on lski1497
*** at Mon Feb 20 17:23:00 2017


         ---------------------------------------------------------
                                   SCF
            by Justin Turney, Rob Parrish, and Andy Simmonett
                              RHF Reference
                        1 Threads,   1000 MiB Core
         ---------------------------------------------------------

  ==> Geometry <==

    Molecular point group: c1
    Full point group: C1

    Geometry (in Angstrom), charge = 0, multiplicity = 1:

       Center              X                  Y                   Z               Mass       
    ------------   -----------------  -----------------  -----------------  -----------------
           H         -2.260282064669     0.085126320548     0.198354277962     1.007825032070
           H         -2.119282064669     1.713126320548    -0.421645722038     1.007825032070
           H         -1.821282064669     0.349126320548    -1.471645722038     1.007825032070
           C         -1.722282064669     0.720126320548    -0.473645722038    12.000000000000
           H          0.304717935331     1.376126320548    -0.751645722038     1.007825032070
           H         -0.133282064669     1.113126320548     0.919354277962     1.007825032070
           C         -0.233282064669     0.741126320548    -0.078645722038    12.000000000000
           H         -0.382282064669    -1.379873679452     0.225354277962     1.007825032070
           H          0.564717935331    -0.927873679452    -1.170645722038     1.007825032070
           C          0.338717935331    -0.686873679452    -0.153645722038    12.000000000000
           H          2.020717935331    -1.762873679452     0.638354277962     1.007825032070
           H          1.398717935331    -0.529873679452     1.708354277962     1.007825032070
           H          2.345717935331    -0.077873679452     0.311354277962     1.007825032070
           C          1.623717935331    -0.770873679452     0.690354277962    12.000000000000

  Running in c1 symmetry.

  Rotational constants: A =      0.74156  B =      0.12541  C =      0.11797 [cm^-1]
  Rotational constants: A =  22231.39392  B =   3759.66439  C =   3536.62028 [MHz]
  Nuclear repulsion =  131.906513445390488

  Charge       = 0
  Multiplicity = 1
  Electrons    = 34
  Nalpha       = 17
  Nbeta        = 17

  ==> Algorithm <==

  SCF Algorithm Type is DF.
  DIIS enabled.
  MOM disabled.
  Fractional occupation disabled.
  Guess Type is SAD.
  Energy threshold   = 1.00e-10
  Density threshold  = 1.00e-10
  Integral threshold = 0.00e+00

  ==> Primary Basis <==

  Basis Set: 6-31G(D)
    Number of shells: 44
    Number of basis function: 80
    Number of Cartesian functions: 80
    Spherical Harmonics?: false
    Max angular momentum: 2

  ==> Pre-Iterations <==

   -------------------------------------------------------
    Irrep   Nso     Nmo     Nalpha   Nbeta   Ndocc  Nsocc
   -------------------------------------------------------
     A         80      80       0       0       0       0
   -------------------------------------------------------
    Total      80      80      17      17      17       0
   -------------------------------------------------------

  ==> Integral Setup <==

  ==> DFJK: Density-Fitted J/K Matrices <==

    J tasked:                  Yes
    K tasked:                  Yes
    wK tasked:                  No
    OpenMP threads:              1
    Integrals threads:           1
    Memory (MB):               715
    Algorithm:                Core
    Integral Cache:           NONE
    Schwarz Cutoff:          1E-12
    Fitting Condition:       1E-12

   => Auxiliary Basis Set <=

  Basis Set: 
    Number of shells: 186
    Number of basis function: 574
    Number of Cartesian functions: 574
    Spherical Harmonics?: false
    Max angular momentum: 3

  Minimum eigenvalue in the overlap matrix is 4.5118815049E-03.
  Using Symmetric Orthogonalization.
  SCF Guess: Superposition of Atomic Densities via on-the-fly atomic UHF.

  ==> Iterations <==

                           Total Energy        Delta E     RMS |[F,P]|

   @DF-RHF iter   0:  -158.98357597504520   -1.58984e+02   4.75154e-02 
   @DF-RHF iter   1:  -157.20406413870950    1.77951e+00   3.97183e-03 
   @DF-RHF iter   2:  -157.28444518761535   -8.03810e-02   1.08821e-03 DIIS
   @DF-RHF iter   3:  -157.29214415535989   -7.69897e-03   2.50013e-04 DIIS
   @DF-RHF iter   4:  -157.29250631617049   -3.62161e-04   7.57592e-05 DIIS
   @DF-RHF iter   5:  -157.29254070662927   -3.43905e-05   1.33854e-05 DIIS
   @DF-RHF iter   6:  -157.29254202608854   -1.31946e-06   2.53734e-06 DIIS
   @DF-RHF iter   7:  -157.29254205684379   -3.07552e-08   7.24119e-07 DIIS
   @DF-RHF iter   8:  -157.29254205950343   -2.65965e-09   1.05399e-07 DIIS
   @DF-RHF iter   9:  -157.29254205959609   -9.26548e-11   2.29128e-08 DIIS
   @DF-RHF iter  10:  -157.29254205960041   -4.32010e-12   4.25339e-09 DIIS
   @DF-RHF iter  11:  -157.29254205960092   -5.11591e-13   1.14036e-09 DIIS
   @DF-RHF iter  12:  -157.29254205960069    2.27374e-13   3.07882e-10 DIIS
   @DF-RHF iter  13:  -157.29254205960086   -1.70530e-13   6.70012e-11 DIIS

  ==> Post-Iterations <==

    Orbital Energies (a.u.)
    -----------------------

    Doubly Occupied:                                                      

       1A    -11.207632     2A    -11.207019     3A    -11.200211  
       4A    -11.200139     5A     -1.070988     6A     -0.981117  
       7A     -0.861989     8A     -0.794753     9A     -0.646734  
      10A     -0.587204    11A     -0.582576    12A     -0.565514  
      13A     -0.514211    14A     -0.505235    15A     -0.473691  
      16A     -0.468677    17A     -0.441201  

    Virtual:                                                              

      18A      0.233771    19A      0.266058    20A      0.289918  
      21A      0.299575    22A      0.325819    23A      0.338976  
      24A      0.340687    25A      0.348024    26A      0.355324  
      27A      0.360766    28A      0.419221    29A      0.430940  
      30A      0.435647    31A      0.699855    32A      0.714073  
      33A      0.747785    34A      0.751739    35A      0.766219  
      36A      0.845909    37A      0.853334    38A      0.931623  
      39A      0.951618    40A      1.020638    41A      1.073959  
      42A      1.089126    43A      1.158507    44A      1.191508  
      45A      1.204717    46A      1.209127    47A      1.217976  
      48A      1.224759    49A      1.245247    50A      1.254867  
      51A      1.262058    52A      1.295260    53A      1.296257  
      54A      1.588036    55A      1.666610    56A      1.719809  
      57A      1.743050    58A      1.930226    59A      1.937281  
      60A      2.145330    61A      2.196112    62A      2.223990  
      63A      2.291697    64A      2.320418    65A      2.328958  
      66A      2.412832    67A      2.540861    68A      2.635451  
      69A      2.646380    70A      2.663477    71A      2.740178  
      72A      2.752049    73A      2.771738    74A      2.886931  
      75A      3.008257    76A      3.111379    77A      4.579375  
      78A      4.681235    79A      4.799660    80A      4.957009  

    Final Occupation by Irrep:
              A 
    DOCC [    17 ]

  Energy converged.

  @DF-RHF Final Energy:  -157.29254205960086

   => Energetics <=

    Nuclear Repulsion Energy =            131.9065134453904875
    One-Electron Energy =                -471.7803283649913055
    Two-Electron Energy =                 182.5812728599999275
    DFT Exchange-Correlation Energy =       0.0000000000000000
    Empirical Dispersion Energy =           0.0000000000000000
    PCM Polarization Energy =               0.0000000000000000
    EFP Energy =                            0.0000000000000000
    Total Energy =                       -157.2925420596008905


  Saving occupied orbitals to File 180.

*** tstop() called on lski1497 at Mon Feb 20 17:23:07 2017
Module time:
	user time   =       4.85 seconds =       0.08 minutes
	system time =       0.16 seconds =       0.00 minutes
	total time  =          7 seconds =       0.12 minutes
Total time:
	user time   =       4.85 seconds =       0.08 minutes
	system time =       0.16 seconds =       0.00 minutes
	total time  =          7 seconds =       0.12 minutes


Properties will be evaluated at   0.000000,   0.000000,   0.000000 Bohr

Properties computed using the SCF density matrix

  Nuclear Dipole Moment: (a.u.)
     X:    -0.0767      Y:    -0.0391      Z:     0.1739

  Electronic Dipole Moment: (a.u.)
     X:     0.0829      Y:     0.0416      Z:    -0.1880

  Dipole Moment: (a.u.)
     X:     0.0062      Y:     0.0024      Z:    -0.0141     Total:     0.0155

  Dipole Moment: (Debye)
     X:     0.0157      Y:     0.0062      Z:    -0.0357     Total:     0.0395


  //>>>>>>>>>>>>>>>>>>>>>>>>>>>>>>>>>>>//
  //               DFMP2               //
  //<<<<<<<<<<<<<<<<<<<<<<<<<<<<<<<<<<<//


*** tstart() called on lski1497
*** at Mon Feb 20 17:23:07 2017


*** tstop() called on lski1497 at Mon Feb 20 17:23:08 2017
Module time:
	user time   =       0.52 seconds =       0.01 minutes
	system time =       0.01 seconds =       0.00 minutes
	total time  =          1 seconds =       0.02 minutes
Total time:
	user time   =       5.39 seconds =       0.09 minutes
	system time =       0.17 seconds =       0.00 minutes
	total time  =          8 seconds =       0.13 minutes
	 --------------------------------------------------------
	                          DF-MP2                         
	      2nd-Order Density-Fitted Moller-Plesset Theory     
	              RMP2 Wavefunction,   1 Threads             
	                                                         
	        Rob Parrish, Justin Turney, Andy Simmonett,      
	           Ed Hohenstein, and C. David Sherrill          
	 --------------------------------------------------------

   => Auxiliary Basis Set <=

  Basis Set: 
    Number of shells: 132
    Number of basis function: 364
    Number of Cartesian functions: 414
    Spherical Harmonics?: true
    Max angular momentum: 3

	 --------------------------------------------------------
	                 NBF =    80, NAUX =   364
	 --------------------------------------------------------
	   CLASS    FOCC     OCC    AOCC    AVIR     VIR    FVIR
	   PAIRS       0      17      17      63      63       0
	 --------------------------------------------------------

DGAS Warning! /src/lib/libfock/apps.cc:80 is not currently checking restricted

         ------------------------------------------------------------
                                     CPHF                           
                                  Rob Parrish                       
         ------------------------------------------------------------

  ==> Geometry <==

    Molecular point group: c1
    Full point group: C1

    Geometry (in Angstrom), charge = 0, multiplicity = 1:

       Center              X                  Y                   Z               Mass       
    ------------   -----------------  -----------------  -----------------  -----------------
           H         -2.260282064669     0.085126320548     0.198354277962     1.007825032070
           H         -2.119282064669     1.713126320548    -0.421645722038     1.007825032070
           H         -1.821282064669     0.349126320548    -1.471645722038     1.007825032070
           C         -1.722282064669     0.720126320548    -0.473645722038    12.000000000000
           H          0.304717935331     1.376126320548    -0.751645722038     1.007825032070
           H         -0.133282064669     1.113126320548     0.919354277962     1.007825032070
           C         -0.233282064669     0.741126320548    -0.078645722038    12.000000000000
           H         -0.382282064669    -1.379873679452     0.225354277962     1.007825032070
           H          0.564717935331    -0.927873679452    -1.170645722038     1.007825032070
           C          0.338717935331    -0.686873679452    -0.153645722038    12.000000000000
           H          2.020717935331    -1.762873679452     0.638354277962     1.007825032070
           H          1.398717935331    -0.529873679452     1.708354277962     1.007825032070
           H          2.345717935331    -0.077873679452     0.311354277962     1.007825032070
           C          1.623717935331    -0.770873679452     0.690354277962    12.000000000000

  Nuclear repulsion =  131.906513445390488
  Reference energy  = -157.292542059600862

  ==> Basis Set <==

  Basis Set: 6-31G(D)
    Number of shells: 44
    Number of basis function: 80
    Number of Cartesian functions: 80
    Spherical Harmonics?: false
    Max angular momentum: 2

  ==> CGRSolver (by Rob Parrish) <==

   Number of roots    =         1
   Preconditioning    =    JACOBI
   Convergence cutoff =     1E-06
   Maximum iterations =       100

  ==> CPHFRHamiltonian (by Rob Parrish) <== 

  ==> DFJK: Density-Fitted J/K Matrices <==

    J tasked:                  Yes
    K tasked:                  Yes
    wK tasked:                  No
    OpenMP threads:              1
    Integrals threads:           1
    Memory (MB):               715
    Algorithm:                Core
    Integral Cache:           NONE
    Schwarz Cutoff:          1E-12
    Fitting Condition:       1E-12

   => Auxiliary Basis Set <=

  Basis Set: 
    Number of shells: 186
    Number of basis function: 574
    Number of Cartesian functions: 574
    Spherical Harmonics?: false
    Max angular momentum: 3

  ==> CPHF Iterations <==

  => Iterations <=

             Iter  Converged  Remaining    Residual
  CGR           1          0          1   7.263E-02
  CGR           2          0          1   8.726E-03
  CGR           3          0          1   2.770E-03
  CGR           4          0          1   3.638E-04
  CGR           5          0          1   5.971E-05
  CGR           6          0          1   1.300E-05
  CGR           7          0          1   2.573E-06
  CGR           8          1          0   5.372E-07

    CGRSolver converged.

  ==> DFCorrGrad: Density-Fitted Correlated Gradients <==

    OpenMP threads:              1
    Integrals threads:           1
    Memory (MB):               715
    Schwarz Cutoff:          0E+00
    Fitting Condition:       1E-12

   => Auxiliary Basis Set <=

  Basis Set: 
    Number of shells: 186
    Number of basis function: 510
    Number of Cartesian functions: 574
    Spherical Harmonics?: true
    Max angular momentum: 3

	-----------------------------------------------------------
	 ==================> DF-MP2 Energies <==================== 
	-----------------------------------------------------------
	 Reference Energy          =    -157.2925420596008621 [Eh]
	 Singles Energy            =      -0.0000000000000000 [Eh]
	 Same-Spin Energy          =      -0.1243666384584439 [Eh]
	 Opposite-Spin Energy      =      -0.4201899396420173 [Eh]
	 Correlation Energy        =      -0.5445565781004611 [Eh]
	 Total Energy              =    -157.8370986377013310 [Eh]
	-----------------------------------------------------------
	 ================> DF-SCS-MP2 Energies <================== 
	-----------------------------------------------------------
	 SCS Same-Spin Scale       =       0.3333333333333333 [-]
	 SCS Opposite-Spin Scale   =       1.2000000000000000 [-]
	 SCS Same-Spin Energy      =      -0.0414555461528146 [Eh]
	 SCS Opposite-Spin Energy  =      -0.5042279275704207 [Eh]
	 SCS Correlation Energy    =      -0.5456834737232353 [Eh]
	 SCS Total Energy          =    -157.8382255333241062 [Eh]
	-----------------------------------------------------------


  -Total Gradient:
     Atom            X                  Y                   Z
    ------   -----------------  -----------------  -----------------
       1        0.010475087709     0.009096709616    -0.009052388705
       2        0.010433793028    -0.013696544364     0.000812484143
       3        0.004448233138     0.005830623645     0.015608577449
       4       -0.027434710050    -0.008146977985    -0.007438266275
       5       -0.010442943747    -0.012264917460     0.007505094437
       6       -0.002689632789    -0.007937738199    -0.015652545567
       7        0.023622015622     0.031376530407     0.013090625237
       8        0.011977918654     0.012749164924    -0.004360475707
       9       -0.000497817102     0.006773862461     0.017205581690
      10       -0.019681516577    -0.029745032459    -0.021512057648
      11       -0.010209994428     0.014611405253    -0.001864787851
      12        0.000946321488    -0.003147571755    -0.015965749439
      13       -0.012863951866    -0.009950835209     0.003638389425
      14        0.021917196917     0.004451321126     0.017985518810


			-----------------------------------------
			 OPTKING 2.0: for geometry optimizations 
			  - R.A. King,  Bethel University        
			-----------------------------------------

	Internal coordinates to be generated automatically.
	Detected frag 1 with atoms:  1 2 3 4 5 6 7 8 9 10 11 12 13 14
	---Fragment 1 Bond Connectivity---
	 1 : 4
	 2 : 4
	 3 : 4
	 4 : 1 2 3 7
	 5 : 7
	 6 : 7
	 7 : 4 5 6 10
	 8 : 10
	 9 : 10
	 10 : 7 8 9 14
	 11 : 14
	 12 : 14
	 13 : 14
	 14 : 10 11 12 13

	Assuming in current code that numbering for constraints corresponds to unified fragment.
	Fixed dihedral atom list: 
	     4     7    10    14
	---Fragment 1 Geometry and Gradient---
	 H          -4.2713140853        0.1608654325        0.3748352626
	 H          -4.0048627006        3.2373395769       -0.7967949398
	 H          -3.4417243130        0.6597531316       -2.7810073793
	 C          -3.2546414258        1.3608415269       -0.8950606987
	 H           0.5758334456        2.6005018701       -1.4204045636
	 H          -0.2518666007        2.1035038971        1.7373278044
	 C          -0.4408392139        1.4005257757       -0.1486188762
	 H          -0.7224084077       -2.6075833521        0.4258578682
	 H           1.0671622401       -1.7534271401       -2.2121998133
	 C           0.6400841341       -1.2980031421       -0.2903483361
	 H           3.8186034896       -3.3313484610        1.2063147611
	 H           2.6431938349       -1.0013161392        3.2283217233
	 H           4.4327644828       -0.1471599271        0.5883743157
	 C           3.0683822148       -1.4567401372        1.3045805200
	             0.0104750877        0.0090967096       -0.0090523887
	             0.0104337930       -0.0136965444        0.0008124841
	             0.0044482331        0.0058306236        0.0156085774
	            -0.0274347100       -0.0081469780       -0.0074382663
	            -0.0104429437       -0.0122649175        0.0075050944
	            -0.0026896328       -0.0079377382       -0.0156525456
	             0.0236220156        0.0313765304        0.0130906252
	             0.0119779187        0.0127491649       -0.0043604757
	            -0.0004978171        0.0067738625        0.0172055817
	            -0.0196815166       -0.0297450325       -0.0215120576
	            -0.0102099944        0.0146114053       -0.0018647879
	             0.0009463215       -0.0031475718       -0.0159657494
	            -0.0128639519       -0.0099508352        0.0036383894
	             0.0219171969        0.0044513211        0.0179855188

	Previous optimization step data not found.  Starting new optimization.

	---Fragment 1 Intrafragment Coordinates---
	 - Coordinate -           - BOHR/RAD -       - ANG/DEG -
	 R(1,4)           =         2.021436	       1.069698
	 R(2,4)           =         2.023298	       1.070683
	 R(3,4)           =         2.020723	       1.069320
	 R(4,7)           =         2.911397	       1.540645
	 R(5,7)           =         2.022623	       1.070326
	 R(6,7)           =         2.021555	       1.069761
	 R(7,10)          =         2.910419	       1.540128
	 R(8,10)          =         2.020974	       1.069454
	 R(9,10)          =         2.020723	       1.069320
	 R(10,14)         =         2.909575	       1.539681
	 R(11,14)         =         2.021545	       1.069756
	 R(12,14)         =         2.022122	       1.070061
	 R(13,14)         =         2.022249	       1.070128
	 B(1,4,2)         =         1.910870	     109.484805
	 B(1,4,3)         =         1.911121	     109.499161
	 B(1,4,7)         =         1.910399	     109.457783
	 B(2,4,3)         =         1.910042	     109.437340
	 B(2,4,7)         =         1.910564	     109.467262
	 B(3,4,7)         =         1.910803	     109.480971
	 B(4,7,5)         =         1.909937	     109.431343
	 B(4,7,6)         =         1.911630	     109.528316
	 B(4,7,10)        =         1.911154	     109.501062
	 B(5,7,6)         =         1.910605	     109.469614
	 B(5,7,10)        =         1.910047	     109.437654
	 B(6,7,10)        =         1.910425	     109.459295
	 B(7,10,8)        =         1.910463	     109.461456
	 B(7,10,9)        =         1.911105	     109.498225
	 B(7,10,14)       =         1.911187	     109.502926
	 B(8,10,9)        =         1.910800	     109.480778
	 B(8,10,14)       =         1.910327	     109.453676
	 B(9,10,14)       =         1.909918	     109.430254
	 B(10,14,11)      =         1.910992	     109.491796
	 B(10,14,12)      =         1.911045	     109.494792
	 B(10,14,13)      =         1.910932	     109.488316
	 B(11,14,12)      =         1.910416	     109.458755
	 B(11,14,13)      =         1.910191	     109.445858
	 B(12,14,13)      =         1.910224	     109.447783
	 D(1,4,7,5)       =         3.140997	     179.965873
	 D(1,4,7,6)       =        -1.047644	     -60.025575
	 D(1,4,7,10)      =         1.047427	      60.013132
	 D(2,4,7,5)       =        -1.047689	     -60.028143
	 D(2,4,7,6)       =         1.046856	      59.980409
	 D(2,4,7,10)      =        -3.141259	    -179.980883
	 D(3,4,7,5)       =         1.046044	      59.933911
	 D(3,4,7,6)       =         3.140588	     179.942463
	 D(3,4,7,10)      =        -1.047526	     -60.018830
	 D(4,7,10,8)      =        -0.698260	     -40.007367
	 D(4,7,10,9)      =         1.396523	      80.014897
	 D(4,7,10,14)     =        -2.792515	    -159.999312
	 D(5,7,10,8)      =        -2.791763	    -159.956243
	 D(5,7,10,9)      =        -0.696979	     -39.933978
	 D(5,7,10,14)     =         1.397168	      80.051812
	 D(6,7,10,8)      =         1.397547	      80.073559
	 D(6,7,10,9)      =        -2.790854	    -159.904177
	 D(6,7,10,14)     =        -0.696707	     -39.918386
	 D(7,10,14,11)    =         3.141322	     179.984465
	 D(7,10,14,12)    =         1.046721	      59.972681
	 D(7,10,14,13)    =        -1.047608	     -60.023524
	 D(8,10,14,11)    =         1.046984	      59.987758
	 D(8,10,14,12)    =        -1.047617	     -60.024025
	 D(8,10,14,13)    =         3.141240	     179.979769
	 D(9,10,14,11)    =        -1.046991	     -59.988148
	 D(9,10,14,12)    =         3.141593	     180.000000
	 D(9,10,14,13)    =         1.047265	      60.003862

	Current energy   :      -157.8370986377

	Generating empirical Hessian (Schlegel '84) for each fragment.
	Adding user-defined constraint: Fragment 1; Coordinate 49:
		Value =    -2.792515; Fixed value    =    -2.792527
		Force =    -0.000006; Force constant =     0.500000
	Removing off-diagonal coupling between coordinate 49 and others.
	Taking RFO optimization step.
	Going to follow RFO solution 1.
	Using RFO vector 1.

	Determining step-restricting scale parameter for RS-RFO.
	Maximum step size allowed    0.10000

	 Iter      |step|        alpha        rfo_root  
	------------------------------------------------
	    0     0.23178       1.00000           1
	    1     0.17616       5.25385           1
	    2     0.13510      16.46117           1
	    3     0.11112      32.63791           1
	    4     0.10165      43.28258           1
	    5     0.10005      45.44472           1
	    6     0.10000      45.50737           1
	------------------------------------------------
	Norm of target step-size    0.10000
	Projected energy change by RFO approximation:        -0.0058395149

	Back-transformation to cartesian coordinates...
	Successfully converged to displaced geometry.

	--- Internal Coordinate Step in ANG or DEG, aJ/ANG or AJ/DEG ---
	 ---------------------------------------------------------------------------
	   Coordinate                Previous        Force       Change         New 
	   ----------                --------       ------       ------       ------
	    1 R(1,4)          =      1.069698     0.134747     0.013651     1.083349
	    2 R(2,4)          =      1.070683     0.136203     0.013826     1.084509
	    3 R(3,4)          =      1.069320     0.140078     0.014180     1.083501
	    4 R(4,7)          =      1.540645    -0.017465    -0.002055     1.538590
	    5 R(5,7)          =      1.070326     0.142074     0.014411     1.084738
	    6 R(6,7)          =      1.069761     0.145119     0.014704     1.084464
	    7 R(7,10)         =      1.540128    -0.008743    -0.001028     1.539100
	    8 R(8,10)         =      1.069454     0.147324     0.014918     1.084372
	    9 R(9,10)         =      1.069320     0.148261     0.015009     1.084329
	   10 R(10,14)        =      1.539681    -0.013002    -0.001527     1.538153
	   11 R(11,14)        =      1.069756     0.142099     0.014398     1.084153
	   12 R(12,14)        =      1.070061     0.132618     0.013445     1.083506
	   13 R(13,14)        =      1.070128     0.135212     0.013710     1.083838
	   14 B(1,4,2)        =    109.484805    -0.000288    -0.513660   108.971144
	   15 B(1,4,3)        =    109.499161    -0.000212    -0.399860   109.099302
	   16 B(1,4,7)        =    109.457783     0.000154     0.272280   109.730062
	   17 B(2,4,3)        =    109.437340    -0.000299    -0.528935   108.908405
	   18 B(2,4,7)        =    109.467262     0.000457     0.828458   110.295721
	   19 B(3,4,7)        =    109.480971     0.000187     0.329395   109.810366
	   20 B(4,7,5)        =    109.431343    -0.000180    -0.222602   109.208741
	   21 B(4,7,6)        =    109.528316    -0.000178    -0.265034   109.263282
	   22 B(4,7,10)       =    109.501062     0.000767     1.257931   110.758993
	   23 B(5,7,6)        =    109.469614    -0.000011    -0.191419   109.278195
	   24 B(5,7,10)       =    109.437654    -0.000206    -0.309053   109.128601
	   25 B(6,7,10)       =    109.459295    -0.000192    -0.277219   109.182076
	   26 B(7,10,8)       =    109.461456    -0.000194    -0.282021   109.179434
	   27 B(7,10,9)       =    109.498225    -0.000212    -0.322650   109.175575
	   28 B(7,10,14)      =    109.502926     0.000768     1.259711   110.762637
	   29 B(8,10,9)       =    109.480778    -0.000011    -0.192946   109.287832
	   30 B(8,10,14)      =    109.453676    -0.000171    -0.249548   109.204128
	   31 B(9,10,14)      =    109.430254    -0.000179    -0.219744   109.210510
	   32 B(10,14,11)     =    109.491796     0.000456     0.825182   110.316978
	   33 B(10,14,12)     =    109.494792     0.000148     0.261024   109.755817
	   34 B(10,14,13)     =    109.488316     0.000190     0.334317   109.822633
	   35 B(11,14,12)     =    109.458755    -0.000284    -0.506578   108.952177
	   36 B(11,14,13)     =    109.445858    -0.000301    -0.533203   108.912655
	   37 B(12,14,13)     =    109.447783    -0.000209    -0.394252   109.053531
	   38 D(1,4,7,5)      =    179.965873     0.000023     0.232638   180.198510
	   39 D(1,4,7,6)      =    -60.025575    -0.000031    -0.296212   -60.321787
	   40 D(1,4,7,10)     =     60.013132    -0.000002    -0.024131    59.989001
	   41 D(2,4,7,5)      =    -60.028143     0.000028     0.283878   -59.744265
	   42 D(2,4,7,6)      =     59.980409    -0.000026    -0.244972    59.735438
	   43 D(2,4,7,10)     =   -179.980883     0.000003     0.027109  -179.953774
	   44 D(3,4,7,5)      =     59.933911     0.000034     0.352382    60.286293
	   45 D(3,4,7,6)      =    179.942463    -0.000019    -0.176468   179.765995
	   46 D(3,4,7,10)     =    -60.018830     0.000010     0.095613   -59.923217
	   47 D(4,7,10,8)     =    -40.007367     0.000018     0.179664   -39.827703
	   48 D(4,7,10,9)     =     80.014897    -0.000043    -0.421005    79.593892
	   49 D(4,7,10,14)    =   -159.999312    -0.000015    -0.114882  -160.114194
	   50 D(5,7,10,8)     =   -159.956243    -0.000010    -0.128771  -160.085014
	   51 D(5,7,10,9)     =    -39.933978    -0.000071    -0.729440   -40.663419
	   52 D(5,7,10,14)    =     80.051812    -0.000043    -0.423317    79.628495
	   53 D(6,7,10,8)     =     80.073559     0.000049     0.457914    80.531473
	   54 D(6,7,10,9)     =   -159.904177    -0.000012    -0.142755  -160.046932
	   55 D(6,7,10,14)    =    -39.918386     0.000016     0.163368   -39.755018
	   56 D(7,10,14,11)   =    179.984465     0.000004     0.033913   180.018378
	   57 D(7,10,14,12)   =     59.972681    -0.000001    -0.017776    59.954905
	   58 D(7,10,14,13)   =    -60.023524     0.000010     0.098923   -59.924602
	   59 D(8,10,14,11)   =     59.987758    -0.000025    -0.241150    59.746609
	   60 D(8,10,14,12)   =    -60.024025    -0.000030    -0.292839   -60.316864
	   61 D(8,10,14,13)   =    179.979769    -0.000019    -0.176140   179.803629
	   62 D(9,10,14,11)   =    -59.988148     0.000027     0.277614   -59.710534
	   63 D(9,10,14,12)   =    180.000000     0.000022     0.225993   180.225993
	   64 D(9,10,14,13)   =     60.003862     0.000033     0.342624    60.346486
	 ---------------------------------------------------------------------------
	 Forces used to impose fixed constraints are not included.
	  Forces zeroed: 49 

  ==> Convergence Check <==

  Measures of convergence in internal coordinates in au.
  Criteria marked as inactive (o), active & met (*), and active & unmet ( ).
  --------------------------------------------------------------------------------------------- ~
   Step     Total Energy     Delta E     MAX Force     RMS Force      MAX Disp      RMS Disp    ~
  --------------------------------------------------------------------------------------------- ~
    Convergence Criteria    1.00e-06 *    3.00e-04 *             o    1.20e-03 *             o  ~
  --------------------------------------------------------------------------------------------- ~
      1    -157.83709864   -1.58e+02      1.80e-02      7.29e-03 o    2.84e-02      1.25e-02 o  ~
  ---------------------------------------------------------------------------------------------

	Writing optimization data to binary file.
	Structure for next step:
	Cartesian Geometry (in Angstrom)
	    H    -2.2856431179   0.0782540600   0.1967780415
	    H    -2.1466747631   1.7190838948  -0.4373121751
	    H    -1.8391056138   0.3382393869  -1.4910566877
	    C    -1.7333897736   0.7173878614  -0.4815793025
	    H     0.2969181433   1.3799150422  -0.7662522728
	    H    -0.1512003088   1.1197792194   0.9251968401
	    C    -0.2470928615   0.7352486763  -0.0842604104
	    H    -0.3740638589  -1.3908440490   0.2396134857
	    H     0.5808652258  -0.9276086807  -1.1752828319
	    C     0.3507668136  -0.6817036417  -0.1445766543
	    H     2.0515355391  -1.7676618494   0.6475136675
	    H     1.4157611892  -0.5268188022   1.7284850380
	    H     2.3698422903  -0.0642785747   0.3173830726
	    C     1.6365321910  -0.7672240556   0.6953100807
			--------------------------
			 OPTKING Finished Execution 
			--------------------------

    Structure for next step:
    Molecular point group: c1
    Full point group: C1

    Geometry (in Angstrom), charge = 0, multiplicity = 1:

    H           -2.285632637992     0.078215533546     0.196687837492
    H           -2.146664283133     1.719045368319    -0.437402379023
    H           -1.839095133837     0.338200860461    -1.491146891699
    C           -1.733379293632     0.717349334987    -0.481669506503
    H            0.296928623194     1.379876515804    -0.766342476750
    H           -0.151189828824     1.119740692973     0.925106636173
    C           -0.247082381566     0.735210149861    -0.084350614344
    H           -0.374053379005    -1.390882575481     0.239523281717
    H            0.580875705779    -0.927647207168    -1.175373035847
    C            0.350777293499    -0.681742168112    -0.144666858296
    H            2.051546019002    -1.767700375846     0.647423463525
    H            1.415771669156    -0.526857328653     1.728394834037
    H            2.369852770222    -0.064317101177     0.317292868607
    C            1.636542670972    -0.767262582025     0.695219876766

gradient() will perform analytic gradient computation.
    SCF Algorithm Type (re)set to DF.

*** tstart() called on lski1497
*** at Mon Feb 20 17:23:31 2017


         ---------------------------------------------------------
                                   SCF
            by Justin Turney, Rob Parrish, and Andy Simmonett
                              RHF Reference
                        1 Threads,   1000 MiB Core
         ---------------------------------------------------------

  ==> Geometry <==

    Molecular point group: c1
    Full point group: C1

    Geometry (in Angstrom), charge = 0, multiplicity = 1:

       Center              X                  Y                   Z               Mass       
    ------------   -----------------  -----------------  -----------------  -----------------
           H         -2.285632637992     0.078215533546     0.196687837492     1.007825032070
           H         -2.146664283133     1.719045368319    -0.437402379023     1.007825032070
           H         -1.839095133837     0.338200860461    -1.491146891699     1.007825032070
           C         -1.733379293632     0.717349334987    -0.481669506503    12.000000000000
           H          0.296928623194     1.379876515804    -0.766342476750     1.007825032070
           H         -0.151189828824     1.119740692973     0.925106636173     1.007825032070
           C         -0.247082381566     0.735210149861    -0.084350614344    12.000000000000
           H         -0.374053379005    -1.390882575481     0.239523281717     1.007825032070
           H          0.580875705779    -0.927647207168    -1.175373035847     1.007825032070
           C          0.350777293499    -0.681742168112    -0.144666858296    12.000000000000
           H          2.051546019002    -1.767700375846     0.647423463525     1.007825032070
           H          1.415771669156    -0.526857328653     1.728394834037     1.007825032070
           H          2.369852770222    -0.064317101177     0.317292868607     1.007825032070
           C          1.636542670972    -0.767262582025     0.695219876766    12.000000000000

  Running in c1 symmetry.

  Rotational constants: A =      0.74287  B =      0.12354  C =      0.11653 [cm^-1]
  Rotational constants: A =  22270.58695  B =   3703.60362  C =   3493.55980 [MHz]
  Nuclear repulsion =  131.106889640384082

  Charge       = 0
  Multiplicity = 1
  Electrons    = 34
  Nalpha       = 17
  Nbeta        = 17

  ==> Algorithm <==

  SCF Algorithm Type is DF.
  DIIS enabled.
  MOM disabled.
  Fractional occupation disabled.
  Guess Type is READ.
  Energy threshold   = 1.00e-10
  Density threshold  = 1.00e-10
  Integral threshold = 0.00e+00

  ==> Primary Basis <==

  Basis Set: 6-31G(D)
    Number of shells: 44
    Number of basis function: 80
    Number of Cartesian functions: 80
    Spherical Harmonics?: false
    Max angular momentum: 2

  ==> Pre-Iterations <==

   -------------------------------------------------------
    Irrep   Nso     Nmo     Nalpha   Nbeta   Ndocc  Nsocc
   -------------------------------------------------------
     A         80      80       0       0       0       0
   -------------------------------------------------------
    Total      80      80      17      17      17       0
   -------------------------------------------------------

  ==> Integral Setup <==

  ==> DFJK: Density-Fitted J/K Matrices <==

    J tasked:                  Yes
    K tasked:                  Yes
    wK tasked:                  No
    OpenMP threads:              1
    Integrals threads:           1
    Memory (MB):               715
    Algorithm:                Core
    Integral Cache:           NONE
    Schwarz Cutoff:          1E-12
    Fitting Condition:       1E-12

   => Auxiliary Basis Set <=

  Basis Set: 
    Number of shells: 186
    Number of basis function: 574
    Number of Cartesian functions: 574
    Spherical Harmonics?: false
    Max angular momentum: 3

  Minimum eigenvalue in the overlap matrix is 4.5898501891E-03.
  Using Symmetric Orthogonalization.
  SCF Guess was Projection but file not found.
  Switching over to SAD guess.

  SCF Guess: Superposition of Atomic Densities via on-the-fly atomic UHF.

  ==> Iterations <==

                           Total Energy        Delta E     RMS |[F,P]|

   @DF-RHF iter   0:  -158.88559234839445   -1.58886e+02   4.66198e-02 
   @DF-RHF iter   1:  -157.20579223787368    1.67980e+00   3.95654e-03 
   @DF-RHF iter   2:  -157.28703792643958   -8.12457e-02   1.10561e-03 DIIS
   @DF-RHF iter   3:  -157.29498197324344   -7.94405e-03   2.71146e-04 DIIS
   @DF-RHF iter   4:  -157.29539631670170   -4.14343e-04   7.74812e-05 DIIS
   @DF-RHF iter   5:  -157.29543487177565   -3.85551e-05   1.30558e-05 DIIS
   @DF-RHF iter   6:  -157.29543619512768   -1.32335e-06   2.11454e-06 DIIS
   @DF-RHF iter   7:  -157.29543621926055   -2.41329e-08   7.14372e-07 DIIS
   @DF-RHF iter   8:  -157.29543622158772   -2.32717e-09   1.11652e-07 DIIS
   @DF-RHF iter   9:  -157.29543622168777   -1.00044e-10   2.40698e-08 DIIS
   @DF-RHF iter  10:  -157.29543622169271   -4.94538e-12   4.29411e-09 DIIS
   @DF-RHF iter  11:  -157.29543622169305   -3.41061e-13   9.07204e-10 DIIS
   @DF-RHF iter  12:  -157.29543622169288    1.70530e-13   2.78798e-10 DIIS
   @DF-RHF iter  13:  -157.29543622169294   -5.68434e-14   7.03223e-11 DIIS

  ==> Post-Iterations <==

    Orbital Energies (a.u.)
    -----------------------

    Doubly Occupied:                                                      

       1A    -11.212581     2A    -11.212001     3A    -11.206200  
       4A    -11.206162     5A     -1.068619     6A     -0.978662  
       7A     -0.859162     8A     -0.788803     9A     -0.642764  
      10A     -0.583591    11A     -0.579990    12A     -0.563843  
      13A     -0.511907    14A     -0.501590    15A     -0.468688  
      16A     -0.465211    17A     -0.446953  

    Virtual:                                                              

      18A      0.232107    19A      0.263517    20A      0.285941  
      21A      0.296271    22A      0.323113    23A      0.335186  
      24A      0.335839    25A      0.344464    26A      0.351869  
      27A      0.355154    28A      0.418328    29A      0.430503  
      30A      0.436767    31A      0.701690    32A      0.710069  
      33A      0.749005    34A      0.756047    35A      0.769592  
      36A      0.848514    37A      0.857975    38A      0.929661  
      39A      0.951382    40A      1.016980    41A      1.070959  
      42A      1.095084    43A      1.146481    44A      1.175704  
      45A      1.191312    46A      1.195191    47A      1.205038  
      48A      1.211337    49A      1.237302    50A      1.238941  
      51A      1.246262    52A      1.278105    53A      1.288484  
      54A      1.581689    55A      1.664531    56A      1.722665  
      57A      1.735269    58A      1.928858    59A      1.929990  
      60A      2.143426    61A      2.201840    62A      2.211168  
      63A      2.285839    64A      2.310315    65A      2.325282  
      66A      2.408482    67A      2.515562    68A      2.615137  
      69A      2.627814    70A      2.647096    71A      2.723865  
      72A      2.733895    73A      2.761711    74A      2.885198  
      75A      3.012315    76A      3.104646    77A      4.567593  
      78A      4.672336    79A      4.794019    80A      4.950352  

    Final Occupation by Irrep:
              A 
    DOCC [    17 ]

  Energy converged.

  @DF-RHF Final Energy:  -157.29543622169294

   => Energetics <=

    Nuclear Repulsion Energy =            131.1068896403840824
    One-Electron Energy =                -470.2111967267197770
    Two-Electron Energy =                 181.8088708646427278
    DFT Exchange-Correlation Energy =       0.0000000000000000
    Empirical Dispersion Energy =           0.0000000000000000
    PCM Polarization Energy =               0.0000000000000000
    EFP Energy =                            0.0000000000000000
    Total Energy =                       -157.2954362216929383


  Saving occupied orbitals to File 180.

*** tstop() called on lski1497 at Mon Feb 20 17:23:38 2017
Module time:
	user time   =       4.89 seconds =       0.08 minutes
	system time =       0.14 seconds =       0.00 minutes
	total time  =          7 seconds =       0.12 minutes
Total time:
	user time   =      27.33 seconds =       0.46 minutes
	system time =       0.85 seconds =       0.01 minutes
	total time  =         38 seconds =       0.63 minutes


Properties will be evaluated at   0.000000,   0.000000,   0.000000 Bohr

Properties computed using the SCF density matrix

  Nuclear Dipole Moment: (a.u.)
     X:    -0.0766      Y:    -0.0397      Z:     0.1726

  Electronic Dipole Moment: (a.u.)
     X:     0.0820      Y:     0.0422      Z:    -0.1849

  Dipole Moment: (a.u.)
     X:     0.0054      Y:     0.0026      Z:    -0.0123     Total:     0.0137

  Dipole Moment: (Debye)
     X:     0.0139      Y:     0.0065      Z:    -0.0312     Total:     0.0348


  //>>>>>>>>>>>>>>>>>>>>>>>>>>>>>>>>>>>//
  //               DFMP2               //
  //<<<<<<<<<<<<<<<<<<<<<<<<<<<<<<<<<<<//


*** tstart() called on lski1497
*** at Mon Feb 20 17:23:38 2017


*** tstop() called on lski1497 at Mon Feb 20 17:23:38 2017
Module time:
	user time   =       0.49 seconds =       0.01 minutes
	system time =       0.00 seconds =       0.00 minutes
	total time  =          0 seconds =       0.00 minutes
Total time:
	user time   =      27.84 seconds =       0.46 minutes
	system time =       0.85 seconds =       0.01 minutes
	total time  =         38 seconds =       0.63 minutes
	 --------------------------------------------------------
	                          DF-MP2                         
	      2nd-Order Density-Fitted Moller-Plesset Theory     
	              RMP2 Wavefunction,   1 Threads             
	                                                         
	        Rob Parrish, Justin Turney, Andy Simmonett,      
	           Ed Hohenstein, and C. David Sherrill          
	 --------------------------------------------------------

   => Auxiliary Basis Set <=

  Basis Set: 
    Number of shells: 132
    Number of basis function: 364
    Number of Cartesian functions: 414
    Spherical Harmonics?: true
    Max angular momentum: 3

	 --------------------------------------------------------
	                 NBF =    80, NAUX =   364
	 --------------------------------------------------------
	   CLASS    FOCC     OCC    AOCC    AVIR     VIR    FVIR
	   PAIRS       0      17      17      63      63       0
	 --------------------------------------------------------

DGAS Warning! /src/lib/libfock/apps.cc:80 is not currently checking restricted

         ------------------------------------------------------------
                                     CPHF                           
                                  Rob Parrish                       
         ------------------------------------------------------------

  ==> Geometry <==

    Molecular point group: c1
    Full point group: C1

    Geometry (in Angstrom), charge = 0, multiplicity = 1:

       Center              X                  Y                   Z               Mass       
    ------------   -----------------  -----------------  -----------------  -----------------
           H         -2.285632637992     0.078215533546     0.196687837492     1.007825032070
           H         -2.146664283133     1.719045368319    -0.437402379023     1.007825032070
           H         -1.839095133837     0.338200860461    -1.491146891699     1.007825032070
           C         -1.733379293632     0.717349334987    -0.481669506503    12.000000000000
           H          0.296928623194     1.379876515804    -0.766342476750     1.007825032070
           H         -0.151189828824     1.119740692973     0.925106636173     1.007825032070
           C         -0.247082381566     0.735210149861    -0.084350614344    12.000000000000
           H         -0.374053379005    -1.390882575481     0.239523281717     1.007825032070
           H          0.580875705779    -0.927647207168    -1.175373035847     1.007825032070
           C          0.350777293499    -0.681742168112    -0.144666858296    12.000000000000
           H          2.051546019002    -1.767700375846     0.647423463525     1.007825032070
           H          1.415771669156    -0.526857328653     1.728394834037     1.007825032070
           H          2.369852770222    -0.064317101177     0.317292868607     1.007825032070
           C          1.636542670972    -0.767262582025     0.695219876766    12.000000000000

  Nuclear repulsion =  131.106889640384111
  Reference energy  = -157.295436221692938

  ==> Basis Set <==

  Basis Set: 6-31G(D)
    Number of shells: 44
    Number of basis function: 80
    Number of Cartesian functions: 80
    Spherical Harmonics?: false
    Max angular momentum: 2

  ==> CGRSolver (by Rob Parrish) <==

   Number of roots    =         1
   Preconditioning    =    JACOBI
   Convergence cutoff =     1E-06
   Maximum iterations =       100

  ==> CPHFRHamiltonian (by Rob Parrish) <== 

  ==> DFJK: Density-Fitted J/K Matrices <==

    J tasked:                  Yes
    K tasked:                  Yes
    wK tasked:                  No
    OpenMP threads:              1
    Integrals threads:           1
    Memory (MB):               715
    Algorithm:                Core
    Integral Cache:           NONE
    Schwarz Cutoff:          1E-12
    Fitting Condition:       1E-12

   => Auxiliary Basis Set <=

  Basis Set: 
    Number of shells: 186
    Number of basis function: 574
    Number of Cartesian functions: 574
    Spherical Harmonics?: false
    Max angular momentum: 3

  ==> CPHF Iterations <==

  => Iterations <=

             Iter  Converged  Remaining    Residual
  CGR           1          0          1   7.329E-02
  CGR           2          0          1   8.912E-03
  CGR           3          0          1   2.824E-03
  CGR           4          0          1   3.658E-04
  CGR           5          0          1   6.155E-05
  CGR           6          0          1   1.333E-05
  CGR           7          0          1   2.524E-06
  CGR           8          1          0   5.279E-07

    CGRSolver converged.

  ==> DFCorrGrad: Density-Fitted Correlated Gradients <==

    OpenMP threads:              1
    Integrals threads:           1
    Memory (MB):               715
    Schwarz Cutoff:          0E+00
    Fitting Condition:       1E-12

   => Auxiliary Basis Set <=

  Basis Set: 
    Number of shells: 186
    Number of basis function: 510
    Number of Cartesian functions: 574
    Spherical Harmonics?: true
    Max angular momentum: 3

	-----------------------------------------------------------
	 ==================> DF-MP2 Energies <==================== 
	-----------------------------------------------------------
	 Reference Energy          =    -157.2954362216929383 [Eh]
	 Singles Energy            =      -0.0000000000000000 [Eh]
	 Same-Spin Energy          =      -0.1243089795733542 [Eh]
	 Opposite-Spin Energy      =      -0.4214860908088191 [Eh]
	 Correlation Energy        =      -0.5457950703821733 [Eh]
	 Total Energy              =    -157.8412312920751219 [Eh]
	-----------------------------------------------------------
	 ================> DF-SCS-MP2 Energies <================== 
	-----------------------------------------------------------
	 SCS Same-Spin Scale       =       0.3333333333333333 [-]
	 SCS Opposite-Spin Scale   =       1.2000000000000000 [-]
	 SCS Same-Spin Energy      =      -0.0414363265244514 [Eh]
	 SCS Opposite-Spin Energy  =      -0.5057833089705829 [Eh]
	 SCS Correlation Energy    =      -0.5472196354950343 [Eh]
	 SCS Total Energy          =    -157.8426558571879639 [Eh]
	-----------------------------------------------------------


  -Total Gradient:
     Atom            X                  Y                   Z
    ------   -----------------  -----------------  -----------------
       1        0.005106194041     0.003523612966    -0.003008822282
       2        0.004924164975    -0.004753216652     0.000780231820
       3        0.002972807718     0.002499681482     0.006019177674
       4       -0.016413171375    -0.004948052948    -0.003755872164
       5       -0.005239394550    -0.006498944967     0.000663732295
       6       -0.001866116096    -0.004704786168    -0.005765339491
       7        0.014395130953     0.018793485436     0.007798155147
       8        0.004722024041     0.006168870958    -0.000274348374
       9        0.001948122203     0.004822619542     0.006835856932
      10       -0.011971180472    -0.017637233837    -0.013047011444
      11       -0.004775952327     0.005109521825    -0.001270402317
      12       -0.000659504635    -0.001219192290    -0.006642061319
      13       -0.005774689932    -0.003845827392     0.000442579227
      14        0.012631565457     0.002689462046     0.011224124296


			-----------------------------------------
			 OPTKING 2.0: for geometry optimizations 
			  - R.A. King,  Bethel University        
			-----------------------------------------

	Previous internal coordinate definitions found.
	---Fragment 1 Geometry and Gradient---
	 H          -4.3192197262        0.1478059377        0.3716861465
	 H          -4.0566075944        3.2485249561       -0.8265707062
	 H          -3.4753861353        0.6391070042       -2.8178592492
	 C          -3.2756121494        1.3555937847       -0.9102234539
	 H           0.5611137789        2.6075887121       -1.4481774051
	 H          -0.2857073706        2.1160032496        1.7481981861
	 C          -0.4669180334        1.3893458334       -0.1593995603
	 H          -0.7068584454       -2.6283871507        0.4526334049
	 H           1.0976960012       -1.7529991695       -2.2211331417
	 C           0.6628730183       -1.2883059910       -0.2733807427
	 H           3.8768601249       -3.3404695953        1.2234530381
	 H           2.6754207214       -0.9956160623        3.2661928858
	 H           4.4783727110       -0.1215417069        0.5995966256
	 C           3.0926174529       -1.4499161520        1.3137751692
	             0.0051061940        0.0035236130       -0.0030088223
	             0.0049241650       -0.0047532167        0.0007802318
	             0.0029728077        0.0024996815        0.0060191777
	            -0.0164131714       -0.0049480529       -0.0037558722
	            -0.0052393945       -0.0064989450        0.0006637323
	            -0.0018661161       -0.0047047862       -0.0057653395
	             0.0143951310        0.0187934854        0.0077981551
	             0.0047220240        0.0061688710       -0.0002743484
	             0.0019481222        0.0048226195        0.0068358569
	            -0.0119711805       -0.0176372338       -0.0130470114
	            -0.0047759523        0.0051095218       -0.0012704023
	            -0.0006595046       -0.0012191923       -0.0066420613
	            -0.0057746899       -0.0038458274        0.0004425792
	             0.0126315655        0.0026894620        0.0112241243

	---Fragment 1 Intrafragment Coordinates---
	 - Coordinate -           - BOHR/RAD -       - ANG/DEG -
	 R(1,4)           =         2.047232	       1.083349
	 R(2,4)           =         2.049424	       1.084509
	 R(3,4)           =         2.047520	       1.083501
	 R(4,7)           =         2.907514	       1.538590
	 R(5,7)           =         2.049857	       1.084738
	 R(6,7)           =         2.049341	       1.084464
	 R(7,10)          =         2.908477	       1.539100
	 R(8,10)          =         2.049165	       1.084372
	 R(9,10)          =         2.049085	       1.084329
	 R(10,14)         =         2.906689	       1.538153
	 R(11,14)         =         2.048753	       1.084153
	 R(12,14)         =         2.047529	       1.083506
	 R(13,14)         =         2.048157	       1.083838
	 B(1,4,2)         =         1.901905	     108.971144
	 B(1,4,3)         =         1.904142	     109.099302
	 B(1,4,7)         =         1.915151	     109.730062
	 B(2,4,3)         =         1.900810	     108.908405
	 B(2,4,7)         =         1.925023	     110.295721
	 B(3,4,7)         =         1.916552	     109.810366
	 B(4,7,5)         =         1.906052	     109.208741
	 B(4,7,6)         =         1.907004	     109.263282
	 B(4,7,10)        =         1.933109	     110.758993
	 B(5,7,6)         =         1.907264	     109.278195
	 B(5,7,10)        =         1.904653	     109.128601
	 B(6,7,10)        =         1.905587	     109.182076
	 B(7,10,8)        =         1.905541	     109.179434
	 B(7,10,9)        =         1.905473	     109.175575
	 B(7,10,14)       =         1.933173	     110.762637
	 B(8,10,9)        =         1.907432	     109.287832
	 B(8,10,14)       =         1.905972	     109.204128
	 B(9,10,14)       =         1.906083	     109.210510
	 B(10,14,11)      =         1.925394	     110.316978
	 B(10,14,12)      =         1.915600	     109.755817
	 B(10,14,13)      =         1.916767	     109.822633
	 B(11,14,12)      =         1.901574	     108.952177
	 B(11,14,13)      =         1.900884	     108.912655
	 B(12,14,13)      =         1.903343	     109.053531
	 D(1,4,7,5)       =        -3.138128	    -179.801490
	 D(1,4,7,6)       =        -1.052814	     -60.321787
	 D(1,4,7,10)      =         1.047006	      59.989001
	 D(2,4,7,5)       =        -1.042734	     -59.744265
	 D(2,4,7,6)       =         1.042580	      59.735438
	 D(2,4,7,10)      =        -3.140786	    -179.953774
	 D(3,4,7,5)       =         1.052194	      60.286293
	 D(3,4,7,6)       =         3.137508	     179.765995
	 D(3,4,7,10)      =        -1.045857	     -59.923217
	 D(4,7,10,8)      =        -0.695125	     -39.827703
	 D(4,7,10,9)      =         1.389175	      79.593892
	 D(4,7,10,14)     =        -2.794520	    -160.114194
	 D(5,7,10,8)      =        -2.794011	    -160.085014
	 D(5,7,10,9)      =        -0.709711	     -40.663419
	 D(5,7,10,14)     =         1.389779	      79.628495
	 D(6,7,10,8)      =         1.405539	      80.531473
	 D(6,7,10,9)      =        -2.793346	    -160.046932
	 D(6,7,10,14)     =        -0.693856	     -39.755018
	 D(7,10,14,11)    =        -3.141272	    -179.981622
	 D(7,10,14,12)    =         1.046410	      59.954905
	 D(7,10,14,13)    =        -1.045882	     -59.924602
	 D(8,10,14,11)    =         1.042775	      59.746609
	 D(8,10,14,12)    =        -1.052728	     -60.316864
	 D(8,10,14,13)    =         3.138165	     179.803629
	 D(9,10,14,11)    =        -1.042145	     -59.710534
	 D(9,10,14,12)    =        -3.137648	    -179.774007
	 D(9,10,14,13)    =         1.053245	      60.346486

	Current energy   :      -157.8412312921

	Energy change for the previous step:
		Projected    :        -0.0058395149
		Actual       :        -0.0041326544

	Performing BFGS update.
	Previous computed or guess Hessian on step 1.
	Steps to be used in Hessian update: 1
	Adding user-defined constraint: Fragment 1; Coordinate 49:
		Value =    -2.794520; Fixed value    =    -2.792530
		Force =     0.001045; Force constant =     0.525000
	Removing off-diagonal coupling between coordinate 49 and others.
	Taking RFO optimization step.
	Going to follow RFO solution 1.
	Using RFO vector 1.

	Determining step-restricting scale parameter for RS-RFO.
	Maximum step size allowed    0.10000

	 Iter      |step|        alpha        rfo_root  
	------------------------------------------------
	    0     0.20670       1.00000           1
	    1     0.16032       4.60127           1
	    2     0.12522      13.20759           1
	    3     0.10681      23.15347           1
	    4     0.10073      28.11224           1
	    5     0.10001      28.77232           1
	------------------------------------------------
	Norm of target step-size    0.10001
	Projected energy change by RFO approximation:        -0.0017937066

	Back-transformation to cartesian coordinates...
	Could not converge backtransformation.
	Using first guess instead.

	--- Internal Coordinate Step in ANG or DEG, aJ/ANG or AJ/DEG ---
	 ---------------------------------------------------------------------------
	   Coordinate                Previous        Force       Change         New 
	   ----------                --------       ------       ------       ------
	    1 R(1,4)          =      1.083349     0.054094     0.008377     1.091725
	    2 R(2,4)          =      1.084509     0.051367     0.007584     1.092092
	    3 R(3,4)          =      1.083501     0.055799     0.008560     1.092061
	    4 R(4,7)          =      1.538590    -0.027416    -0.007285     1.531305
	    5 R(5,7)          =      1.084738     0.056907     0.008744     1.093482
	    6 R(6,7)          =      1.084464     0.059317     0.009169     1.093634
	    7 R(7,10)         =      1.539100    -0.018139    -0.004842     1.534257
	    8 R(8,10)         =      1.084372     0.060042     0.009261     1.093632
	    9 R(9,10)         =      1.084329     0.059138     0.009047     1.093377
	   10 R(10,14)        =      1.538153    -0.025424    -0.006904     1.531249
	   11 R(11,14)        =      1.084153     0.053445     0.007864     1.092017
	   12 R(12,14)        =      1.083506     0.053302     0.008261     1.091767
	   13 R(13,14)        =      1.083838     0.054011     0.008310     1.092148
	   14 B(1,4,2)        =    108.971144    -0.000191    -0.666429   108.304715
	   15 B(1,4,3)        =    109.099302    -0.000180    -0.756834   108.342468
	   16 B(1,4,7)        =    109.730062     0.000139     0.553090   110.283152
	   17 B(2,4,3)        =    108.908405    -0.000200    -0.695504   108.212901
	   18 B(2,4,7)        =    110.295721     0.000257     0.851043   111.146764
	   19 B(3,4,7)        =    109.810366     0.000164     0.652728   110.463094
	   20 B(4,7,5)        =    109.208741    -0.000059     0.103575   109.312316
	   21 B(4,7,6)        =    109.263282    -0.000078    -0.155307   109.107975
	   22 B(4,7,10)       =    110.758993     0.000388     1.218110   111.977104
	   23 B(5,7,6)        =    109.278195    -0.000091    -1.011642   108.266553
	   24 B(5,7,10)       =    109.128601    -0.000086    -0.082484   109.046118
	   25 B(6,7,10)       =    109.182076    -0.000079    -0.124740   109.057335
	   26 B(7,10,8)       =    109.179434    -0.000080    -0.125541   109.053894
	   27 B(7,10,9)       =    109.175575    -0.000090    -0.106157   109.069418
	   28 B(7,10,14)      =    110.762637     0.000387     1.215103   111.977740
	   29 B(8,10,9)       =    109.287832    -0.000092    -1.016026   108.271806
	   30 B(8,10,14)      =    109.204128    -0.000073    -0.126676   109.077453
	   31 B(9,10,14)      =    109.210510    -0.000058     0.106762   109.317272
	   32 B(10,14,11)     =    110.316978     0.000255     0.837924   111.154903
	   33 B(10,14,12)     =    109.755817     0.000134     0.532820   110.288637
	   34 B(10,14,13)     =    109.822633     0.000164     0.651011   110.473643
	   35 B(11,14,12)     =    108.952177    -0.000187    -0.653279   108.298898
	   36 B(11,14,13)     =    108.912655    -0.000200    -0.696457   108.216198
	   37 B(12,14,13)     =    109.053531    -0.000176    -0.733879   108.319652
	   38 D(1,4,7,5)      =   -179.801490     0.000021     0.673721  -179.127769
	   39 D(1,4,7,6)      =    -60.321787    -0.000024    -0.583459   -60.905246
	   40 D(1,4,7,10)     =     59.989001    -0.000002    -0.067797    59.921204
	   41 D(2,4,7,5)      =    -59.744265     0.000024     0.746501   -58.997764
	   42 D(2,4,7,6)      =     59.735438    -0.000020    -0.510679    59.224759
	   43 D(2,4,7,10)     =   -179.953774     0.000001     0.004984  -179.948791
	   44 D(3,4,7,5)      =     60.286293     0.000028     0.849906    61.136199
	   45 D(3,4,7,6)      =    179.765995    -0.000016    -0.407274   179.358721
	   46 D(3,4,7,10)     =    -59.923217     0.000006     0.108389   -59.814828
	   47 D(4,7,10,8)     =    -39.827703     0.000015     0.365701   -39.462002
	   48 D(4,7,10,9)     =     79.593892    -0.000034    -0.998885    78.595008
	   49 D(4,7,10,14)    =   -160.114194    -0.000008    -0.163356  -160.277550
	   50 D(5,7,10,8)     =   -160.085014    -0.000011    -0.481944  -160.566957
	   51 D(5,7,10,9)     =    -40.663419    -0.000060    -1.846529   -42.509948
	   52 D(5,7,10,14)    =     79.628495    -0.000034    -1.011000    78.617495
	   53 D(6,7,10,8)     =     80.531473     0.000037     0.862315    81.393788
	   54 D(6,7,10,9)     =   -160.046932    -0.000012    -0.502271  -160.549202
	   55 D(6,7,10,14)    =    -39.755018     0.000014     0.333258   -39.421760
	   56 D(7,10,14,11)   =   -179.981622     0.000002     0.020939  -179.960682
	   57 D(7,10,14,12)   =     59.954905    -0.000001    -0.047229    59.907676
	   58 D(7,10,14,13)   =    -59.924602     0.000006     0.114374   -59.810228
	   59 D(8,10,14,11)   =     59.746609    -0.000020    -0.509185    59.237424
	   60 D(8,10,14,12)   =    -60.316864    -0.000023    -0.577353   -60.894217
	   61 D(8,10,14,13)   =    179.803629    -0.000016    -0.415750   179.387878
	   62 D(9,10,14,11)   =    -59.710534     0.000023     0.734017   -58.976517
	   63 D(9,10,14,12)   =   -179.774007     0.000020     0.665849  -179.108158
	   64 D(9,10,14,13)   =     60.346486     0.000027     0.827451    61.173938
	 ---------------------------------------------------------------------------
	 Forces used to impose fixed constraints are not included.
	  Forces zeroed: 49 

  ==> Convergence Check <==

  Measures of convergence in internal coordinates in au.
  Criteria marked as inactive (o), active & met (*), and active & unmet ( ).
  ---------------------------------------------------------------------------------------------
   Step     Total Energy     Delta E     MAX Force     RMS Force      MAX Disp      RMS Disp   
  ---------------------------------------------------------------------------------------------
    Convergence Criteria    1.00e-06 *    3.00e-04 *             o    1.20e-03 *             o
  ---------------------------------------------------------------------------------------------
      2    -157.84123129   -4.13e-03      7.29e-03      3.23e-03 o    3.22e-02      1.25e-02 o  ~
  ---------------------------------------------------------------------------------------------

	Writing optimization data to binary file.
	Structure for next step:
	Cartesian Geometry (in Angstrom)
	    H    -2.3058213313   0.0844823878   0.1925354183
	    H    -2.1574121538   1.7292556284  -0.4447525646
	    H    -1.8558866880   0.3416925829  -1.5004629742
	    C    -1.7348436069   0.7230073625  -0.4843209676
	    H     0.2978184012   1.3845280263  -0.7650587636
	    H    -0.1592163683   1.1246500967   0.9275665784
	    C    -0.2558967903   0.7289145565  -0.0873623541
	    H    -0.3699981143  -1.3976222007   0.2448041353
	    H     0.5799800353  -0.9321303595  -1.1772226849
	    C     0.3577204385  -0.6763928276  -0.1376691723
	    H     2.0661135572  -1.7762722667   0.6470664600
	    H     1.4334475340  -0.5343400450   1.7381456822
	    H     2.3885183530  -0.0669660501   0.3226204193
	    C     1.6406745474  -0.7715777740   0.6928078237
			--------------------------
			 OPTKING Finished Execution 
			--------------------------

    Structure for next step:
    Molecular point group: c1
    Full point group: C1

    Geometry (in Angstrom), charge = 0, multiplicity = 1:

    H           -2.305972042806     0.084407328631     0.192739364123
    H           -2.157562865380     1.729180569165    -0.444548618769
    H           -1.856037399558     0.341617523669    -1.500259028401
    C           -1.734994318439     0.722932303346    -0.484117021794
    H            0.297667689682     1.384452967111    -0.764854817813
    H           -0.159367079861     1.124575037498     0.927770524164
    C           -0.256047501825     0.728839497305    -0.087158408317
    H           -0.370148825834    -1.397697259943     0.245008081065
    H            0.579829323787    -0.932205418649    -1.177018739140
    C            0.357569726964    -0.676467886822    -0.137465226500
    H            2.065962845628    -1.776347325928     0.647270405811
    H            1.433296822432    -0.534415104202     1.738349627948
    H            2.388367641476    -0.067041109265     0.322824365065
    C            1.640523835847    -0.771652833170     0.693011769514

gradient() will perform analytic gradient computation.
    SCF Algorithm Type (re)set to DF.

*** tstart() called on lski1497
*** at Mon Feb 20 17:24:01 2017


         ---------------------------------------------------------
                                   SCF
            by Justin Turney, Rob Parrish, and Andy Simmonett
                              RHF Reference
                        1 Threads,   1000 MiB Core
         ---------------------------------------------------------

  ==> Geometry <==

    Molecular point group: c1
    Full point group: C1

    Geometry (in Angstrom), charge = 0, multiplicity = 1:

       Center              X                  Y                   Z               Mass       
    ------------   -----------------  -----------------  -----------------  -----------------
           H         -2.305972042806     0.084407328631     0.192739364123     1.007825032070
           H         -2.157562865380     1.729180569165    -0.444548618769     1.007825032070
           H         -1.856037399558     0.341617523669    -1.500259028401     1.007825032070
           C         -1.734994318439     0.722932303346    -0.484117021794    12.000000000000
           H          0.297667689682     1.384452967111    -0.764854817813     1.007825032070
           H         -0.159367079861     1.124575037498     0.927770524164     1.007825032070
           C         -0.256047501825     0.728839497305    -0.087158408317    12.000000000000
           H         -0.370148825834    -1.397697259943     0.245008081065     1.007825032070
           H          0.579829323787    -0.932205418649    -1.177018739140     1.007825032070
           C          0.357569726964    -0.676467886822    -0.137465226500    12.000000000000
           H          2.065962845628    -1.776347325928     0.647270405811     1.007825032070
           H          1.433296822432    -0.534415104202     1.738349627948     1.007825032070
           H          2.388367641476    -0.067041109265     0.322824365065     1.007825032070
           C          1.640523835847    -0.771652833170     0.693011769514    12.000000000000

  Running in c1 symmetry.

  Rotational constants: A =      0.74922  B =      0.12256  C =      0.11581 [cm^-1]
  Rotational constants: A =  22460.96274  B =   3674.20303  C =   3471.97047 [MHz]
  Nuclear repulsion =  130.793843571428852

  Charge       = 0
  Multiplicity = 1
  Electrons    = 34
  Nalpha       = 17
  Nbeta        = 17

  ==> Algorithm <==

  SCF Algorithm Type is DF.
  DIIS enabled.
  MOM disabled.
  Fractional occupation disabled.
  Guess Type is READ.
  Energy threshold   = 1.00e-10
  Density threshold  = 1.00e-10
  Integral threshold = 0.00e+00

  ==> Primary Basis <==

  Basis Set: 6-31G(D)
    Number of shells: 44
    Number of basis function: 80
    Number of Cartesian functions: 80
    Spherical Harmonics?: false
    Max angular momentum: 2

  ==> Pre-Iterations <==

   -------------------------------------------------------
    Irrep   Nso     Nmo     Nalpha   Nbeta   Ndocc  Nsocc
   -------------------------------------------------------
     A         80      80       0       0       0       0
   -------------------------------------------------------
    Total      80      80      17      17      17       0
   -------------------------------------------------------

  ==> Integral Setup <==

  ==> DFJK: Density-Fitted J/K Matrices <==

    J tasked:                  Yes
    K tasked:                  Yes
    wK tasked:                  No
    OpenMP threads:              1
    Integrals threads:           1
    Memory (MB):               715
    Algorithm:                Core
    Integral Cache:           NONE
    Schwarz Cutoff:          1E-12
    Fitting Condition:       1E-12

   => Auxiliary Basis Set <=

  Basis Set: 
    Number of shells: 186
    Number of basis function: 574
    Number of Cartesian functions: 574
    Spherical Harmonics?: false
    Max angular momentum: 3

  Minimum eigenvalue in the overlap matrix is 4.6021499784E-03.
  Using Symmetric Orthogonalization.
  SCF Guess was Projection but file not found.
  Switching over to SAD guess.

  SCF Guess: Superposition of Atomic Densities via on-the-fly atomic UHF.

  ==> Iterations <==

                           Total Energy        Delta E     RMS |[F,P]|

   @DF-RHF iter   0:  -158.85663560303141   -1.58857e+02   4.63455e-02 
   @DF-RHF iter   1:  -157.20609598846875    1.65054e+00   3.94888e-03 
   @DF-RHF iter   2:  -157.28767918676886   -8.15832e-02   1.11686e-03 DIIS
   @DF-RHF iter   3:  -157.29573662753137   -8.05744e-03   2.88906e-04 DIIS
   @DF-RHF iter   4:  -157.29619615987491   -4.59532e-04   7.88773e-05 DIIS
   @DF-RHF iter   5:  -157.29623775028722   -4.15904e-05   1.29964e-05 DIIS
   @DF-RHF iter   6:  -157.29623909237267   -1.34209e-06   1.92919e-06 DIIS
   @DF-RHF iter   7:  -157.29623911460550   -2.22328e-08   6.73696e-07 DIIS
   @DF-RHF iter   8:  -157.29623911659678   -1.99128e-09   1.15398e-07 DIIS
   @DF-RHF iter   9:  -157.29623911669802   -1.01238e-10   2.42739e-08 DIIS
   @DF-RHF iter  10:  -157.29623911670308   -5.05906e-12   4.30893e-09 DIIS
   @DF-RHF iter  11:  -157.29623911670365   -5.68434e-13   7.91650e-10 DIIS
   @DF-RHF iter  12:  -157.29623911670353    1.13687e-13   2.13634e-10 DIIS
   @DF-RHF iter  13:  -157.29623911670370   -1.70530e-13   6.34163e-11 DIIS

  ==> Post-Iterations <==

    Orbital Energies (a.u.)
    -----------------------

    Doubly Occupied:                                                      

       1A    -11.215163     2A    -11.214581     3A    -11.209473  
       4A    -11.209464     5A     -1.068800     6A     -0.978617  
       7A     -0.858462     8A     -0.785946     9A     -0.639693  
      10A     -0.582292    11A     -0.579059    12A     -0.563279  
      13A     -0.511547    14A     -0.498360    15A     -0.464952  
      16A     -0.463667    17A     -0.452231  

    Virtual:                                                              

      18A      0.231640    19A      0.262144    20A      0.283405  
      21A      0.293754    22A      0.321669    23A      0.332656  
      24A      0.332899    25A      0.341963    26A      0.349665  
      27A      0.351557    28A      0.419657    29A      0.432356  
      30A      0.440525    31A      0.702377    32A      0.706238  
      33A      0.749631    34A      0.758649    35A      0.771162  
      36A      0.851145    37A      0.861700    38A      0.931806  
      39A      0.955723    40A      1.016085    41A      1.069108  
      42A      1.100303    43A      1.137810    44A      1.167954  
      45A      1.182568    46A      1.185998    47A      1.197419  
      48A      1.202950    49A      1.230031    50A      1.231822  
      51A      1.238389    52A      1.268799    53A      1.282748  
      54A      1.579743    55A      1.664517    56A      1.729137  
      57A      1.731377    58A      1.924264    59A      1.926871  
      60A      2.138270    61A      2.202168    62A      2.213533  
      63A      2.279604    64A      2.302452    65A      2.325117  
      66A      2.404122    67A      2.498606    68A      2.604125  
      69A      2.620082    70A      2.640084    71A      2.720594  
      72A      2.729625    73A      2.761447    74A      2.889324  
      75A      3.023488    76A      3.101991    77A      4.563300  
      78A      4.667917    79A      4.791081    80A      4.947652  

    Final Occupation by Irrep:
              A 
    DOCC [    17 ]

  Energy converged.

  @DF-RHF Final Energy:  -157.29623911670370

   => Energetics <=

    Nuclear Repulsion Energy =            130.7938435714288516
    One-Electron Energy =                -469.5889901591793887
    Two-Electron Energy =                 181.4989074710470049
    DFT Exchange-Correlation Energy =       0.0000000000000000
    Empirical Dispersion Energy =           0.0000000000000000
    PCM Polarization Energy =               0.0000000000000000
    EFP Energy =                            0.0000000000000000
    Total Energy =                       -157.2962391167035321


  Saving occupied orbitals to File 180.

*** tstop() called on lski1497 at Mon Feb 20 17:24:08 2017
Module time:
	user time   =       4.94 seconds =       0.08 minutes
	system time =       0.14 seconds =       0.00 minutes
	total time  =          7 seconds =       0.12 minutes
Total time:
	user time   =      49.94 seconds =       0.83 minutes
	system time =       1.49 seconds =       0.02 minutes
	total time  =         68 seconds =       1.13 minutes


Properties will be evaluated at   0.000000,   0.000000,   0.000000 Bohr

Properties computed using the SCF density matrix

  Nuclear Dipole Moment: (a.u.)
     X:    -0.0787      Y:    -0.0408      Z:     0.1756

  Electronic Dipole Moment: (a.u.)
     X:     0.0833      Y:     0.0431      Z:    -0.1858

  Dipole Moment: (a.u.)
     X:     0.0046      Y:     0.0023      Z:    -0.0102     Total:     0.0114

  Dipole Moment: (Debye)
     X:     0.0116      Y:     0.0059      Z:    -0.0260     Total:     0.0291


  //>>>>>>>>>>>>>>>>>>>>>>>>>>>>>>>>>>>//
  //               DFMP2               //
  //<<<<<<<<<<<<<<<<<<<<<<<<<<<<<<<<<<<//


*** tstart() called on lski1497
*** at Mon Feb 20 17:24:08 2017


*** tstop() called on lski1497 at Mon Feb 20 17:24:09 2017
Module time:
	user time   =       0.50 seconds =       0.01 minutes
	system time =       0.01 seconds =       0.00 minutes
	total time  =          1 seconds =       0.02 minutes
Total time:
	user time   =      50.45 seconds =       0.84 minutes
	system time =       1.50 seconds =       0.03 minutes
	total time  =         69 seconds =       1.15 minutes
	 --------------------------------------------------------
	                          DF-MP2                         
	      2nd-Order Density-Fitted Moller-Plesset Theory     
	              RMP2 Wavefunction,   1 Threads             
	                                                         
	        Rob Parrish, Justin Turney, Andy Simmonett,      
	           Ed Hohenstein, and C. David Sherrill          
	 --------------------------------------------------------

   => Auxiliary Basis Set <=

  Basis Set: 
    Number of shells: 132
    Number of basis function: 364
    Number of Cartesian functions: 414
    Spherical Harmonics?: true
    Max angular momentum: 3

	 --------------------------------------------------------
	                 NBF =    80, NAUX =   364
	 --------------------------------------------------------
	   CLASS    FOCC     OCC    AOCC    AVIR     VIR    FVIR
	   PAIRS       0      17      17      63      63       0
	 --------------------------------------------------------

DGAS Warning! /src/lib/libfock/apps.cc:80 is not currently checking restricted

         ------------------------------------------------------------
                                     CPHF                           
                                  Rob Parrish                       
         ------------------------------------------------------------

  ==> Geometry <==

    Molecular point group: c1
    Full point group: C1

    Geometry (in Angstrom), charge = 0, multiplicity = 1:

       Center              X                  Y                   Z               Mass       
    ------------   -----------------  -----------------  -----------------  -----------------
           H         -2.305972042806     0.084407328631     0.192739364123     1.007825032070
           H         -2.157562865380     1.729180569165    -0.444548618769     1.007825032070
           H         -1.856037399558     0.341617523669    -1.500259028401     1.007825032070
           C         -1.734994318439     0.722932303346    -0.484117021794    12.000000000000
           H          0.297667689682     1.384452967111    -0.764854817813     1.007825032070
           H         -0.159367079861     1.124575037498     0.927770524164     1.007825032070
           C         -0.256047501825     0.728839497305    -0.087158408317    12.000000000000
           H         -0.370148825834    -1.397697259943     0.245008081065     1.007825032070
           H          0.579829323787    -0.932205418649    -1.177018739140     1.007825032070
           C          0.357569726964    -0.676467886822    -0.137465226500    12.000000000000
           H          2.065962845628    -1.776347325928     0.647270405811     1.007825032070
           H          1.433296822432    -0.534415104202     1.738349627948     1.007825032070
           H          2.388367641476    -0.067041109265     0.322824365065     1.007825032070
           C          1.640523835847    -0.771652833170     0.693011769514    12.000000000000

  Nuclear repulsion =  130.793843571428852
  Reference energy  = -157.296239116703703

  ==> Basis Set <==

  Basis Set: 6-31G(D)
    Number of shells: 44
    Number of basis function: 80
    Number of Cartesian functions: 80
[...]
    Number of basis function: 510
    Number of Cartesian functions: 574
    Spherical Harmonics?: true
    Max angular momentum: 3

	-----------------------------------------------------------
	 ==================> DF-MP2 Energies <==================== 
	-----------------------------------------------------------
	 Reference Energy          =    -157.2965720858488226 [Eh]
	 Singles Energy            =      -0.0000000000000000 [Eh]
	 Same-Spin Energy          =      -0.1244124114298444 [Eh]
	 Opposite-Spin Energy      =      -0.4222442406496162 [Eh]
	 Correlation Energy        =      -0.5466566520794606 [Eh]
	 Total Energy              =    -157.8432287379282855 [Eh]
	-----------------------------------------------------------
	 ================> DF-SCS-MP2 Energies <================== 
	-----------------------------------------------------------
	 SCS Same-Spin Scale       =       0.3333333333333333 [-]
	 SCS Opposite-Spin Scale   =       1.2000000000000000 [-]
	 SCS Same-Spin Energy      =      -0.0414708038099481 [Eh]
	 SCS Opposite-Spin Energy  =      -0.5066930887795394 [Eh]
	 SCS Correlation Energy    =      -0.5481638925894876 [Eh]
	 SCS Total Energy          =    -157.8447359784383082 [Eh]
	-----------------------------------------------------------


  -Total Gradient:
     Atom            X                  Y                   Z
    ------   -----------------  -----------------  -----------------
       1       -0.000012884315    -0.000006449332     0.000001815709
       2       -0.000009861560     0.000008543813     0.000001054323
       3       -0.000006146798    -0.000002774371    -0.000010613535
       4       -0.000647999605    -0.000375301189     0.002557036156
       5        0.000006608475     0.000002454381     0.000001457085
       6        0.000005305337     0.000009355273    -0.000011988268
       7        0.000361800084     0.000251444810    -0.002702129997
       8        0.000006419426    -0.000003329437    -0.000014471126
       9       -0.000005242275    -0.000001867222    -0.000005561172
      10        0.001743452024     0.000818896037    -0.001944801233
      11        0.000007217029    -0.000010374067     0.000004322732
      12        0.000005958795     0.000002919345     0.000012335666
      13        0.000010684977     0.000005037345    -0.000000957732
      14       -0.001465311593    -0.000698555386     0.002112501391


			-----------------------------------------
			 OPTKING 2.0: for geometry optimizations 
			  - R.A. King,  Bethel University        
			-----------------------------------------

	Previous internal coordinate definitions found.
	---Fragment 1 Geometry and Gradient---
	 H          -4.3810753098        0.2102227452        0.3746448755
	 H          -4.0628200040        3.2866354705       -0.8943720075
	 H          -3.5333488643        0.6154228480       -2.8297091417
	 C          -3.2743941816        1.3765148500       -0.9241733201
	 H           0.5877914303        2.6454183286       -1.3930684923
	 H          -0.3199382950        2.1225856267        1.7505344817
	 C          -0.4927169339        1.3669187218       -0.1726186205
	 H          -0.6927889579       -2.6375176602        0.4854388155
	 H           1.0454663356       -1.8149703670       -2.2129774296
	 C           0.6829676855       -1.2701851075       -0.2474315868
	 H           3.9268353388       -3.3557782915        1.1946084740
	 H           2.7175630140       -1.0560617451        3.2981736124
	 H           4.5204904066       -0.1134860467        0.6502050394
	 C           3.1002539252       -1.4650574427        1.3086575309
	            -0.0000128843       -0.0000064493        0.0000018157
	            -0.0000098616        0.0000085438        0.0000010543
	            -0.0000061468       -0.0000027744       -0.0000106135
	            -0.0006479996       -0.0003753012        0.0025570362
	             0.0000066085        0.0000024544        0.0000014571
	             0.0000053053        0.0000093553       -0.0000119883
	             0.0003618001        0.0002514448       -0.0027021300
	             0.0000064194       -0.0000033294       -0.0000144711
	            -0.0000052423       -0.0000018672       -0.0000055612
	             0.0017434520        0.0008188960       -0.0019448012
	             0.0000072170       -0.0000103741        0.0000043227
	             0.0000059588        0.0000029193        0.0000123357
	             0.0000106850        0.0000050373       -0.0000009577
	            -0.0014653116       -0.0006985554        0.0021125014

	---Fragment 1 Intrafragment Coordinates---
	 - Coordinate -           - BOHR/RAD -       - ANG/DEG -
	 R(1,4)           =         2.066860	       1.093735
	 R(2,4)           =         2.066655	       1.093627
	 R(3,4)           =         2.068184	       1.094436
	 R(4,7)           =         2.881433	       1.524789
	 R(5,7)           =         2.071607	       1.096247
	 R(6,7)           =         2.073500	       1.097249
	 R(7,10)          =         2.888278	       1.528411
	 R(8,10)          =         2.073500	       1.097249
	 R(9,10)          =         2.071610	       1.096249
	 R(10,14)         =         2.881434	       1.524789
	 R(11,14)         =         2.066657	       1.093628
	 R(12,14)         =         2.066858	       1.093734
	 R(13,14)         =         2.068182	       1.094435
	 B(1,4,2)         =         1.884107	     107.951407
	 B(1,4,3)         =         1.879984	     107.715125
	 B(1,4,7)         =         1.929564	     110.555872
	 B(2,4,3)         =         1.881413	     107.797020
	 B(2,4,7)         =         1.947232	     111.568165
	 B(3,4,7)         =         1.939025	     111.097921
	 B(4,7,5)         =         1.926026	     110.353172
	 B(4,7,6)         =         1.897733	     108.732065
	 B(4,7,10)        =         1.970610	     112.907612
	 B(5,7,6)         =         1.852547	     106.143102
	 B(5,7,10)        =         1.913371	     109.628060
	 B(6,7,10)        =         1.899539	     108.835544
	 B(7,10,8)        =         1.899538	     108.835523
	 B(7,10,9)        =         1.913369	     109.627977
	 B(7,10,14)       =         1.970609	     112.907559
	 B(8,10,9)        =         1.852545	     106.143003
	 B(8,10,14)       =         1.897735	     108.732187
	 B(9,10,14)       =         1.926028	     110.353303
	 B(10,14,11)      =         1.947229	     111.567976
	 B(10,14,12)      =         1.929561	     110.555712
	 B(10,14,13)      =         1.939022	     111.097772
	 B(11,14,12)      =         1.884110	     107.951523
	 B(11,14,13)      =         1.881415	     107.797152
	 B(12,14,13)      =         1.879988	     107.715404
	 D(1,4,7,5)       =        -3.069845	    -175.889161
	 D(1,4,7,6)       =        -1.044635	     -59.853176
	 D(1,4,7,10)      =         1.065299	      61.037111
	 D(2,4,7,5)       =        -0.972928	     -55.744668
	 D(2,4,7,6)       =         1.052282	      60.291317
	 D(2,4,7,10)      =        -3.120970	    -178.818396
	 D(3,4,7,5)       =         1.127000	      64.572321
	 D(3,4,7,6)       =        -3.130976	    -179.391694
	 D(3,4,7,10)      =        -1.021042	     -58.501407
	 D(4,7,10,8)      =        -0.691022	     -39.592672
	 D(4,7,10,9)      =         1.328197	      76.100071
	 D(4,7,10,14)     =        -2.799930	    -160.424167
	 D(5,7,10,8)      =        -2.846080	    -163.068364
	 D(5,7,10,9)      =        -0.826861	     -47.375621
	 D(5,7,10,14)     =         1.328198	      76.100142
	 D(6,7,10,8)      =         1.417883	      81.238718
	 D(6,7,10,9)      =        -2.846083	    -163.068539
	 D(6,7,10,14)     =        -0.691024	     -39.592776
	 D(7,10,14,11)    =        -3.120963	    -178.818001
	 D(7,10,14,12)    =         1.065307	      61.037593
	 D(7,10,14,13)    =        -1.021036	     -58.501074
	 D(8,10,14,11)    =         1.052288	      60.291689
	 D(8,10,14,12)    =        -1.044627	     -59.852717
	 D(8,10,14,13)    =        -3.130970	    -179.391384
	 D(9,10,14,11)    =        -0.972922	     -55.744322
	 D(9,10,14,12)    =        -3.069837	    -175.888727
	 D(9,10,14,13)    =         1.127005	      64.572606

	Current energy   :      -157.8432287379

	Energy change for the previous step:
		Projected    :        -0.0000028745
		Actual       :        -0.0000003489

	Performing BFGS update.
	Previous computed or guess Hessian on step 1.
	Steps to be used in Hessian update: 7 6
	Adding user-defined constraint: Fragment 1; Coordinate 49:
		Value =    -2.799930; Fixed value    =    -2.792530
		Force =     0.004995; Force constant =     0.675000
	Removing off-diagonal coupling between coordinate 49 and others.
	Taking RFO optimization step.
	Going to follow RFO solution 1.
	Rejecting RFO root 1 because normalization gives large value.
	Using RFO vector 2.

	Determining step-restricting scale parameter for RS-RFO.
	Maximum step size allowed    0.10000

	 Iter      |step|        alpha        rfo_root  
	------------------------------------------------
	    0    95.02775       1.00000           2
	    1    47.54054       1.99902           2
	    2    23.79695       3.99411           2
	    3    11.92517       7.97254           2
	    4     5.98933      15.88261           2
	    5     3.02149      31.51728           2
	    6     1.53775      62.05801           2
	    7     0.79623     120.32842           2
	    8     0.42618     226.40703           2
	    9     0.24257     402.30882           2
	   10     0.15359     644.92041           2
	   11     0.11424     878.94299           2
	   12     0.10165     994.25431           2
	   13     0.10003    1011.29294           2
	   14     0.10000    1011.58865           2
	------------------------------------------------
	Norm of target step-size    0.10000
	Projected energy change by RFO approximation:         0.0000926855

	Back-transformation to cartesian coordinates...
	Could not converge backtransformation.
	Using first guess instead.

	--- Internal Coordinate Step in ANG or DEG, aJ/ANG or AJ/DEG ---
	 ---------------------------------------------------------------------------
	   Coordinate                Previous        Force       Change         New 
	   ----------                --------       ------       ------       ------
	    1 R(1,4)          =      1.093735    -0.000096    -0.001272     1.092463
	    2 R(2,4)          =      1.093627    -0.000097    -0.000907     1.092720
	    3 R(3,4)          =      1.094436    -0.000095    -0.000966     1.093469
	    4 R(4,7)          =      1.524789     0.000106     0.003354     1.528142
	    5 R(5,7)          =      1.096247    -0.000034    -0.001069     1.095178
	    6 R(6,7)          =      1.097249     0.000060    -0.000027     1.097222
	    7 R(7,10)         =      1.528411    -0.000137     0.000890     1.529301
	    8 R(8,10)         =      1.097249     0.000059    -0.000022     1.097228
	    9 R(9,10)         =      1.096249    -0.000040    -0.001157     1.095092
	   10 R(10,14)        =      1.524789     0.000105     0.003386     1.528176
	   11 R(11,14)        =      1.093628    -0.000101    -0.000973     1.092654
	   12 R(12,14)        =      1.093734    -0.000093    -0.001247     1.092487
	   13 R(13,14)        =      1.094435    -0.000089    -0.000891     1.093544
	   14 B(1,4,2)        =    107.951407     0.000001     0.125542   108.076950
	   15 B(1,4,3)        =    107.715125     0.000001     0.158008   107.873133
	   16 B(1,4,7)        =    110.555872    -0.000001    -0.375467   110.180405
	   17 B(2,4,3)        =    107.797020     0.000000     0.074059   107.871079
	   18 B(2,4,7)        =    111.568165    -0.000000     0.021096   111.589261
	   19 B(3,4,7)        =    111.097921    -0.000000     0.014691   111.112611
	   20 B(4,7,5)        =    110.353172     0.000004    -0.666104   109.687068
	   21 B(4,7,6)        =    108.732065    -0.000003     0.484160   109.216226
	   22 B(4,7,10)       =    112.907612    -0.000001    -0.040761   112.866851
	   23 B(5,7,6)        =    106.143102     0.000000     0.334248   106.477350
	   24 B(5,7,10)       =    109.628060     0.000000     0.623565   110.251625
	   25 B(6,7,10)       =    108.835544    -0.000000    -0.712460   108.123084
	   26 B(7,10,8)       =    108.835523    -0.000000    -0.706671   108.128852
	   27 B(7,10,9)       =    109.627977     0.000000     0.616441   110.244418
	   28 B(7,10,14)      =    112.907559    -0.000001    -0.041210   112.866349
	   29 B(8,10,9)       =    106.143003     0.000000     0.335866   106.478869
	   30 B(8,10,14)      =    108.732187    -0.000003     0.489705   109.221892
	   31 B(9,10,14)      =    110.353303     0.000004    -0.671040   109.682263
	   32 B(10,14,11)     =    111.567976    -0.000000     0.020323   111.588299
	   33 B(10,14,12)     =    110.555712    -0.000001    -0.365787   110.189925
	   34 B(10,14,13)     =    111.097772    -0.000000     0.029481   111.127253
	   35 B(11,14,12)     =    107.951523     0.000001     0.120119   108.071641
	   36 B(11,14,13)     =    107.797152     0.000000     0.069119   107.866271
	   37 B(12,14,13)     =    107.715404     0.000001     0.143377   107.858781
	   38 D(1,4,7,5)      =   -175.889161     0.000000     1.165812  -174.723349
	   39 D(1,4,7,6)      =    -59.853176     0.000000     1.472045   -58.381131
	   40 D(1,4,7,10)     =     61.037111    -0.000000     0.880411    61.917522
	   41 D(2,4,7,5)      =    -55.744668     0.000000     1.085535   -54.659133
	   42 D(2,4,7,6)      =     60.291317     0.000000     1.391768    61.683085
	   43 D(2,4,7,10)     =   -178.818396    -0.000000     0.800134  -178.018262
	   44 D(3,4,7,5)      =     64.572321     0.000000     1.204117    65.776438
	   45 D(3,4,7,6)      =   -179.391694     0.000000     1.510350  -177.881344
	   46 D(3,4,7,10)     =    -58.501407    -0.000000     0.918716   -57.582690
	   47 D(4,7,10,8)     =    -39.592672     0.000001     0.314360   -39.278312
	   48 D(4,7,10,9)     =     76.100071     0.000001     0.654177    76.754248
	   49 D(4,7,10,14)    =   -160.424167     0.000002     0.212127  -160.212039
	   50 D(5,7,10,8)     =   -163.068364    -0.000000     0.744383  -162.323980
	   51 D(5,7,10,9)     =    -47.375621     0.000000     1.084200   -46.291421
	   52 D(5,7,10,14)    =     76.100142     0.000001     0.642150    76.742292
	   53 D(6,7,10,8)     =     81.238718    -0.000000     0.405926    81.644644
	   54 D(6,7,10,9)     =   -163.068539    -0.000000     0.745742  -162.322796
	   55 D(6,7,10,14)    =    -39.592776     0.000001     0.303693   -39.289084
	   56 D(7,10,14,11)   =   -178.818001    -0.000000     0.806050  -178.011951
	   57 D(7,10,14,12)   =     61.037593    -0.000000     0.887172    61.924765
	   58 D(7,10,14,13)   =    -58.501074    -0.000000     0.927963   -57.573111
	   59 D(8,10,14,11)   =     60.291689     0.000000     1.386814    61.678502
	   60 D(8,10,14,12)   =    -59.852717     0.000000     1.467936   -58.384781
	   61 D(8,10,14,13)   =   -179.391384     0.000000     1.508727  -177.882657
	   62 D(9,10,14,11)   =    -55.744322     0.000000     1.078258   -54.666064
	   63 D(9,10,14,12)   =   -175.888727     0.000000     1.159379  -174.729348
	   64 D(9,10,14,13)   =     64.572606     0.000000     1.200171    65.772776
	 ---------------------------------------------------------------------------
	 Forces used to impose fixed constraints are not included.
	  Forces zeroed: 49 

  ==> Convergence Check <==

  Measures of convergence in internal coordinates in au.
  Criteria marked as inactive (o), active & met (*), and active & unmet ( ).
  ---------------------------------------------------------------------------------------------
   Step     Total Energy     Delta E     MAX Force     RMS Force      MAX Disp      RMS Disp   
  ---------------------------------------------------------------------------------------------
    Convergence Criteria    1.00e-06 *    3.00e-04 *             o    1.20e-03 *             o
  ---------------------------------------------------------------------------------------------
      8    -157.84322874   -3.49e-07 *    6.10e-05 *    2.14e-05 o    2.64e-02      1.25e-02 o  ~
  ---------------------------------------------------------------------------------------------


  **** Optimization is complete! (in 8 steps) ****

  ==> Optimization Summary <==

  Measures of convergence in internal coordinates in au.
  --------------------------------------------------------------------------------------------------------------- ~
   Step         Total Energy             Delta E       MAX Force       RMS Force        MAX Disp        RMS Disp  ~
  --------------------------------------------------------------------------------------------------------------- ~
      1    -157.837098637701   -157.837098637701      0.01799561      0.00729259      0.02836261      0.01251186  ~
      2    -157.841231292075     -0.004132654374      0.00728775      0.00323185      0.03222801      0.01250081  ~
      3    -157.842738817204     -0.001507525129      0.00229721      0.00097801      0.04808299      0.01251594  ~
      4    -157.843147575144     -0.000408757940      0.00095974      0.00028913      0.03044351      0.01249614  ~
      5    -157.843228186694     -0.000080611550      0.00015393      0.00005728      0.01039184      0.00500257  ~
      6    -157.843234562776     -0.000006376082      0.00018942      0.00004218      0.00501550      0.00249119  ~
      7    -157.843228388981      0.000006173795      0.00013934      0.00004364      0.00362298      0.00173152  ~
      8    -157.843228737928     -0.000000348947      0.00011775      0.00002596      0.02636058      0.01250906  ~
  --------------------------------------------------------------------------------------------------------------- ~

	Writing optimization data to binary file.
	Final energy is   -157.8432287379283
	Final (previous) structure:
	Cartesian Geometry (in Angstrom)
	    H    -2.3183652031   0.1112450855   0.1982535294
	    H    -2.1499517487   1.7392125839  -0.4732812824
	    H    -1.8697676890   0.3256677448  -1.4974175847
	    C    -1.7327347728   0.7284202859  -0.4890514578
	    H     0.3110458283   1.3998950867  -0.7371800961
	    H    -0.1693040539   1.1232239369   0.9263429505
	    C    -0.2607345717   0.7233422336  -0.0913458397
	    H    -0.3666081269  -1.3957142330   0.2568831573
	    H     0.5532369571  -0.9604409525  -1.1710572189
	    C     0.3614109334  -0.6721530096  -0.1309351564
	    H     2.0779917632  -1.7758013889   0.6321595776
	    H     1.4380724099  -0.5588438064   1.7453183056
	    H     2.3921404948  -0.0600542294   0.3440736877
	    C     1.6405837180  -0.7752750080   0.6925117392
	Saving final (previous) structure.
			--------------------------
			 OPTKING Finished Execution 
			--------------------------

    Final optimized geometry and variables:
    Molecular point group: c1
    Full point group: C1

    Geometry (in Angstrom), charge = 0, multiplicity = 1:

    H           -2.318365203060     0.111245085482     0.198253529408
    H           -2.149951748696     1.739212583941    -0.473281282395
    H           -1.869767688963     0.325667744826    -1.497417584716
    C           -1.732734772836     0.728420285896    -0.489051457782
    H            0.311045828336     1.399895086663    -0.737180096139
    H           -0.169304053869     1.123223936938     0.926342950545
    C           -0.260734571716     0.723342233598    -0.091345839741
    H           -0.366608126900    -1.395714233037     0.256883157343
    H            0.553236957138    -0.960440952496    -1.171057218865
    C            0.361410933367    -0.672153009566    -0.130935156402
    H            2.077991763158    -1.775801388947     0.632159577633
    H            1.438072409906    -0.558843806390     1.745318305630
    H            2.392140494815    -0.060054229415     0.344073687746
    C            1.640583718034    -0.775275007954     0.692511739179

	Cleaning optimization helper files.

*** Psi4 exiting successfully. Buy a developer a beer!
