    -----------------------------------------------------------------------
          Psi4: An Open-Source Ab Initio Electronic Structure Package
                              Psi4 1.0.0 Driver

                          Git: Rev {master} 6a9a71b 

    J. M. Turney, A. C. Simmonett, R. M. Parrish, E. G. Hohenstein,
    F. A. Evangelista, J. T. Fermann, B. J. Mintz, L. A. Burns, J. J. Wilke,
    M. L. Abrams, N. J. Russ, M. L. Leininger, C. L. Janssen, E. T. Seidl,
    W. D. Allen, H. F. Schaefer, R. A. King, E. F. Valeev, C. D. Sherrill,
    and T. D. Crawford, WIREs Comput. Mol. Sci. 2, 556-565 (2012)
    (doi: 10.1002/wcms.93)

                         Additional Contributions by
    A. E. DePrince, U. Bozkaya, A. Yu. Sokolov, D. G. A. Smith, R. Di Remigio,
    R. M. Richard, J. F. Gonthier, H. R. McAlexander, M. Saitow, and
    B. P. Pritchard
    -----------------------------------------------------------------------


    Psi4 started on: Tue Feb 21 17:40:07 2017

    Process ID:  34290
    PSI4DATADIR: /Users/sternc1/anaconda/share/psi4
    Memory level set to 256.000 MB

  ==> Input File <==

--------------------------------------------------------------------------

memory 1000 mb

molecule butane {
  symmetry C1
  0 1 
  H      1.604   0.760   -8.260
  H      1.745   2.388   -8.880
  H      2.043   1.024   -9.930
  C      2.142   1.395   -8.932
  H      4.169   2.051   -9.210
  H      3.731   1.788   -7.539
  C      3.631   1.416   -8.537
  H      4.242   -0.432   -7.629
  H      3.575   -0.616   -9.233
  C      4.203   -0.012   -8.612
  H      6.019   -0.959   -9.259
  H      6.250   0.637   -8.587
  H      5.584   0.454   -10.191
  C      5.622   0.033   -9.207
  units Angstrom
}

dih_string = "4 7 10 14 140"
set optking fixed_dihedral = $dih_string

optimize('B3LYP/cc-PVDZ')
--------------------------------------------------------------------------

  Memory set to 1000.000 MiB by Python script.
gradient() will perform analytic gradient computation.

*** tstart() called on lski1497
*** at Tue Feb 21 17:40:09 2017


         ---------------------------------------------------------
                                   SCF
            by Justin Turney, Rob Parrish, and Andy Simmonett
                              RKS Reference
                        1 Threads,   1000 MiB Core
         ---------------------------------------------------------

  ==> Geometry <==

    Molecular point group: c1
    Full point group: C1

    Geometry (in Angstrom), charge = 0, multiplicity = 1:

       Center              X                  Y                   Z               Mass       
    ------------   -----------------  -----------------  -----------------  -----------------
           H         -2.294927354890     0.051739706768     0.570641735300     1.007825032070
           H         -2.153927354890     1.679739706768    -0.049358264700     1.007825032070
           H         -1.855927354890     0.315739706768    -1.099358264700     1.007825032070
           C         -1.756927354890     0.686739706768    -0.101358264700    12.000000000000
           H          0.270072645110     1.342739706768    -0.379358264700     1.007825032070
           H         -0.167927354890     1.079739706768     1.291641735300     1.007825032070
           C         -0.267927354890     0.707739706768     0.293641735300    12.000000000000
           H          0.343072645110    -1.140260293232     1.201641735300     1.007825032070
           H         -0.323927354890    -1.324260293232    -0.402358264700     1.007825032070
           C          0.304072645110    -0.720260293232     0.218641735300    12.000000000000
           H          2.120072645110    -1.667260293232    -0.428358264700     1.007825032070
           H          2.351072645110    -0.071260293232     0.243641735300     1.007825032070
           H          1.685072645110    -0.254260293232    -1.360358264700     1.007825032070
           C          1.723072645110    -0.675260293232    -0.376358264700    12.000000000000

  Running in c1 symmetry.

  Rotational constants: A =      0.67207  B =      0.12768  C =      0.12284 [cm^-1]
  Rotational constants: A =  20148.03356  B =   3827.83283  C =   3682.51788 [MHz]
  Nuclear repulsion =  132.163072371452358

  Charge       = 0
  Multiplicity = 1
  Electrons    = 34
  Nalpha       = 17
  Nbeta        = 17

  ==> Algorithm <==

  SCF Algorithm Type is DF.
  DIIS enabled.
  MOM disabled.
  Fractional occupation disabled.
  Guess Type is SAD.
  Energy threshold   = 1.00e-08
  Density threshold  = 1.00e-08
  Integral threshold = 0.00e+00

  ==> Primary Basis <==

  Basis Set: CC-PVDZ
    Number of shells: 54
    Number of basis function: 106
    Number of Cartesian functions: 110
    Spherical Harmonics?: true
    Max angular momentum: 2

  ==> DFT Potential <==

   => B3LYP Composite Functional <= 

    B3LYP Hybrid-GGA Exchange-Correlation Functional (VWN1-RPA)

    P.J. Stephens et. al., J. Phys. Chem., 98, 11623-11627, 1994

    Points   =           5000
    Deriv    =              1
    GGA      =           TRUE
    Meta     =          FALSE

    X_LRC        =          FALSE
    X_Hybrid     =           TRUE
    X_Alpha      =   2.000000E-01
    X_Omega      =   0.000000E+00
    C_LRC        =          FALSE
    C_Hybrid     =          FALSE
    C_Alpha      =   0.000000E+00
    C_Omega      =   0.000000E+00

   => Exchange Functionals <=

    0.8000    B3_X
    0.2000      HF 

   => Correlation Functionals <=

    0.1900 VWN3RPA_C
    0.8100   LYP_C

   => Molecular Quadrature <=

    Radial Scheme    =       TREUTLER
    Pruning Scheme   =           FLAT
    Nuclear Scheme   =       TREUTLER

    BS radius alpha  =              1
    Pruning alpha    =              1
    Radial Points    =             75
    Spherical Points =            302
    Total Points     =         312740
    Total Blocks     =            274
    Max Points       =           4787
    Max Functions    =            106

  ==> Pre-Iterations <==

   -------------------------------------------------------
    Irrep   Nso     Nmo     Nalpha   Nbeta   Ndocc  Nsocc
   -------------------------------------------------------
     A        106     106       0       0       0       0
   -------------------------------------------------------
    Total     106     106      17      17      17       0
   -------------------------------------------------------

  ==> Integral Setup <==

  ==> DFJK: Density-Fitted J/K Matrices <==

    J tasked:                  Yes
    K tasked:                  Yes
    wK tasked:                  No
    OpenMP threads:              1
    Integrals threads:           1
    Memory (MB):               715
    Algorithm:                Core
    Integral Cache:           NONE
    Schwarz Cutoff:          1E-12
    Fitting Condition:       1E-12

   => Auxiliary Basis Set <=

  Basis Set: 
    Number of shells: 186
    Number of basis function: 510
    Number of Cartesian functions: 574
    Spherical Harmonics?: true
    Max angular momentum: 3

  Minimum eigenvalue in the overlap matrix is 4.2295761382E-03.
  Using Symmetric Orthogonalization.
  SCF Guess: Superposition of Atomic Densities via on-the-fly atomic UHF.

  ==> Iterations <==

                           Total Energy        Delta E     RMS |[F,P]|

   @DF-RKS iter   0:  -159.06832211913795   -1.59068e+02   3.41205e-02 
   @DF-RKS iter   1:  -158.31334787941884    7.54974e-01   4.49191e-03 
   @DF-RKS iter   2:  -158.27884714457551    3.45007e-02   5.17215e-03 DIIS
   @DF-RKS iter   3:  -158.44426781973010   -1.65421e-01   3.56042e-04 DIIS
   @DF-RKS iter   4:  -158.44494529917080   -6.77479e-04   1.22999e-04 DIIS
   @DF-RKS iter   5:  -158.44502099754024   -7.56984e-05   4.40880e-05 DIIS
   @DF-RKS iter   6:  -158.44503172514001   -1.07276e-05   4.44503e-06 DIIS
   @DF-RKS iter   7:  -158.44503184234540   -1.17205e-07   9.02708e-07 DIIS
   @DF-RKS iter   8:  -158.44503184768200   -5.33660e-09   1.38251e-07 DIIS
   @DF-RKS iter   9:  -158.44503184780351   -1.21503e-10   3.00266e-08 DIIS
   @DF-RKS iter  10:  -158.44503184780885   -5.34328e-12   6.70540e-09 DIIS

  ==> Post-Iterations <==

    Orbital Energies (a.u.)
    -----------------------

    Doubly Occupied:                                                      

       1A    -10.169067     2A    -10.168872     3A    -10.164395  
       4A    -10.164345     5A     -0.794639     6A     -0.723254  
       7A     -0.630851     8A     -0.579362     9A     -0.470676  
      10A     -0.430191    11A     -0.424996    12A     -0.401992  
      13A     -0.365628    14A     -0.360615    15A     -0.330359  
      16A     -0.326309    17A     -0.309251  

    Virtual:                                                              

      18A      0.064323    19A      0.089151    20A      0.103181  
      21A      0.109577    22A      0.143940    23A      0.149639  
      24A      0.153421    25A      0.156112    26A      0.161520  
      27A      0.167161    28A      0.227690    29A      0.244726  
      30A      0.255364    31A      0.405268    32A      0.418410  
      33A      0.432758    34A      0.441617    35A      0.473006  
      36A      0.493168    37A      0.505595    38A      0.583159  
      39A      0.594518    40A      0.641121    41A      0.656049  
      42A      0.665307    43A      0.666837    44A      0.678120  
      45A      0.680057    46A      0.687191    47A      0.691326  
      48A      0.700077    49A      0.714950    50A      0.735857  
      51A      0.742337    52A      0.750472    53A      0.880408  
      54A      0.886261    55A      0.976294    56A      1.119650  
      57A      1.143387    58A      1.192328    59A      1.250541  
      60A      1.252422    61A      1.322485    62A      1.357393  
      63A      1.438075    64A      1.441900    65A      1.480244  
      66A      1.513564    67A      1.546154    68A      1.586226  
      69A      1.598547    70A      1.649903    71A      1.653592  
      72A      1.661053    73A      1.681502    74A      1.696780  
      75A      1.704119    76A      1.719487    77A      1.728412  
      78A      1.739224    79A      1.764494    80A      1.766381  
      81A      1.800123    82A      1.806288    83A      1.879468  
      84A      1.928545    85A      1.992271    86A      2.022673  
      87A      2.023532    88A      2.062123    89A      2.074067  
      90A      2.199951    91A      2.217852    92A      2.253750  
      93A      2.276579    94A      2.314406    95A      2.345366  
      96A      2.357111    97A      2.503538    98A      2.510436  
      99A      2.519767   100A      2.546052   101A      2.558114  
     102A      2.598355   103A      2.603657   104A      2.647352  
     105A      2.700269   106A      2.747319  

    Final Occupation by Irrep:
              A 
    DOCC [    17 ]

  Energy converged.

  @DF-RKS Final Energy:  -158.44503184780885

   => Energetics <=

    Nuclear Repulsion Energy =            132.1630723714523583
    One-Electron Energy =                -472.7206863964603372
    Two-Electron Energy =                 202.7935862639058087
    DFT Exchange-Correlation Energy =     -20.6810040867066789
    Empirical Dispersion Energy =           0.0000000000000000
    PCM Polarization Energy =               0.0000000000000000
    EFP Energy =                            0.0000000000000000
    Total Energy =                       -158.4450318478088491


  Saving occupied orbitals to File 180.

*** tstop() called on lski1497 at Tue Feb 21 17:42:13 2017
Module time:
	user time   =     111.37 seconds =       1.86 minutes
	system time =       1.21 seconds =       0.02 minutes
	total time  =        124 seconds =       2.07 minutes
Total time:
	user time   =     111.37 seconds =       1.86 minutes
	system time =       1.21 seconds =       0.02 minutes
	total time  =        124 seconds =       2.07 minutes


Properties will be evaluated at   0.000000,   0.000000,   0.000000 Bohr

Properties computed using the SCF density matrix

  Nuclear Dipole Moment: (a.u.)
     X:    -0.0256      Y:     0.0116      Z:    -0.3858

  Electronic Dipole Moment: (a.u.)
     X:     0.0274      Y:    -0.0126      Z:     0.4104

  Dipole Moment: (a.u.)
     X:     0.0019      Y:    -0.0009      Z:     0.0245     Total:     0.0246

  Dipole Moment: (Debye)
     X:     0.0047      Y:    -0.0024      Z:     0.0623     Total:     0.0625


*** tstart() called on lski1497
*** at Tue Feb 21 17:42:13 2017


         ------------------------------------------------------------
                                   SCF GRAD                          
                          Rob Parrish, Justin Turney,                
                       Andy Simmonett, and Alex Sokolov              
         ------------------------------------------------------------

  ==> Geometry <==

    Molecular point group: c1
    Full point group: C1

    Geometry (in Angstrom), charge = 0, multiplicity = 1:

       Center              X                  Y                   Z               Mass       
    ------------   -----------------  -----------------  -----------------  -----------------
           H         -2.294927354890     0.051739706768     0.570641735300     1.007825032070
           H         -2.153927354890     1.679739706768    -0.049358264700     1.007825032070
           H         -1.855927354890     0.315739706768    -1.099358264700     1.007825032070
           C         -1.756927354890     0.686739706768    -0.101358264700    12.000000000000
           H          0.270072645110     1.342739706768    -0.379358264700     1.007825032070
           H         -0.167927354890     1.079739706768     1.291641735300     1.007825032070
           C         -0.267927354890     0.707739706768     0.293641735300    12.000000000000
           H          0.343072645110    -1.140260293232     1.201641735300     1.007825032070
           H         -0.323927354890    -1.324260293232    -0.402358264700     1.007825032070
           C          0.304072645110    -0.720260293232     0.218641735300    12.000000000000
           H          2.120072645110    -1.667260293232    -0.428358264700     1.007825032070
           H          2.351072645110    -0.071260293232     0.243641735300     1.007825032070
           H          1.685072645110    -0.254260293232    -1.360358264700     1.007825032070
           C          1.723072645110    -0.675260293232    -0.376358264700    12.000000000000

  Nuclear repulsion =  132.163072371452358

  ==> Basis Set <==

  Basis Set: CC-PVDZ
    Number of shells: 54
    Number of basis function: 106
    Number of Cartesian functions: 110
    Spherical Harmonics?: true
    Max angular momentum: 2

  ==> DFJKGrad: Density-Fitted SCF Gradients <==

    Gradient:                    1
    J tasked:                  Yes
    K tasked:                  Yes
    wK tasked:                  No
    OpenMP threads:              1
    Integrals threads:           1
    Memory (MB):               715
    Schwarz Cutoff:          0E+00
    Fitting Condition:       1E-12

   => Auxiliary Basis Set <=

  Basis Set: 
    Number of shells: 186
    Number of basis function: 510
    Number of Cartesian functions: 574
    Spherical Harmonics?: true
    Max angular momentum: 3

  ==> DFT Potential <==

   => B3LYP Composite Functional <= 

    B3LYP Hybrid-GGA Exchange-Correlation Functional (VWN1-RPA)

    P.J. Stephens et. al., J. Phys. Chem., 98, 11623-11627, 1994

    Points   =           5000
    Deriv    =              1
    GGA      =           TRUE
    Meta     =          FALSE

    X_LRC        =          FALSE
    X_Hybrid     =           TRUE
    X_Alpha      =   2.000000E-01
    X_Omega      =   0.000000E+00
    C_LRC        =          FALSE
    C_Hybrid     =          FALSE
    C_Alpha      =   0.000000E+00
    C_Omega      =   0.000000E+00

   => Exchange Functionals <=

    0.8000    B3_X
    0.2000      HF 

   => Correlation Functionals <=

    0.1900 VWN3RPA_C
    0.8100   LYP_C

   => Molecular Quadrature <=

    Radial Scheme    =       TREUTLER
    Pruning Scheme   =           FLAT
    Nuclear Scheme   =       TREUTLER

    BS radius alpha  =              1
    Pruning alpha    =              1
    Radial Points    =             75
    Spherical Points =            302
    Total Points     =         312740
    Total Blocks     =            274
    Max Points       =           4787
    Max Functions    =            106


  -Total Gradient:
     Atom            X                  Y                   Z
    ------   -----------------  -----------------  -----------------
       1        0.014347631261     0.013038918156    -0.012565662194
       2        0.013007673648    -0.018970449764     0.000100694048
       3        0.005006877377     0.007668807659     0.021251580035
       4       -0.028711430858    -0.009653916170    -0.010932504790
       5       -0.011092653874    -0.015448313366     0.012179628898
       6       -0.004222299478    -0.011904779795    -0.019722484681
       7        0.026208585171     0.029828216418     0.008594474290
       8        0.001570624413     0.012904109375    -0.019621214606
       9        0.012915739175     0.014973209925     0.011421670255
      10       -0.024596099781    -0.030407722053     0.010194546145
      11       -0.013085806894     0.019527761417     0.002886403427
      12       -0.016126444952    -0.012542499007    -0.011318694896
      13       -0.002042701766    -0.008138567480     0.020293217001
      14        0.026820520827     0.009125155535    -0.012757398180


*** tstop() called on lski1497 at Tue Feb 21 17:43:00 2017
Module time:
	user time   =      43.23 seconds =       0.72 minutes
	system time =       0.52 seconds =       0.01 minutes
	total time  =         47 seconds =       0.78 minutes
Total time:
	user time   =     154.62 seconds =       2.58 minutes
	system time =       1.73 seconds =       0.03 minutes
	total time  =        171 seconds =       2.85 minutes

			-----------------------------------------
			 OPTKING 2.0: for geometry optimizations 
			  - R.A. King,  Bethel University        
			-----------------------------------------

	Internal coordinates to be generated automatically.
	Detected frag 1 with atoms:  1 2 3 4 5 6 7 8 9 10 11 12 13 14
	---Fragment 1 Bond Connectivity---
	 1 : 4
	 2 : 4
	 3 : 4
	 4 : 1 2 3 7
	 5 : 7
	 6 : 7
	 7 : 4 5 6 10
	 8 : 10
	 9 : 10
	 10 : 7 8 9 14
	 11 : 14
	 12 : 14
	 13 : 14
	 14 : 10 11 12 13

	Assuming in current code that numbering for constraints corresponds to unified fragment.
	Fixed dihedral atom list: 
	     4     7    10    14
	---Fragment 1 Geometry and Gradient---
	 H          -4.3367841956        0.0977738760        1.0783565997
	 H          -4.0703328109        3.1742480203       -0.0932736027
	 H          -3.5071944233        0.5966615751       -2.0774860422
	 C          -3.3201115361        1.2977499704       -0.1915393616
	 H           0.5103633352        2.5374103135       -0.7168832265
	 H          -0.3173367110        2.0404123406        2.4408491415
	 C          -0.5063093243        1.3374342192        0.5549024609
	 H           0.6483133429       -2.1547796744        2.2707737896
	 H          -0.6121339877       -2.5024892829       -0.7603469276
	 C           0.5746140238       -1.3610946986        0.4131730009
	 H           4.0063566811       -3.1506653464       -0.8094798070
	 H           4.4428834178       -0.1346624384        0.4604161543
	 H           3.1843258133       -0.4804823207       -2.5707045629
	 C           3.2561354063       -1.2760570226       -0.7112140481
	             0.0143476313        0.0130389182       -0.0125656622
	             0.0130076736       -0.0189704498        0.0001006940
	             0.0050068774        0.0076688077        0.0212515800
	            -0.0287114309       -0.0096539162       -0.0109325048
	            -0.0110926539       -0.0154483134        0.0121796289
	            -0.0042222995       -0.0119047798       -0.0197224847
	             0.0262085852        0.0298282164        0.0085944743
	             0.0015706244        0.0129041094       -0.0196212146
	             0.0129157392        0.0149732099        0.0114216703
	            -0.0245960998       -0.0304077221        0.0101945461
	            -0.0130858069        0.0195277614        0.0028864034
	            -0.0161264450       -0.0125424990       -0.0113186949
	            -0.0020427018       -0.0081385675        0.0202932170
	             0.0268205208        0.0091251555       -0.0127573982

	Previous optimization step data not found.  Starting new optimization.

	---Fragment 1 Intrafragment Coordinates---
	 - Coordinate -           - BOHR/RAD -       - ANG/DEG -
	 R(1,4)           =         2.021436	       1.069698
	 R(2,4)           =         2.023298	       1.070683
	 R(3,4)           =         2.020723	       1.069320
	 R(4,7)           =         2.911397	       1.540645
	 R(5,7)           =         2.022623	       1.070326
	 R(6,7)           =         2.021555	       1.069761
	 R(7,10)          =         2.910419	       1.540128
	 R(8,10)          =         2.021398	       1.069678
	 R(9,10)          =         2.021955	       1.069972
	 R(10,14)         =         2.908958	       1.539354
	 R(11,14)         =         2.021545	       1.069756
	 R(12,14)         =         2.020859	       1.069392
	 R(13,14)         =         2.023808	       1.070953
	 B(1,4,2)         =         1.910870	     109.484805
	 B(1,4,3)         =         1.911121	     109.499161
	 B(1,4,7)         =         1.910399	     109.457783
	 B(2,4,3)         =         1.910042	     109.437340
	 B(2,4,7)         =         1.910564	     109.467262
	 B(3,4,7)         =         1.910803	     109.480971
	 B(4,7,5)         =         1.909937	     109.431343
	 B(4,7,6)         =         1.911630	     109.528316
	 B(4,7,10)        =         1.911154	     109.501062
	 B(5,7,6)         =         1.910605	     109.469614
	 B(5,7,10)        =         1.910047	     109.437654
	 B(6,7,10)        =         1.910425	     109.459295
	 B(7,10,8)        =         1.910116	     109.441579
	 B(7,10,9)        =         1.911002	     109.492352
	 B(7,10,14)       =         1.911423	     109.516489
	 B(8,10,9)        =         1.910398	     109.457762
	 B(8,10,14)       =         1.910358	     109.455469
	 B(9,10,14)       =         1.910501	     109.463652
	 B(10,14,11)      =         1.911105	     109.498241
	 B(10,14,12)      =         1.911076	     109.496603
	 B(10,14,13)      =         1.911262	     109.507260
	 B(11,14,12)      =         1.911340	     109.511733
	 B(11,14,13)      =         1.910322	     109.453394
	 B(12,14,13)      =         1.908692	     109.360016
	 D(1,4,7,5)       =         3.140997	     179.965873
	 D(1,4,7,6)       =        -1.047644	     -60.025575
	 D(1,4,7,10)      =         1.047427	      60.013132
	 D(2,4,7,5)       =        -1.047689	     -60.028143
	 D(2,4,7,6)       =         1.046856	      59.980409
	 D(2,4,7,10)      =        -3.141259	    -179.980883
	 D(3,4,7,5)       =         1.046044	      59.933911
	 D(3,4,7,6)       =         3.140588	     179.942463
	 D(3,4,7,10)      =        -1.047526	     -60.018830
	 D(4,7,10,8)      =        -1.745364	    -100.002002
	 D(4,7,10,9)      =         0.348652	      19.976299
	 D(4,7,10,14)     =         2.443596	     140.007736
	 D(5,7,10,8)      =         2.444318	     140.049122
	 D(5,7,10,9)      =        -1.744851	     -99.972576
	 D(5,7,10,14)     =         0.350093	      20.058860
	 D(6,7,10,8)      =         0.350443	      20.078924
	 D(6,7,10,9)      =         2.444460	     140.057225
	 D(6,7,10,14)     =        -1.743782	     -99.911338
	 D(7,10,14,11)    =        -3.141550	    -179.997546
	 D(7,10,14,12)    =         1.045813	      59.920675
	 D(7,10,14,13)    =        -1.046861	     -59.980730
	 D(8,10,14,11)    =         1.047559	      60.020692
	 D(8,10,14,12)    =        -1.048264	     -60.061087
	 D(8,10,14,13)    =        -3.140938	    -179.962492
	 D(9,10,14,11)    =        -1.046300	     -59.948555
	 D(9,10,14,12)    =         3.141063	     179.969666
	 D(9,10,14,13)    =         1.048389	      60.068260

	Current energy   :      -158.4450318478

	Generating empirical Hessian (Schlegel '84) for each fragment.
	Adding user-defined constraint: Fragment 1; Coordinate 49:
		Value =     2.443596; Fixed value    =     2.443461
		Force =    -0.000068; Force constant =     0.500000
	Removing off-diagonal coupling between coordinate 49 and others.
	Taking RFO optimization step.
	Going to follow RFO solution 1.
	Using RFO vector 1.

	Determining step-restricting scale parameter for RS-RFO.
	Maximum step size allowed    0.10000

	 Iter      |step|        alpha        rfo_root  
	------------------------------------------------
	    0     0.26671       1.00000           1
	    1     0.19633       5.81217           1
	    2     0.14507      18.66694           1
	    3     0.11529      38.10547           1
	    4     0.10273      52.76149           1
	    5     0.10011      56.60975           1
	    6     0.10000      56.78557           1
	------------------------------------------------
	Norm of target step-size    0.10000
	Projected energy change by RFO approximation:        -0.0079593254

	Back-transformation to cartesian coordinates...
	Successfully converged to displaced geometry.

	--- Internal Coordinate Step in ANG or DEG, aJ/ANG or AJ/DEG ---
	 ---------------------------------------------------------------------------
	   Coordinate                Previous        Force       Change         New 
	   ----------                --------       ------       ------       ------
	    1 R(1,4)          =      1.069698     0.188260     0.014948     1.084646
	    2 R(2,4)          =      1.070683     0.184647     0.014684     1.085367
	    3 R(3,4)          =      1.069320     0.189146     0.015010     1.084330
	    4 R(4,7)          =      1.540645     0.023648     0.002107     1.542752
	    5 R(5,7)          =      1.070326     0.184538     0.014667     1.084993
	    6 R(6,7)          =      1.069761     0.188949     0.015004     1.084765
	    7 R(7,10)         =      1.540128     0.086504     0.007703     1.547830
	    8 R(8,10)         =      1.069678     0.189828     0.015072     1.084750
	    9 R(9,10)         =      1.069972     0.186704     0.014831     1.084803
	   10 R(10,14)        =      1.539354     0.028902     0.002571     1.541925
	   11 R(11,14)        =      1.069756     0.190354     0.015116     1.084871
	   12 R(12,14)        =      1.069392     0.190454     0.015115     1.084507
	   13 R(13,14)        =      1.070953     0.179375     0.014271     1.085224
	   14 B(1,4,2)        =    109.484805    -0.000334    -0.420492   109.064312
	   15 B(1,4,3)        =    109.499161    -0.000244    -0.317890   109.181271
	   16 B(1,4,7)        =    109.457783     0.000234     0.292846   109.750628
	   17 B(2,4,3)        =    109.437340    -0.000304    -0.384422   109.052918
	   18 B(2,4,7)        =    109.467262     0.000476     0.606667   110.073930
	   19 B(3,4,7)        =    109.480971     0.000172     0.215822   109.696793
	   20 B(4,7,5)        =    109.431343    -0.000253    -0.296017   109.135326
	   21 B(4,7,6)        =    109.528316    -0.000292    -0.323424   109.204892
	   22 B(4,7,10)       =    109.501062     0.000942     1.113487   110.614549
	   23 B(5,7,6)        =    109.469614    -0.000002    -0.099611   109.370003
	   24 B(5,7,10)       =    109.437654    -0.000212    -0.217697   109.219958
	   25 B(6,7,10)       =    109.459295    -0.000183    -0.181429   109.277866
	   26 B(7,10,8)       =    109.441579    -0.000184    -0.182664   109.258915
	   27 B(7,10,9)       =    109.492352    -0.000217    -0.225116   109.267236
	   28 B(7,10,14)      =    109.516489     0.000942     1.113872   110.630361
	   29 B(8,10,9)       =    109.457762    -0.000002    -0.100026   109.357736
	   30 B(8,10,14)      =    109.455469    -0.000286    -0.314134   109.141335
	   31 B(9,10,14)      =    109.463652    -0.000254    -0.296967   109.166685
	   32 B(10,14,11)     =    109.498241     0.000478     0.607860   110.106102
	   33 B(10,14,12)     =    109.496603     0.000228     0.284733   109.781337
	   34 B(10,14,13)     =    109.507260     0.000169     0.212727   109.719987
	   35 B(11,14,12)     =    109.511733    -0.000335    -0.421576   109.090156
	   36 B(11,14,13)     =    109.453394    -0.000307    -0.388561   109.064833
	   37 B(12,14,13)     =    109.360016    -0.000234    -0.304201   109.055815
	   38 D(1,4,7,5)      =    179.965873     0.000030     0.190775   180.156648
	   39 D(1,4,7,6)      =    -60.025575    -0.000047    -0.305181   -60.330756
	   40 D(1,4,7,10)     =     60.013132    -0.000007    -0.042199    59.970933
	   41 D(2,4,7,5)      =    -60.028143     0.000036     0.231087   -59.797055
	   42 D(2,4,7,6)      =     59.980409    -0.000041    -0.264869    59.715541
	   43 D(2,4,7,10)     =   -179.980883    -0.000001    -0.001887  -179.982770
	   44 D(3,4,7,5)      =     59.933911     0.000042     0.267388    60.201298
	   45 D(3,4,7,6)      =    179.942463    -0.000035    -0.228568   179.713894
	   46 D(3,4,7,10)     =    -60.018830     0.000005     0.034414   -59.984416
	   47 D(4,7,10,8)     =   -100.002002     0.000042     0.267527   -99.734475
	   48 D(4,7,10,9)     =     19.976299    -0.000015    -0.101819    19.874480
	   49 D(4,7,10,14)    =    140.007736     0.000016     0.080605   140.088341
	   50 D(5,7,10,8)     =    140.049122     0.000011     0.081343   140.130466
	   51 D(5,7,10,9)     =    -99.972576    -0.000046    -0.288003  -100.260580
	   52 D(5,7,10,14)    =     20.058860    -0.000016    -0.105579    19.953281
	   53 D(6,7,10,8)     =     20.078924     0.000066     0.444667    20.523591
	   54 D(6,7,10,9)     =    140.057225     0.000010     0.075321   140.132546
	   55 D(6,7,10,14)    =    -99.911338     0.000040     0.257745   -99.653594
	   56 D(7,10,14,11)   =   -179.997546    -0.000000     0.001873  -179.995673
	   57 D(7,10,14,12)   =     59.920675    -0.000005    -0.034131    59.886544
	   58 D(7,10,14,13)   =    -59.980730     0.000005     0.032831   -59.947899
	   59 D(8,10,14,11)   =     60.020692    -0.000041    -0.263867    59.756825
	   60 D(8,10,14,12)   =    -60.061087    -0.000046    -0.299871   -60.360958
	   61 D(8,10,14,13)   =   -179.962492    -0.000036    -0.232909  -180.195401
	   62 D(9,10,14,11)   =    -59.948555     0.000036     0.226858   -59.721697
	   63 D(9,10,14,12)   =    179.969666     0.000030     0.190854   180.160520
	   64 D(9,10,14,13)   =     60.068260     0.000041     0.257816    60.326077
	 ---------------------------------------------------------------------------
	 Forces used to impose fixed constraints are not included.
	  Forces zeroed: 49 

  ==> Convergence Check <==

  Measures of convergence in internal coordinates in au.
  Criteria marked as inactive (o), active & met (*), and active & unmet ( ).
  --------------------------------------------------------------------------------------------- ~
   Step     Total Energy     Delta E     MAX Force     RMS Force      MAX Disp      RMS Disp    ~
  --------------------------------------------------------------------------------------------- ~
    Convergence Criteria    1.00e-06 *    3.00e-04 *             o    1.20e-03 *             o  ~
  --------------------------------------------------------------------------------------------- ~
      1    -158.44503185   -1.58e+02      2.31e-02      9.66e-03 o    2.86e-02      1.25e-02 o  ~
  ---------------------------------------------------------------------------------------------

	Writing optimization data to binary file.
	Structure for next step:
	Cartesian Geometry (in Angstrom)
	    H    -2.3231202667   0.0364573776   0.5780855334
	    H    -2.1900463355   1.6864524921  -0.0410477489
	    H    -1.8833358025   0.3144373976  -1.1114078013
	    C    -1.7761144347   0.6847304317  -0.0979196818
	    H     0.2529630176   1.3583872629  -0.3872625516
	    H    -0.1854178495   1.0816416254   1.3056282462
	    C    -0.2838449679   0.7054365718   0.2929599897
	    H     0.3620650767  -1.1430664870   1.2126867875
	    H    -0.3085468650  -1.3392164977  -0.4137762712
	    C     0.3195457726  -0.7178425300   0.2156619208
	    H     2.1572457734  -1.6744683534  -0.4264292319
	    H     2.3803370874  -0.0562711734   0.2476372026
	    H     1.7105767543  -0.2521378438  -1.3757655886
	    C     1.7427100714  -0.6731843790  -0.3760665106
			--------------------------
			 OPTKING Finished Execution 
			--------------------------

    Structure for next step:
    Molecular point group: c1
    Full point group: C1

    Geometry (in Angstrom), charge = 0, multiplicity = 1:

    H           -2.323121375948     0.036423070023     0.578072516314
    H           -2.190047444789     1.686418184499    -0.041060766010
    H           -1.883336911804     0.314403090020    -1.111420818345
    C           -1.776115543937     0.684696124140    -0.097932698883
    H            0.252961908280     1.358352955301    -0.387275568672
    H           -0.185418958737     1.081607317851     1.305615229094
    C           -0.283846077164     0.705402264269     0.292946972660
    H            0.362063967393    -1.143100794603     1.212673770423
    H           -0.308547974320    -1.339250805262    -0.413789288308
    C            0.319544663303    -0.717876837539     0.215648903765
    H            2.157244664140    -1.674502660933    -0.426442249001
    H            2.380335978138    -0.056305480993     0.247624185561
    H            1.710575645053    -0.252172151401    -1.375778605644
    C            1.742708962102    -0.673218686617    -0.376079527644

gradient() will perform analytic gradient computation.

*** tstart() called on lski1497
*** at Tue Feb 21 17:43:01 2017


         ---------------------------------------------------------
                                   SCF
            by Justin Turney, Rob Parrish, and Andy Simmonett
                              RKS Reference
                        1 Threads,   1000 MiB Core
         ---------------------------------------------------------

  ==> Geometry <==

    Molecular point group: c1
    Full point group: C1

    Geometry (in Angstrom), charge = 0, multiplicity = 1:

       Center              X                  Y                   Z               Mass       
    ------------   -----------------  -----------------  -----------------  -----------------
           H         -2.323121375948     0.036423070023     0.578072516314     1.007825032070
           H         -2.190047444789     1.686418184499    -0.041060766010     1.007825032070
           H         -1.883336911804     0.314403090020    -1.111420818345     1.007825032070
           C         -1.776115543937     0.684696124140    -0.097932698883    12.000000000000
           H          0.252961908280     1.358352955301    -0.387275568672     1.007825032070
           H         -0.185418958737     1.081607317851     1.305615229094     1.007825032070
           C         -0.283846077164     0.705402264269     0.292946972660    12.000000000000
           H          0.362063967393    -1.143100794603     1.212673770423     1.007825032070
           H         -0.308547974320    -1.339250805262    -0.413789288308     1.007825032070
           C          0.319544663303    -0.717876837539     0.215648903765    12.000000000000
           H          2.157244664140    -1.674502660933    -0.426442249001     1.007825032070
           H          2.380335978138    -0.056305480993     0.247624185561     1.007825032070
           H          1.710575645053    -0.252172151401    -1.375778605644     1.007825032070
           C          1.742708962102    -0.673218686617    -0.376079527644    12.000000000000

  Running in c1 symmetry.

  Rotational constants: A =      0.66995  B =      0.12506  C =      0.12052 [cm^-1]
  Rotational constants: A =  20084.47393  B =   3749.06122  C =   3613.10153 [MHz]
  Nuclear repulsion =  131.035089556535439

  Charge       = 0
  Multiplicity = 1
  Electrons    = 34
  Nalpha       = 17
  Nbeta        = 17

  ==> Algorithm <==

  SCF Algorithm Type is DF.
  DIIS enabled.
  MOM disabled.
  Fractional occupation disabled.
  Guess Type is READ.
  Energy threshold   = 1.00e-08
  Density threshold  = 1.00e-08
  Integral threshold = 0.00e+00

  ==> Primary Basis <==

  Basis Set: CC-PVDZ
    Number of shells: 54
    Number of basis function: 106
    Number of Cartesian functions: 110
    Spherical Harmonics?: true
    Max angular momentum: 2

  ==> DFT Potential <==

   => B3LYP Composite Functional <= 

    B3LYP Hybrid-GGA Exchange-Correlation Functional (VWN1-RPA)

    P.J. Stephens et. al., J. Phys. Chem., 98, 11623-11627, 1994

    Points   =           5000
    Deriv    =              1
    GGA      =           TRUE
    Meta     =          FALSE

    X_LRC        =          FALSE
    X_Hybrid     =           TRUE
    X_Alpha      =   2.000000E-01
    X_Omega      =   0.000000E+00
    C_LRC        =          FALSE
    C_Hybrid     =          FALSE
    C_Alpha      =   0.000000E+00
    C_Omega      =   0.000000E+00

   => Exchange Functionals <=

    0.8000    B3_X
    0.2000      HF 

   => Correlation Functionals <=

    0.1900 VWN3RPA_C
    0.8100   LYP_C

   => Molecular Quadrature <=

    Radial Scheme    =       TREUTLER
    Pruning Scheme   =           FLAT
    Nuclear Scheme   =       TREUTLER

    BS radius alpha  =              1
    Pruning alpha    =              1
    Radial Points    =             75
    Spherical Points =            302
    Total Points     =         312768
    Total Blocks     =            275
    Max Points       =           4833
    Max Functions    =            106

  ==> Pre-Iterations <==

   -------------------------------------------------------
    Irrep   Nso     Nmo     Nalpha   Nbeta   Ndocc  Nsocc
   -------------------------------------------------------
     A        106     106       0       0       0       0
   -------------------------------------------------------
    Total     106     106      17      17      17       0
   -------------------------------------------------------

  ==> Integral Setup <==

  ==> DFJK: Density-Fitted J/K Matrices <==

    J tasked:                  Yes
    K tasked:                  Yes
    wK tasked:                  No
    OpenMP threads:              1
    Integrals threads:           1
    Memory (MB):               715
    Algorithm:                Core
    Integral Cache:           NONE
    Schwarz Cutoff:          1E-12
    Fitting Condition:       1E-12

   => Auxiliary Basis Set <=

  Basis Set: 
    Number of shells: 186
    Number of basis function: 510
    Number of Cartesian functions: 574
    Spherical Harmonics?: true
    Max angular momentum: 3

  Minimum eigenvalue in the overlap matrix is 4.3125925302E-03.
  Using Symmetric Orthogonalization.
  SCF Guess was Projection but file not found.
  Switching over to SAD guess.

  SCF Guess: Superposition of Atomic Densities via on-the-fly atomic UHF.

  ==> Iterations <==

                           Total Energy        Delta E     RMS |[F,P]|

   @DF-RKS iter   0:  -158.99834394597048   -1.58998e+02   3.32823e-02 
   @DF-RKS iter   1:  -158.32632825862134    6.72016e-01   4.35126e-03 
   @DF-RKS iter   2:  -158.29008520759604    3.62431e-02   5.06884e-03 DIIS
   @DF-RKS iter   3:  -158.45020606119067   -1.60121e-01   3.48776e-04 DIIS
   @DF-RKS iter   4:  -158.45086567602013   -6.59615e-04   1.19061e-04 DIIS
   @DF-RKS iter   5:  -158.45093617946173   -7.05034e-05   4.46709e-05 DIIS
   @DF-RKS iter   6:  -158.45094724742597   -1.10680e-05   4.41118e-06 DIIS
   @DF-RKS iter   7:  -158.45094736342440   -1.15998e-07   8.90628e-07 DIIS
   @DF-RKS iter   8:  -158.45094736867091   -5.24651e-09   1.41661e-07 DIIS
   @DF-RKS iter   9:  -158.45094736880154   -1.30626e-10   2.96406e-08 DIIS
   @DF-RKS iter  10:  -158.45094736880725   -5.71276e-12   5.09020e-09 DIIS

  ==> Post-Iterations <==

    Orbital Energies (a.u.)
    -----------------------

    Doubly Occupied:                                                      

       1A    -10.174069     2A    -10.173903     3A    -10.169814  
       4A    -10.169779     5A     -0.790871     6A     -0.720746  
       7A     -0.628158     8A     -0.575068     9A     -0.467104  
      10A     -0.428015    11A     -0.422165    12A     -0.400551  
      13A     -0.363700    14A     -0.358569    15A     -0.327766  
      16A     -0.324159    17A     -0.312578  

    Virtual:                                                              

      18A      0.062353    19A      0.086577    20A      0.100662  
      21A      0.107351    22A      0.141279    23A      0.145670  
      24A      0.150366    25A      0.153558    26A      0.156757  
      27A      0.163305    28A      0.224585    29A      0.244161  
      30A      0.254221    31A      0.404214    32A      0.415879  
      33A      0.428641    34A      0.437049    35A      0.473370  
      36A      0.493848    37A      0.504677    38A      0.579632  
      39A      0.589676    40A      0.633803    41A      0.648907  
      42A      0.657537    43A      0.659475    44A      0.673860  
      45A      0.674131    46A      0.678419    47A      0.683758  
      48A      0.695241    49A      0.705397    50A      0.729671  
      51A      0.731405    52A      0.743299    53A      0.880563  
      54A      0.882380    55A      0.972849    56A      1.112108  
      57A      1.143560    58A      1.189765    59A      1.240254  
      60A      1.244694    61A      1.313174    62A      1.349754  
      63A      1.428972    64A      1.432246    65A      1.477934  
      66A      1.499185    67A      1.538523    68A      1.581049  
      69A      1.586212    70A      1.640283    71A      1.642865  
      72A      1.652136    73A      1.671286    74A      1.682890  
      75A      1.687977    76A      1.705636    77A      1.721411  
      78A      1.727681    79A      1.753714    80A      1.753817  
      81A      1.786807    82A      1.790602    83A      1.871337  
      84A      1.909642    85A      1.971676    86A      2.007470  
      87A      2.020200    88A      2.052594    89A      2.061635  
      90A      2.174036    91A      2.193380    92A      2.231755  
      93A      2.252100    94A      2.294646    95A      2.312818  
      96A      2.328122    97A      2.460244    98A      2.466778  
      99A      2.486729   100A      2.517615   101A      2.529685  
     102A      2.558514   103A      2.583068   104A      2.616378  
     105A      2.669307   106A      2.716965  

    Final Occupation by Irrep:
              A 
    DOCC [    17 ]

  Energy converged.

  @DF-RKS Final Energy:  -158.45094736880725

   => Energetics <=

    Nuclear Repulsion Energy =            131.0350895565354392
    One-Electron Energy =                -470.5258184863284328
    Two-Electron Energy =                 201.6721827380286243
    DFT Exchange-Correlation Energy =     -20.6324011770428619
    Empirical Dispersion Energy =           0.0000000000000000
    PCM Polarization Energy =               0.0000000000000000
    EFP Energy =                            0.0000000000000000
    Total Energy =                       -158.4509473688072489


  Saving occupied orbitals to File 180.

*** tstop() called on lski1497 at Tue Feb 21 17:45:05 2017
Module time:
	user time   =     100.29 seconds =       1.67 minutes
	system time =       1.03 seconds =       0.02 minutes
	total time  =        124 seconds =       2.07 minutes
Total time:
	user time   =     255.55 seconds =       4.26 minutes
	system time =       2.79 seconds =       0.05 minutes
	total time  =        296 seconds =       4.93 minutes


Properties will be evaluated at   0.000000,   0.000000,   0.000000 Bohr

Properties computed using the SCF density matrix

  Nuclear Dipole Moment: (a.u.)
     X:    -0.0256      Y:     0.0111      Z:    -0.3860

  Electronic Dipole Moment: (a.u.)
     X:     0.0272      Y:    -0.0118      Z:     0.4084

  Dipole Moment: (a.u.)
     X:     0.0016      Y:    -0.0007      Z:     0.0223     Total:     0.0224

  Dipole Moment: (Debye)
     X:     0.0041      Y:    -0.0017      Z:     0.0567     Total:     0.0569


*** tstart() called on lski1497
*** at Tue Feb 21 17:45:05 2017


         ------------------------------------------------------------
                                   SCF GRAD                          
                          Rob Parrish, Justin Turney,                
                       Andy Simmonett, and Alex Sokolov              
         ------------------------------------------------------------

  ==> Geometry <==

    Molecular point group: c1
    Full point group: C1

    Geometry (in Angstrom), charge = 0, multiplicity = 1:

       Center              X                  Y                   Z               Mass       
    ------------   -----------------  -----------------  -----------------  -----------------
           H         -2.323121375948     0.036423070023     0.578072516314     1.007825032070
           H         -2.190047444789     1.686418184499    -0.041060766010     1.007825032070
           H         -1.883336911804     0.314403090020    -1.111420818345     1.007825032070
           C         -1.776115543937     0.684696124140    -0.097932698883    12.000000000000
           H          0.252961908280     1.358352955301    -0.387275568672     1.007825032070
           H         -0.185418958737     1.081607317851     1.305615229094     1.007825032070
           C         -0.283846077164     0.705402264269     0.292946972660    12.000000000000
           H          0.362063967393    -1.143100794603     1.212673770423     1.007825032070
           H         -0.308547974320    -1.339250805262    -0.413789288308     1.007825032070
           C          0.319544663303    -0.717876837539     0.215648903765    12.000000000000
           H          2.157244664140    -1.674502660933    -0.426442249001     1.007825032070
           H          2.380335978138    -0.056305480993     0.247624185561     1.007825032070
           H          1.710575645053    -0.252172151401    -1.375778605644     1.007825032070
           C          1.742708962102    -0.673218686617    -0.376079527644    12.000000000000

  Nuclear repulsion =  131.035089556535439

  ==> Basis Set <==

  Basis Set: CC-PVDZ
    Number of shells: 54
    Number of basis function: 106
    Number of Cartesian functions: 110
    Spherical Harmonics?: true
    Max angular momentum: 2

  ==> DFJKGrad: Density-Fitted SCF Gradients <==

    Gradient:                    1
    J tasked:                  Yes
    K tasked:                  Yes
    wK tasked:                  No
    OpenMP threads:              1
    Integrals threads:           1
    Memory (MB):               715
    Schwarz Cutoff:          0E+00
    Fitting Condition:       1E-12

   => Auxiliary Basis Set <=

  Basis Set: 
    Number of shells: 186
    Number of basis function: 510
    Number of Cartesian functions: 574
    Spherical Harmonics?: true
    Max angular momentum: 3

  ==> DFT Potential <==

   => B3LYP Composite Functional <= 

    B3LYP Hybrid-GGA Exchange-Correlation Functional (VWN1-RPA)

    P.J. Stephens et. al., J. Phys. Chem., 98, 11623-11627, 1994

    Points   =           5000
    Deriv    =              1
    GGA      =           TRUE
    Meta     =          FALSE

    X_LRC        =          FALSE
    X_Hybrid     =           TRUE
    X_Alpha      =   2.000000E-01
    X_Omega      =   0.000000E+00
    C_LRC        =          FALSE
    C_Hybrid     =          FALSE
    C_Alpha      =   0.000000E+00
    C_Omega      =   0.000000E+00

   => Exchange Functionals <=

    0.8000    B3_X
    0.2000      HF 

   => Correlation Functionals <=

    0.1900 VWN3RPA_C
    0.8100   LYP_C

   => Molecular Quadrature <=

    Radial Scheme    =       TREUTLER
    Pruning Scheme   =           FLAT
    Nuclear Scheme   =       TREUTLER

    BS radius alpha  =              1
    Pruning alpha    =              1
    Radial Points    =             75
    Spherical Points =            302
    Total Points     =         312768
    Total Blocks     =            275
    Max Points       =           4833
    Max Functions    =            106


  -Total Gradient:
     Atom            X                  Y                   Z
    ------   -----------------  -----------------  -----------------
       1        0.008490301055     0.006821107796    -0.005843255364
       2        0.007705350981    -0.009265096860     0.000202090333
       3        0.003762401315     0.003986785945     0.011067911854
       4       -0.019621416276    -0.006484505651    -0.007803014709
       5       -0.006030208298    -0.009371894338     0.005326522318
       6       -0.003556766306    -0.008136028129    -0.009457245072
       7        0.017836372912     0.021320676356     0.005938820127
       8        0.002310274352     0.008628441465    -0.009496865724
       9        0.006834788710     0.009141654011     0.004984858474
      10       -0.016768574317    -0.021654329296     0.006911812514
      11       -0.007705393390     0.009517874092     0.001741366586
      12       -0.009289798645    -0.006548590919    -0.005107456344
      13       -0.002167513953    -0.004212289018     0.010781987190
      14        0.018200493314     0.006256089261    -0.009242768382


*** tstop() called on lski1497 at Tue Feb 21 17:45:51 2017
Module time:
	user time   =      40.17 seconds =       0.67 minutes
	system time =       0.49 seconds =       0.01 minutes
	total time  =         46 seconds =       0.77 minutes
Total time:
	user time   =     295.74 seconds =       4.93 minutes
	system time =       3.28 seconds =       0.05 minutes
	total time  =        342 seconds =       5.70 minutes

			-----------------------------------------
			 OPTKING 2.0: for geometry optimizations 
			  - R.A. King,  Bethel University        
			-----------------------------------------

	Previous internal coordinate definitions found.
	---Fragment 1 Geometry and Gradient---
	 H          -4.3900631740        0.0688296273        1.0923987408
	 H          -4.1385898887        3.1868685142       -0.0775936026
	 H          -3.5589909793        0.5941357355       -2.1002809651
	 C          -3.3563719584        1.2938881589       -0.1850659803
	 H           0.4780287287        2.5669150773       -0.7318447627
	 H          -0.3503910519        2.0439416141        2.4672552179
	 C          -0.5363913497        1.3330170930        0.5535895498
	 H           0.6842017410       -2.1601474441        2.2916213146
	 H          -0.5830711703       -2.5308172452       -0.7819484316
	 C           0.6038519009       -1.3565906201        0.4075173690
	 H           4.0766016169       -3.1643514380       -0.8058590621
	 H           4.4981831029       -0.1064019389        0.4679418946
	 H           3.2325194987       -0.4765363045       -2.5998447842
	 C           3.2932426677       -1.2721989452       -0.7106873114
	             0.0084903011        0.0068211078       -0.0058432554
	             0.0077053510       -0.0092650969        0.0002020903
	             0.0037624013        0.0039867859        0.0110679119
	            -0.0196214163       -0.0064845057       -0.0078030147
	            -0.0060302083       -0.0093718943        0.0053265223
	            -0.0035567663       -0.0081360281       -0.0094572451
	             0.0178363729        0.0213206764        0.0059388201
	             0.0023102744        0.0086284415       -0.0094968657
	             0.0068347887        0.0091416540        0.0049848585
	            -0.0167685743       -0.0216543293        0.0069118125
	            -0.0077053934        0.0095178741        0.0017413666
	            -0.0092897986       -0.0065485909       -0.0051074563
	            -0.0021675140       -0.0042122890        0.0107819872
	             0.0182004933        0.0062560893       -0.0092427684

	---Fragment 1 Intrafragment Coordinates---
	 - Coordinate -           - BOHR/RAD -       - ANG/DEG -
	 R(1,4)           =         2.049683	       1.084646
	 R(2,4)           =         2.051046	       1.085367
	 R(3,4)           =         2.049087	       1.084330
	 R(4,7)           =         2.915379	       1.542752
	 R(5,7)           =         2.050340	       1.084993
	 R(6,7)           =         2.049909	       1.084765
	 R(7,10)          =         2.924975	       1.547830
	 R(8,10)          =         2.049880	       1.084750
	 R(9,10)          =         2.049981	       1.084803
	 R(10,14)         =         2.913816	       1.541925
	 R(11,14)         =         2.050110	       1.084871
	 R(12,14)         =         2.049422	       1.084507
	 R(13,14)         =         2.050776	       1.085224
	 B(1,4,2)         =         1.903531	     109.064312
	 B(1,4,3)         =         1.905573	     109.181271
	 B(1,4,7)         =         1.915510	     109.750628
	 B(2,4,3)         =         1.903332	     109.052918
	 B(2,4,7)         =         1.921152	     110.073930
	 B(3,4,7)         =         1.914570	     109.696793
	 B(4,7,5)         =         1.904771	     109.135326
	 B(4,7,6)         =         1.905985	     109.204892
	 B(4,7,10)        =         1.930588	     110.614549
	 B(5,7,6)         =         1.908867	     109.370003
	 B(5,7,10)        =         1.906248	     109.219958
	 B(6,7,10)        =         1.907259	     109.277866
	 B(7,10,8)        =         1.906928	     109.258915
	 B(7,10,9)        =         1.907073	     109.267236
	 B(7,10,14)       =         1.930864	     110.630361
	 B(8,10,9)        =         1.908653	     109.357736
	 B(8,10,14)       =         1.904876	     109.141335
	 B(9,10,14)       =         1.905318	     109.166685
	 B(10,14,11)      =         1.921714	     110.106102
	 B(10,14,12)      =         1.916046	     109.781337
	 B(10,14,13)      =         1.914975	     109.719987
	 B(11,14,12)      =         1.903982	     109.090156
	 B(11,14,13)      =         1.903540	     109.064833
	 B(12,14,13)      =         1.903383	     109.055815
	 D(1,4,7,5)       =        -3.138859	    -179.843352
	 D(1,4,7,6)       =        -1.052970	     -60.330756
	 D(1,4,7,10)      =         1.046690	      59.970933
	 D(2,4,7,5)       =        -1.043655	     -59.797055
	 D(2,4,7,6)       =         1.042233	      59.715541
	 D(2,4,7,10)      =        -3.141292	    -179.982770
	 D(3,4,7,5)       =         1.050711	      60.201298
	 D(3,4,7,6)       =         3.136599	     179.713894
	 D(3,4,7,10)      =        -1.046926	     -59.984416
	 D(4,7,10,8)      =        -1.740695	     -99.734475
	 D(4,7,10,9)      =         0.346875	      19.874480
	 D(4,7,10,14)     =         2.445003	     140.088341
	 D(5,7,10,8)      =         2.445738	     140.130466
	 D(5,7,10,9)      =        -1.749877	    -100.260580
	 D(5,7,10,14)     =         0.348250	      19.953281
	 D(6,7,10,8)      =         0.358204	      20.523591
	 D(6,7,10,9)      =         2.445774	     140.132546
	 D(6,7,10,14)     =        -1.739283	     -99.653594
	 D(7,10,14,11)    =        -3.141517	    -179.995673
	 D(7,10,14,12)    =         1.045217	      59.886544
	 D(7,10,14,13)    =        -1.046288	     -59.947899
	 D(8,10,14,11)    =         1.042953	      59.756825
	 D(8,10,14,12)    =        -1.053497	     -60.360958
	 D(8,10,14,13)    =         3.138182	     179.804599
	 D(9,10,14,11)    =        -1.042340	     -59.721697
	 D(9,10,14,12)    =        -3.138791	    -179.839480
	 D(9,10,14,13)    =         1.052889	      60.326077

	Current energy   :      -158.4509473688

	Energy change for the previous step:
		Projected    :        -0.0079593254
		Actual       :        -0.0059155210

	Performing BFGS update.
	Previous computed or guess Hessian on step 1.
	Steps to be used in Hessian update: 1
	Adding user-defined constraint: Fragment 1; Coordinate 49:
		Value =     2.445003; Fixed value    =     2.443460
		Force =    -0.000810; Force constant =     0.525000
	Removing off-diagonal coupling between coordinate 49 and others.
	Taking RFO optimization step.
	Going to follow RFO solution 1.
	Using RFO vector 1.

	Determining step-restricting scale parameter for RS-RFO.
	Maximum step size allowed    0.10000

	 Iter      |step|        alpha        rfo_root  
	------------------------------------------------
	    0     0.21741       1.00000           1
	    1     0.16344       5.46123           1
	    2     0.12719      15.13116           1
	    3     0.10787      27.09775           1
	    4     0.10096      33.79719           1
	    5     0.10002      34.84733           1
	    6     0.10000      34.86654           1
	------------------------------------------------
	Norm of target step-size    0.10000
	Projected energy change by RFO approximation:        -0.0040209643

	Back-transformation to cartesian coordinates...
	Successfully converged to displaced geometry.

	--- Internal Coordinate Step in ANG or DEG, aJ/ANG or AJ/DEG ---
	 ---------------------------------------------------------------------------
	   Coordinate                Previous        Force       Change         New 
	   ----------                --------       ------       ------       ------
	    1 R(1,4)          =      1.084646     0.098872     0.012350     1.096996
	    2 R(2,4)          =      1.085367     0.094572     0.011571     1.096938
	    3 R(3,4)          =      1.084330     0.099508     0.012442     1.096772
	    4 R(4,7)          =      1.542752    -0.002824    -0.002571     1.540181
	    5 R(5,7)          =      1.084993     0.098557     0.012492     1.097486
	    6 R(6,7)          =      1.084765     0.098645     0.012260     1.097025
	    7 R(7,10)         =      1.547830     0.036356     0.003593     1.551424
	    8 R(8,10)         =      1.084750     0.099037     0.012301     1.097051
	    9 R(9,10)         =      1.084803     0.099571     0.012601     1.097405
	   10 R(10,14)        =      1.541925     0.000344    -0.002076     1.539849
	   11 R(11,14)        =      1.084871     0.097295     0.011871     1.096743
	   12 R(12,14)        =      1.084507     0.099892     0.012459     1.096967
	   13 R(13,14)        =      1.085224     0.094763     0.011912     1.097136
	   14 B(1,4,2)        =    109.064312    -0.000258    -0.684388   108.379924
	   15 B(1,4,3)        =    109.181271    -0.000222    -0.675135   108.506136
	   16 B(1,4,7)        =    109.750628     0.000215     0.635008   110.385636
	   17 B(2,4,3)        =    109.052918    -0.000235    -0.626031   108.426888
	   18 B(2,4,7)        =    110.073930     0.000322     0.774345   110.848275
	   19 B(3,4,7)        =    109.696793     0.000170     0.527119   110.223912
	   20 B(4,7,5)        =    109.135326    -0.000151    -0.273564   108.861762
	   21 B(4,7,6)        =    109.204892    -0.000165    -0.252209   108.952683
	   22 B(4,7,10)       =    110.614549     0.000595     1.305148   111.919697
	   23 B(5,7,6)        =    109.370003    -0.000072    -0.577460   108.792543
	   24 B(5,7,10)       =    109.219958    -0.000118    -0.165453   109.054505
	   25 B(6,7,10)       =    109.277866    -0.000093    -0.070156   109.207710
	   26 B(7,10,8)       =    109.258915    -0.000093    -0.067497   109.191419
	   27 B(7,10,9)       =    109.267236    -0.000122    -0.177244   109.089992
	   28 B(7,10,14)      =    110.630361     0.000593     1.297885   111.928246
	   29 B(8,10,9)       =    109.357736    -0.000072    -0.577433   108.780302
	   30 B(8,10,14)      =    109.141335    -0.000160    -0.232451   108.908884
	   31 B(9,10,14)      =    109.166685    -0.000152    -0.277218   108.889466
	   32 B(10,14,11)     =    110.106102     0.000321     0.768115   110.874216
	   33 B(10,14,12)     =    109.781337     0.000209     0.617079   110.398416
	   34 B(10,14,13)     =    109.719987     0.000167     0.518445   110.238432
	   35 B(11,14,12)     =    109.090156    -0.000258    -0.686381   108.403776
	   36 B(11,14,13)     =    109.064833    -0.000236    -0.627981   108.436852
	   37 B(12,14,13)     =    109.055815    -0.000212    -0.639231   108.416584
	   38 D(1,4,7,5)      =   -179.843352     0.000025     0.395538  -179.447814
	   39 D(1,4,7,6)      =    -60.330756    -0.000038    -0.610886   -60.941643
	   40 D(1,4,7,10)     =     59.970933    -0.000004    -0.039166    59.931767
	   41 D(2,4,7,5)      =    -59.797055     0.000029     0.446694   -59.350361
	   42 D(2,4,7,6)      =     59.715541    -0.000034    -0.559731    59.155810
	   43 D(2,4,7,10)     =   -179.982770     0.000000     0.011990  -179.970780
	   44 D(3,4,7,5)      =     60.201298     0.000033     0.498723    60.700022
	   45 D(3,4,7,6)      =    179.713894    -0.000030    -0.507701   179.206193
	   46 D(3,4,7,10)     =    -59.984416     0.000004     0.064019   -59.920397
	   47 D(4,7,10,8)     =    -99.734475     0.000035     0.622116   -99.112359
	   48 D(4,7,10,9)     =     19.874480    -0.000014    -0.224091    19.650389
	   49 D(4,7,10,14)    =    140.088341     0.000010     0.134354   140.222695
	   50 D(5,7,10,8)     =    140.130466     0.000011     0.248870   140.379335
	   51 D(5,7,10,9)     =   -100.260580    -0.000039    -0.597337  -100.857917
	   52 D(5,7,10,14)    =     19.953281    -0.000015    -0.238892    19.714389
	   53 D(6,7,10,8)     =     20.523591     0.000060     1.089479    21.613070
	   54 D(6,7,10,9)     =    140.132546     0.000010     0.243272   140.375818
	   55 D(6,7,10,14)    =    -99.653594     0.000034     0.601718   -99.051876
	   56 D(7,10,14,11)   =   -179.995673     0.000001     0.019678  -179.975995
	   57 D(7,10,14,12)   =     59.886544    -0.000003    -0.015140    59.871404
	   58 D(7,10,14,13)   =    -59.947899     0.000004     0.061009   -59.886890
	   59 D(8,10,14,11)   =     59.756825    -0.000034    -0.561771    59.195054
	   60 D(8,10,14,12)   =    -60.360958    -0.000037    -0.596589   -60.957547
	   61 D(8,10,14,13)   =    179.804599    -0.000031    -0.520441   179.284158
	   62 D(9,10,14,11)   =    -59.721697     0.000029     0.434551   -59.287146
	   63 D(9,10,14,12)   =   -179.839480     0.000025     0.399733  -179.439747
	   64 D(9,10,14,13)   =     60.326077     0.000032     0.475881    60.801958
	 ---------------------------------------------------------------------------
	 Forces used to impose fixed constraints are not included.
	  Forces zeroed: 49 

  ==> Convergence Check <==

  Measures of convergence in internal coordinates in au.
  Criteria marked as inactive (o), active & met (*), and active & unmet ( ).
  ---------------------------------------------------------------------------------------------
   Step     Total Energy     Delta E     MAX Force     RMS Force      MAX Disp      RMS Disp   
  ---------------------------------------------------------------------------------------------
    Convergence Criteria    1.00e-06 *    3.00e-04 *             o    1.20e-03 *             o
  ---------------------------------------------------------------------------------------------
      2    -158.45094737   -5.92e-03      1.21e-02      5.26e-03 o    2.38e-02      1.25e-02 o  ~
  ---------------------------------------------------------------------------------------------

	Writing optimization data to binary file.
	Structure for next step:
	Cartesian Geometry (in Angstrom)
	    H    -2.3521836809   0.0261613805   0.5821060264
	    H    -2.2214080516   1.6909270636  -0.0318879050
	    H    -1.9142682349   0.3160512554  -1.1191523422
	    C    -1.7910800432   0.6837891642  -0.0932367398
	    H     0.2352246864   1.3721792674  -0.3928337474
	    H    -0.1994258409   1.0844985853   1.3136121380
	    C    -0.2996510311   0.7006324142   0.2908382975
	    H     0.3765768573  -1.1463116507   1.2186973060
	    H    -0.2919895319  -1.3526537496  -0.4224704302
	    C     0.3347698791  -0.7129336566   0.2117436613
	    H     2.1899319403  -1.6794886406  -0.4220034005
	    H     2.4098432533  -0.0460751689   0.2483984045
	    H     1.7401950163  -0.2535538116  -1.3874528369
	    C     1.7584662837  -0.6723468638  -0.3735563764
			--------------------------
			 OPTKING Finished Execution 
			--------------------------

    Structure for next step:
    Molecular point group: c1
    Full point group: C1

    Geometry (in Angstrom), charge = 0, multiplicity = 1:

    H           -2.352224010298     0.026135225316     0.581877925741
    H           -2.221448380914     1.690900908345    -0.032116005705
    H           -1.914308564278     0.316025100179    -1.119380442871
    C           -1.791120372562     0.683763008992    -0.093464840462
    H            0.235184357007     1.372153112208    -0.393061848090
    H           -0.199466170277     1.084472430123     1.313384037278
    C           -0.299691360498     0.700606258957     0.290610196780
    H            0.376536527948    -1.146337805926     1.218469205304
    H           -0.292029861287    -1.352679904776    -0.422698530856
    C            0.334729549752    -0.712959811837     0.211515560587
    H            2.189891610940    -1.679514795810    -0.422231501176
    H            2.409802923966    -0.046101324068     0.248170303850
    H            1.740154686922    -0.253579966793    -1.387680937620
    C            1.758425954349    -0.672373019047    -0.373784477075

gradient() will perform analytic gradient computation.

*** tstart() called on lski1497
*** at Tue Feb 21 17:45:52 2017


         ---------------------------------------------------------
                                   SCF
            by Justin Turney, Rob Parrish, and Andy Simmonett
                              RKS Reference
                        1 Threads,   1000 MiB Core
         ---------------------------------------------------------

  ==> Geometry <==

    Molecular point group: c1
    Full point group: C1

    Geometry (in Angstrom), charge = 0, multiplicity = 1:

       Center              X                  Y                   Z               Mass       
    ------------   -----------------  -----------------  -----------------  -----------------
           H         -2.352224010298     0.026135225316     0.581877925741     1.007825032070
           H         -2.221448380914     1.690900908345    -0.032116005705     1.007825032070
           H         -1.914308564278     0.316025100179    -1.119380442871     1.007825032070
           C         -1.791120372562     0.683763008992    -0.093464840462    12.000000000000
           H          0.235184357007     1.372153112208    -0.393061848090     1.007825032070
           H         -0.199466170277     1.084472430123     1.313384037278     1.007825032070
           C         -0.299691360498     0.700606258957     0.290610196780    12.000000000000
           H          0.376536527948    -1.146337805926     1.218469205304     1.007825032070
           H         -0.292029861287    -1.352679904776    -0.422698530856     1.007825032070
           C          0.334729549752    -0.712959811837     0.211515560587    12.000000000000
           H          2.189891610940    -1.679514795810    -0.422231501176     1.007825032070
           H          2.409802923966    -0.046101324068     0.248170303850     1.007825032070
           H          1.740154686922    -0.253579966793    -1.387680937620     1.007825032070
           C          1.758425954349    -0.672373019047    -0.373784477075    12.000000000000

  Running in c1 symmetry.

  Rotational constants: A =      0.67262  B =      0.12288  C =      0.11861 [cm^-1]
  Rotational constants: A =  20164.70886  B =   3683.85398  C =   3555.82152 [MHz]
  Nuclear repulsion =  130.207678324288054

  Charge       = 0
  Multiplicity = 1
  Electrons    = 34
  Nalpha       = 17
  Nbeta        = 17

  ==> Algorithm <==

  SCF Algorithm Type is DF.
  DIIS enabled.
  MOM disabled.
  Fractional occupation disabled.
  Guess Type is READ.
  Energy threshold   = 1.00e-08
  Density threshold  = 1.00e-08
  Integral threshold = 0.00e+00

  ==> Primary Basis <==

  Basis Set: CC-PVDZ
    Number of shells: 54
    Number of basis function: 106
    Number of Cartesian functions: 110
    Spherical Harmonics?: true
    Max angular momentum: 2

  ==> DFT Potential <==

   => B3LYP Composite Functional <= 

    B3LYP Hybrid-GGA Exchange-Correlation Functional (VWN1-RPA)

    P.J. Stephens et. al., J. Phys. Chem., 98, 11623-11627, 1994

    Points   =           5000
    Deriv    =              1
    GGA      =           TRUE
    Meta     =          FALSE

    X_LRC        =          FALSE
    X_Hybrid     =           TRUE
    X_Alpha      =   2.000000E-01
    X_Omega      =   0.000000E+00
    C_LRC        =          FALSE
    C_Hybrid     =          FALSE
    C_Alpha      =   0.000000E+00
    C_Omega      =   0.000000E+00

   => Exchange Functionals <=

    0.8000    B3_X
    0.2000      HF 

   => Correlation Functionals <=

    0.1900 VWN3RPA_C
    0.8100   LYP_C

   => Molecular Quadrature <=

    Radial Scheme    =       TREUTLER
    Pruning Scheme   =           FLAT
    Nuclear Scheme   =       TREUTLER

    BS radius alpha  =              1
    Pruning alpha    =              1
    Radial Points    =             75
    Spherical Points =            302
    Total Points     =         312783
    Total Blocks     =            276
    Max Points       =           4767
    Max Functions    =            106

  ==> Pre-Iterations <==

   -------------------------------------------------------
    Irrep   Nso     Nmo     Nalpha   Nbeta   Ndocc  Nsocc
   -------------------------------------------------------
     A        106     106       0       0       0       0
   -------------------------------------------------------
    Total     106     106      17      17      17       0
   -------------------------------------------------------

  ==> Integral Setup <==

  ==> DFJK: Density-Fitted J/K Matrices <==

    J tasked:                  Yes
    K tasked:                  Yes
    wK tasked:                  No
    OpenMP threads:              1
    Integrals threads:           1
    Memory (MB):               715
    Algorithm:                Core
    Integral Cache:           NONE
    Schwarz Cutoff:          1E-12
    Fitting Condition:       1E-12

   => Auxiliary Basis Set <=

  Basis Set: 
    Number of shells: 186
    Number of basis function: 510
    Number of Cartesian functions: 574
    Spherical Harmonics?: true
    Max angular momentum: 3

  Minimum eigenvalue in the overlap matrix is 4.3465012698E-03.
  Using Symmetric Orthogonalization.
  SCF Guess was Projection but file not found.
  Switching over to SAD guess.

  SCF Guess: Superposition of Atomic Densities via on-the-fly atomic UHF.

  ==> Iterations <==

                           Total Energy        Delta E     RMS |[F,P]|

   @DF-RKS iter   0:  -158.95269253930314   -1.58953e+02   3.27244e-02 
   @DF-RKS iter   1:  -158.33447869405839    6.18214e-01   4.24160e-03 
   @DF-RKS iter   2:  -158.29646373465241    3.80150e-02   4.99595e-03 DIIS
   @DF-RKS iter   3:  -158.45299096915636   -1.56527e-01   3.44720e-04 DIIS
   @DF-RKS iter   4:  -158.45364434796886   -6.53379e-04   1.14976e-04 DIIS
   @DF-RKS iter   5:  -158.45370951955050   -6.51716e-05   4.51025e-05 DIIS
   @DF-RKS iter   6:  -158.45372083281316   -1.13133e-05   4.37603e-06 DIIS
   @DF-RKS iter   7:  -158.45372094721600   -1.14403e-07   8.77357e-07 DIIS
   @DF-RKS iter   8:  -158.45372095233961   -5.12361e-09   1.45087e-07 DIIS
   @DF-RKS iter   9:  -158.45372095247896   -1.39352e-10   2.95493e-08 DIIS
   @DF-RKS iter  10:  -158.45372095248470   -5.74119e-12   3.89403e-09 DIIS

  ==> Post-Iterations <==

    Orbital Energies (a.u.)
    -----------------------

    Doubly Occupied:                                                      

       1A    -10.178038     2A    -10.177888     3A    -10.174016  
       4A    -10.174002     5A     -0.788630     6A     -0.719537  
       7A     -0.626572     8A     -0.571917     9A     -0.463983  
      10A     -0.426445    11A     -0.420217    12A     -0.399588  
      13A     -0.362565    14A     -0.356681    15A     -0.326221  
      16A     -0.321507    17A     -0.316053  

    Virtual:                                                              

      18A      0.060951    19A      0.084453    20A      0.098474  
      21A      0.105181    22A      0.138911    23A      0.142239  
      24A      0.147811    25A      0.151617    26A      0.152176  
      27A      0.160470    28A      0.222996    29A      0.245988  
      30A      0.254958    31A      0.402910    32A      0.412776  
      33A      0.424621    34A      0.433531    35A      0.474111  
      36A      0.495027    37A      0.504311    38A      0.579164  
      39A      0.587209    40A      0.628331    41A      0.642909  
      42A      0.651049    43A      0.653278    44A      0.668308  
      45A      0.668888    46A      0.671979    47A      0.677781  
      48A      0.694072    49A      0.697976    50A      0.723823  
      51A      0.725133    52A      0.738749    53A      0.879860  
      54A      0.881688    55A      0.970198    56A      1.105346  
      57A      1.144942    58A      1.187216    59A      1.228964  
      60A      1.239907    61A      1.305334    62A      1.342867  
      63A      1.423828    64A      1.426881    65A      1.474806  
      66A      1.486277    67A      1.531957    68A      1.577057  
      69A      1.579432    70A      1.633960    71A      1.636708  
      72A      1.647061    73A      1.663997    74A      1.671345  
      75A      1.677408    76A      1.694849    77A      1.716554  
      78A      1.722079    79A      1.744593    80A      1.745552  
      81A      1.776858    82A      1.777969    83A      1.863799  
      84A      1.893127    85A      1.954325    86A      1.993348  
      87A      2.023873    88A      2.048414    89A      2.057476  
      90A      2.151754    91A      2.172890    92A      2.214914  
      93A      2.233202    94A      2.280067    95A      2.285383  
      96A      2.303472    97A      2.425379    98A      2.431102  
      99A      2.465895   100A      2.499090   101A      2.511547  
     102A      2.526986   103A      2.577174   104A      2.592410  
     105A      2.648321   106A      2.698468  

    Final Occupation by Irrep:
              A 
    DOCC [    17 ]

  Energy converged.

  @DF-RKS Final Energy:  -158.45372095248470

   => Energetics <=

    Nuclear Repulsion Energy =            130.2076783242880538
    One-Electron Energy =                -468.9079209742563421
    Two-Electron Energy =                 200.8428022091124490
    DFT Exchange-Correlation Energy =     -20.5962805116288550
    Empirical Dispersion Energy =           0.0000000000000000
    PCM Polarization Energy =               0.0000000000000000
    EFP Energy =                            0.0000000000000000
    Total Energy =                       -158.4537209524847015


  Saving occupied orbitals to File 180.

*** tstop() called on lski1497 at Tue Feb 21 17:47:46 2017
Module time:
	user time   =     106.94 seconds =       1.78 minutes
	system time =       1.04 seconds =       0.02 minutes
	total time  =        114 seconds =       1.90 minutes
Total time:
	user time   =     403.33 seconds =       6.72 minutes
	system time =       4.38 seconds =       0.07 minutes
	total time  =        457 seconds =       7.62 minutes


Properties will be evaluated at   0.000000,   0.000000,   0.000000 Bohr

Properties computed using the SCF density matrix

  Nuclear Dipole Moment: (a.u.)
     X:    -0.0262      Y:     0.0108      Z:    -0.3893

  Electronic Dipole Moment: (a.u.)
     X:     0.0276      Y:    -0.0112      Z:     0.4093

  Dipole Moment: (a.u.)
     X:     0.0014      Y:    -0.0005      Z:     0.0200     Total:     0.0201

  Dipole Moment: (Debye)
     X:     0.0035      Y:    -0.0012      Z:     0.0509     Total:     0.0510


*** tstart() called on lski1497
*** at Tue Feb 21 17:47:46 2017


         ------------------------------------------------------------
                                   SCF GRAD                          
                          Rob Parrish, Justin Turney,                
                       Andy Simmonett, and Alex Sokolov              
         ------------------------------------------------------------

  ==> Geometry <==

    Molecular point group: c1
    Full point group: C1

    Geometry (in Angstrom), charge = 0, multiplicity = 1:

       Center              X                  Y                   Z               Mass       
    ------------   -----------------  -----------------  -----------------  -----------------
           H         -2.352224010298     0.026135225316     0.581877925741     1.007825032070
           H         -2.221448380914     1.690900908345    -0.032116005705     1.007825032070
           H         -1.914308564278     0.316025100179    -1.119380442871     1.007825032070
           C         -1.791120372562     0.683763008992    -0.093464840462    12.000000000000
           H          0.235184357007     1.372153112208    -0.393061848090     1.007825032070
           H         -0.199466170277     1.084472430123     1.313384037278     1.007825032070
           C         -0.299691360498     0.700606258957     0.290610196780    12.000000000000
           H          0.376536527948    -1.146337805926     1.218469205304     1.007825032070
           H         -0.292029861287    -1.352679904776    -0.422698530856     1.007825032070
           C          0.334729549752    -0.712959811837     0.211515560587    12.000000000000
           H          2.189891610940    -1.679514795810    -0.422231501176     1.007825032070
           H          2.409802923966    -0.046101324068     0.248170303850     1.007825032070
           H          1.740154686922    -0.253579966793    -1.387680937620     1.007825032070
           C          1.758425954349    -0.672373019047    -0.373784477075    12.000000000000

  Nuclear repulsion =  130.207678324288054

  ==> Basis Set <==

  Basis Set: CC-PVDZ
    Number of shells: 54
    Number of basis function: 106
    Number of Cartesian functions: 110
    Spherical Harmonics?: true
    Max angular momentum: 2

  ==> DFJKGrad: Density-Fitted SCF Gradients <==

    Gradient:                    1
    J tasked:                  Yes
    K tasked:                  Yes
    wK tasked:                  No
    OpenMP threads:              1
    Integrals threads:           1
    Memory (MB):               715
    Schwarz Cutoff:          0E+00
    Fitting Condition:       1E-12

   => Auxiliary Basis Set <=

  Basis Set: 
    Number of shells: 186
    Number of basis function: 510
    Number of Cartesian functions: 574
    Spherical Harmonics?: true
    Max angular momentum: 3

  ==> DFT Potential <==

   => B3LYP Composite Functional <= 

    B3LYP Hybrid-GGA Exchange-Correlation Functional (VWN1-RPA)

    P.J. Stephens et. al., J. Phys. Chem., 98, 11623-11627, 1994

    Points   =           5000
    Deriv    =              1
    GGA      =           TRUE
    Meta     =          FALSE

    X_LRC        =          FALSE
    X_Hybrid     =           TRUE
    X_Alpha      =   2.000000E-01
    X_Omega      =   0.000000E+00
    C_LRC        =          FALSE
    C_Hybrid     =          FALSE
    C_Alpha      =   0.000000E+00
    C_Omega      =   0.000000E+00

   => Exchange Functionals <=

    0.8000    B3_X
    0.2000      HF 

   => Correlation Functionals <=

    0.1900 VWN3RPA_C
    0.8100   LYP_C

   => Molecular Quadrature <=

    Radial Scheme    =       TREUTLER
    Pruning Scheme   =           FLAT
    Nuclear Scheme   =       TREUTLER

    BS radius alpha  =              1
    Pruning alpha    =              1
    Radial Points    =             75
    Spherical Points =            302
    Total Points     =         312783
    Total Blocks     =            276
    Max Points       =           4767
    Max Functions    =            106


[...]
  Basis Set: CC-PVDZ
    Number of shells: 54
    Number of basis function: 106
    Number of Cartesian functions: 110
    Spherical Harmonics?: true
    Max angular momentum: 2

  ==> DFJKGrad: Density-Fitted SCF Gradients <==

    Gradient:                    1
    J tasked:                  Yes
    K tasked:                  Yes
    wK tasked:                  No
    OpenMP threads:              1
    Integrals threads:           1
    Memory (MB):               715
    Schwarz Cutoff:          0E+00
    Fitting Condition:       1E-12

   => Auxiliary Basis Set <=

  Basis Set: 
    Number of shells: 186
    Number of basis function: 510
    Number of Cartesian functions: 574
    Spherical Harmonics?: true
    Max angular momentum: 3

  ==> DFT Potential <==

   => B3LYP Composite Functional <= 

    B3LYP Hybrid-GGA Exchange-Correlation Functional (VWN1-RPA)

    P.J. Stephens et. al., J. Phys. Chem., 98, 11623-11627, 1994

    Points   =           5000
    Deriv    =              1
    GGA      =           TRUE
    Meta     =          FALSE

    X_LRC        =          FALSE
    X_Hybrid     =           TRUE
    X_Alpha      =   2.000000E-01
    X_Omega      =   0.000000E+00
    C_LRC        =          FALSE
    C_Hybrid     =          FALSE
    C_Alpha      =   0.000000E+00
    C_Omega      =   0.000000E+00

   => Exchange Functionals <=

    0.8000    B3_X
    0.2000      HF 

   => Correlation Functionals <=

    0.1900 VWN3RPA_C
    0.8100   LYP_C

   => Molecular Quadrature <=

    Radial Scheme    =       TREUTLER
    Pruning Scheme   =           FLAT
    Nuclear Scheme   =       TREUTLER

    BS radius alpha  =              1
    Pruning alpha    =              1
    Radial Points    =             75
    Spherical Points =            302
    Total Points     =         312812
    Total Blocks     =            274
    Max Points       =           4826
    Max Functions    =            106


  -Total Gradient:
     Atom            X                  Y                   Z
    ------   -----------------  -----------------  -----------------
       1        0.000017511313     0.000004242577    -0.000001230484
       2       -0.000007894751    -0.000005727282    -0.000010802180
       3       -0.000029425859    -0.000001504074    -0.000000083346
       4        0.000732035951     0.000469672085    -0.002685110714
       5        0.000000008264    -0.000015739624     0.000038077743
       6        0.000010379679     0.000002830454     0.000004233815
       7       -0.001403965720    -0.000774290962     0.002695770317
       8       -0.000009665307    -0.000002929774     0.000005256376
       9        0.000005526908     0.000014571286     0.000038255156
      10        0.001767708594     0.000649344737     0.002510227685
      11        0.000006573021     0.000006278385    -0.000011462497
      12       -0.000017761791    -0.000005314793     0.000001273192
      13        0.000028856102     0.000000847095    -0.000003413044
      14       -0.001099669581    -0.000342350476    -0.002577850770


*** tstop() called on lski1497 at Tue Feb 21 17:59:06 2017
Module time:
	user time   =      38.68 seconds =       0.64 minutes
	system time =       0.56 seconds =       0.01 minutes
	total time  =         44 seconds =       0.73 minutes
Total time:
	user time   =    1031.45 seconds =      17.19 minutes
	system time =      11.62 seconds =       0.19 minutes
	total time  =       1137 seconds =      18.95 minutes

			-----------------------------------------
			 OPTKING 2.0: for geometry optimizations 
			  - R.A. King,  Bethel University        
			-----------------------------------------

	Previous internal coordinate definitions found.
	---Fragment 1 Geometry and Gradient---
	 H          -4.4979791681        0.0380409666        1.0840324418
	 H          -4.2321825927        3.2040612372       -0.0160576792
	 H          -3.6771995611        0.6352786014       -2.1195685848
	 C          -3.3998960227        1.2998576215       -0.1627670270
	 H           0.4048615773        2.6018796827       -0.7599121605
	 H          -0.3343125038        2.1153504692        2.4459060803
	 C          -0.5931529088        1.3054684065        0.5401346925
	 H           0.6643408731       -2.2273046743        2.2730494992
	 H          -0.5152183558       -2.5644477308       -0.8181262562
	 C           0.6582149241       -1.3275465020        0.3901627690
	 H           4.1781964366       -3.1857422450       -0.7558712584
	 H           4.6049025103       -0.0743352416        0.4447699374
	 H           3.3444563264       -0.5223766823       -2.6380889980
	 C           3.3398844250       -1.2794931967       -0.6953141457
	             0.0000175113        0.0000042426       -0.0000012305
	            -0.0000078948       -0.0000057273       -0.0000108022
	            -0.0000294259       -0.0000015041       -0.0000000833
	             0.0007320360        0.0004696721       -0.0026851107
	             0.0000000083       -0.0000157396        0.0000380777
	             0.0000103797        0.0000028305        0.0000042338
	            -0.0014039657       -0.0007742910        0.0026957703
	            -0.0000096653       -0.0000029298        0.0000052564
	             0.0000055269        0.0000145713        0.0000382552
	             0.0017677086        0.0006493447        0.0025102277
	             0.0000065730        0.0000062784       -0.0000114625
	            -0.0000177618       -0.0000053148        0.0000012732
	             0.0000288561        0.0000008471       -0.0000034130
	            -0.0010996696       -0.0003423505       -0.0025778508

	---Fragment 1 Intrafragment Coordinates---
	 - Coordinate -           - BOHR/RAD -       - ANG/DEG -
	 R(1,4)           =         2.086259	       1.104001
	 R(2,4)           =         2.083319	       1.102445
	 R(3,4)           =         2.085098	       1.103386
	 R(4,7)           =         2.893425	       1.531135
	 R(5,7)           =         2.089698	       1.105820
	 R(6,7)           =         2.086833	       1.104304
	 R(7,10)          =         2.919106	       1.544724
	 R(8,10)          =         2.086831	       1.104304
	 R(9,10)          =         2.089697	       1.105820
	 R(10,14)         =         2.893427	       1.531136
	 R(11,14)         =         2.083319	       1.102445
	 R(12,14)         =         2.086257	       1.104000
	 R(13,14)         =         2.085095	       1.103385
	 B(1,4,2)         =         1.875975	     107.485468
	 B(1,4,3)         =         1.873476	     107.342258
	 B(1,4,7)         =         1.946110	     111.503866
	 B(2,4,3)         =         1.879981	     107.714987
	 B(2,4,7)         =         1.948355	     111.632519
	 B(3,4,7)         =         1.936504	     110.953485
	 B(4,7,5)         =         1.889516	     108.261278
	 B(4,7,6)         =         1.920825	     110.055170
	 B(4,7,10)        =         1.984070	     113.678827
	 B(5,7,6)         =         1.842260	     105.553711
	 B(5,7,10)        =         1.899573	     108.837507
	 B(6,7,10)        =         1.921760	     110.108733
	 B(7,10,8)        =         1.921764	     110.108982
	 B(7,10,9)        =         1.899569	     108.837275
	 B(7,10,14)       =         1.984062	     113.678379
	 B(8,10,9)        =         1.842265	     105.554037
	 B(8,10,14)       =         1.920830	     110.055436
	 B(9,10,14)       =         1.889514	     108.261161
	 B(10,14,11)      =         1.948354	     111.632487
	 B(10,14,12)      =         1.946109	     111.503850
	 B(10,14,13)      =         1.936503	     110.953423
	 B(11,14,12)      =         1.875969	     107.485101
	 B(11,14,13)      =         1.879980	     107.714902
	 B(12,14,13)      =         1.873486	     107.342833
	 D(1,4,7,5)       =        -3.137199	    -179.748276
	 D(1,4,7,6)       =        -1.131803	     -64.847526
	 D(1,4,7,10)      =         1.033054	      59.189661
	 D(2,4,7,5)       =        -1.038570	     -59.505706
	 D(2,4,7,6)       =         0.966826	      55.395045
	 D(2,4,7,10)      =         3.131683	     179.432232
	 D(3,4,7,5)       =         1.058577	      60.652017
	 D(3,4,7,6)       =         3.063974	     175.552767
	 D(3,4,7,10)      =        -1.054354	     -60.410046
	 D(4,7,10,8)      =        -1.667606	     -95.546779
	 D(4,7,10,9)      =         0.343942	      19.706444
	 D(4,7,10,14)     =         2.451225	     140.444827
	 D(5,7,10,8)      =         2.508286	     143.714227
	 D(5,7,10,9)      =        -1.763351	    -101.032550
	 D(5,7,10,14)     =         0.343932	      19.705834
	 D(6,7,10,8)      =         0.496745	      28.461401
	 D(6,7,10,9)      =         2.508293	     143.714624
	 D(6,7,10,14)     =        -1.667610	     -95.546993
	 D(7,10,14,11)    =         3.131706	     179.433517
	 D(7,10,14,12)    =         1.033086	      59.191449
	 D(7,10,14,13)    =        -1.054335	     -60.408931
	 D(8,10,14,11)    =         0.966845	      55.396126
	 D(8,10,14,12)    =        -1.131775	     -64.845943
	 D(8,10,14,13)    =         3.063990	     175.553677
	 D(9,10,14,11)    =        -1.038560	     -59.505090
	 D(9,10,14,12)    =        -3.137180	    -179.747158
	 D(9,10,14,13)    =         1.058585	      60.652462

	Current energy   :      -158.4549230948

	Energy change for the previous step:
		Projected    :        -0.0000226387
		Actual       :        -0.0000025290

	Performing BFGS update.
	Previous computed or guess Hessian on step 1.
	Steps to be used in Hessian update: 6 5
	Adding user-defined constraint: Fragment 1; Coordinate 49:
		Value =     2.451225; Fixed value    =     2.443460
		Force =    -0.005047; Force constant =     0.650000
	Removing off-diagonal coupling between coordinate 49 and others.
	Taking RFO optimization step.
	Going to follow RFO solution 1.
	Rejecting RFO root 1 because normalization gives large value.
	Using RFO vector 2.
	Norm of target step-size    0.00324
	Projected energy change by RFO approximation:         0.0000003196

	Back-transformation to cartesian coordinates...
	Successfully converged to displaced geometry.

	--- Internal Coordinate Step in ANG or DEG, aJ/ANG or AJ/DEG ---
	 ---------------------------------------------------------------------------
	   Coordinate                Previous        Force       Change         New 
	   ----------                --------       ------       ------       ------
	    1 R(1,4)          =      1.104001     0.000106     0.000011     1.104012
	    2 R(2,4)          =      1.102445     0.000022    -0.000002     1.102443
	    3 R(3,4)          =      1.103386    -0.000038    -0.000013     1.103373
	    4 R(4,7)          =      1.531135     0.000302     0.000087     1.531222
	    5 R(5,7)          =      1.105820     0.000274     0.000040     1.105860
	    6 R(6,7)          =      1.104304    -0.000050    -0.000017     1.104288
	    7 R(7,10)         =      1.544724    -0.000049     0.000005     1.544729
	    8 R(8,10)         =      1.104304    -0.000048    -0.000016     1.104287
	    9 R(9,10)         =      1.105820     0.000277     0.000040     1.105860
	   10 R(10,14)        =      1.531136     0.000300     0.000086     1.531222
	   11 R(11,14)        =      1.102445     0.000021    -0.000002     1.102443
	   12 R(12,14)        =      1.104000     0.000111     0.000012     1.104012
	   13 R(13,14)        =      1.103385    -0.000030    -0.000011     1.103374
	   14 B(1,4,2)        =    107.485468    -0.000000     0.001557   107.487024
	   15 B(1,4,3)        =    107.342258     0.000001     0.005928   107.348186
	   16 B(1,4,7)        =    111.503866     0.000002     0.010852   111.514718
	   17 B(2,4,3)        =    107.714987     0.000002     0.006278   107.721265
	   18 B(2,4,7)        =    111.632519    -0.000001    -0.006599   111.625921
	   19 B(3,4,7)        =    110.953485    -0.000003    -0.017127   110.936359
	   20 B(4,7,5)        =    108.261278    -0.000003    -0.012540   108.248738
	   21 B(4,7,6)        =    110.055170     0.000001    -0.003747   110.051423
	   22 B(4,7,10)       =    113.678827     0.000001     0.000540   113.679368
	   23 B(5,7,6)        =    105.553711     0.000001     0.012937   105.566649
	   24 B(5,7,10)       =    108.837507     0.000000     0.001298   108.838805
	   25 B(6,7,10)       =    110.108733    -0.000000     0.002263   110.110996
	   26 B(7,10,8)       =    110.108982    -0.000000     0.001962   110.110945
	   27 B(7,10,9)       =    108.837275     0.000000     0.001601   108.838876
	   28 B(7,10,14)      =    113.678379     0.000001     0.000922   113.679301
	   29 B(8,10,9)       =    105.554037     0.000001     0.012672   105.566710
	   30 B(8,10,14)      =    110.055436     0.000001    -0.004047   110.051389
	   31 B(9,10,14)      =    108.261161    -0.000003    -0.012389   108.248772
	   32 B(10,14,11)     =    111.632487    -0.000001    -0.006504   111.625983
	   33 B(10,14,12)     =    111.503850     0.000002     0.010862   111.514711
	   34 B(10,14,13)     =    110.953423    -0.000003    -0.017103   110.936320
	   35 B(11,14,12)     =    107.485101    -0.000000     0.001894   107.486994
	   36 B(11,14,13)     =    107.714902     0.000002     0.006360   107.721262
	   37 B(12,14,13)     =    107.342833     0.000001     0.005369   107.348201
	   38 D(1,4,7,5)      =   -179.748276    -0.000000    -0.045760  -179.794036
	   39 D(1,4,7,6)      =    -64.847526    -0.000000    -0.039322   -64.886848
	   40 D(1,4,7,10)     =     59.189661     0.000000    -0.038850    59.150811
	   41 D(2,4,7,5)      =    -59.505706    -0.000000    -0.040834   -59.546539
	   42 D(2,4,7,6)      =     55.395045    -0.000000    -0.034396    55.360649
	   43 D(2,4,7,10)     =    179.432232     0.000000    -0.033923   179.398308
	   44 D(3,4,7,5)      =     60.652017    -0.000000    -0.048970    60.603047
	   45 D(3,4,7,6)      =    175.552767    -0.000000    -0.042532   175.510235
	   46 D(3,4,7,10)     =    -60.410046     0.000000    -0.042060   -60.452105
	   47 D(4,7,10,8)     =    -95.546779    -0.000001    -0.004397   -95.551177
	   48 D(4,7,10,9)     =     19.706444    -0.000000     0.012777    19.719221
	   49 D(4,7,10,14)    =    140.444827    -0.000001    -0.001267   140.443560
	   50 D(5,7,10,8)     =    143.714227     0.000000     0.010306   143.724533
	   51 D(5,7,10,9)     =   -101.032550     0.000000     0.027480  -101.005070
	   52 D(5,7,10,14)    =     19.705834    -0.000000     0.013436    19.719270
	   53 D(6,7,10,8)     =     28.461401    -0.000000    -0.007180    28.454220
	   54 D(6,7,10,9)     =    143.714624     0.000000     0.009994   143.724618
	   55 D(6,7,10,14)    =    -95.546993    -0.000001    -0.004050   -95.551043
	   56 D(7,10,14,11)   =    179.433517     0.000000    -0.035429   179.398088
	   57 D(7,10,14,12)   =     59.191449     0.000000    -0.040857    59.150591
	   58 D(7,10,14,13)   =    -60.408931     0.000000    -0.043383   -60.452314
	   59 D(8,10,14,11)   =     55.396126    -0.000000    -0.035554    55.360572
	   60 D(8,10,14,12)   =    -64.845943    -0.000000    -0.040982   -64.886924
	   61 D(8,10,14,13)   =    175.553677    -0.000000    -0.043507   175.510170
	   62 D(9,10,14,11)   =    -59.505090    -0.000000    -0.041600   -59.546690
	   63 D(9,10,14,12)   =   -179.747158    -0.000000    -0.047028  -179.794186
	   64 D(9,10,14,13)   =     60.652462    -0.000000    -0.049554    60.602908
	 ---------------------------------------------------------------------------
	 Forces used to impose fixed constraints are not included.
	  Forces zeroed: 49 

  ==> Convergence Check <==

  Measures of convergence in internal coordinates in au.
  Criteria marked as inactive (o), active & met (*), and active & unmet ( ).
  ---------------------------------------------------------------------------------------------
   Step     Total Energy     Delta E     MAX Force     RMS Force      MAX Disp      RMS Disp   
  ---------------------------------------------------------------------------------------------
    Convergence Criteria    1.00e-06 *    3.00e-04 *             o    1.20e-03 *             o
  ---------------------------------------------------------------------------------------------
      7    -158.45492309   -2.53e-06      4.25e-05 *    1.79e-05 o    8.65e-04 *    4.05e-04 o  ~
  ---------------------------------------------------------------------------------------------


  **** Optimization is complete! (in 7 steps) ****

  ==> Optimization Summary <==

  Measures of convergence in internal coordinates in au.
  --------------------------------------------------------------------------------------------------------------- ~
   Step         Total Energy             Delta E       MAX Force       RMS Force        MAX Disp        RMS Disp  ~
  --------------------------------------------------------------------------------------------------------------- ~
      1    -158.445031847809   -158.445031847809      0.02311693      0.00966181      0.02856467      0.01250546  ~
      2    -158.450947368807     -0.005915520998      0.01212470      0.00526216      0.02381267      0.01251996  ~
      3    -158.453720952485     -0.002773583677      0.00399616      0.00200291      0.03929725      0.01250983  ~
      4    -158.454604091933     -0.000883139449      0.00172095      0.00065970      0.04866419      0.01252349  ~
      5    -158.454873238760     -0.000269146827      0.00086286      0.00020981      0.02770877      0.01249749  ~
      6    -158.454920565808     -0.000047327048      0.00016208      0.00004666      0.00536390      0.00226715  ~
      7    -158.454923094776     -0.000002528968      0.00005401      0.00001911      0.00086487      0.00040540  ~
  --------------------------------------------------------------------------------------------------------------- ~

	Writing optimization data to binary file.
	Final energy is   -158.4549230947764
	Final (previous) structure:
	Cartesian Geometry (in Angstrom)
	    H    -2.3802280605   0.0201304125   0.5736452616
	    H    -2.2395745706   1.6955161817  -0.0084973579
	    H    -1.9458901992   0.3361749570  -1.1216273871
	    C    -1.7991474868   0.6878550277  -0.0861326010
	    H     0.2142435194   1.3768554276  -0.4021281959
	    H    -0.1769105576   1.1193952565   1.2943177521
	    C    -0.3138830005   0.6908241273   0.2858269688
	    H     0.3515540488  -1.1786388703   1.2028459890
	    H    -0.2726418114  -1.3570472917  -0.4329337685
	    C     0.3483123362  -0.7025073522   0.2064652450
	    H     2.2110063273  -1.6858221885  -0.3999898426
	    H     2.4368094562  -0.0393365157   0.2353621139
	    H     1.7698100630  -0.2764298346  -1.3960165720
	    C     1.7673907170  -0.6770786383  -0.3679443987
	Saving final (previous) structure.
			--------------------------
			 OPTKING Finished Execution 
			--------------------------

    Final optimized geometry and variables:
    Molecular point group: c1
    Full point group: C1

    Geometry (in Angstrom), charge = 0, multiplicity = 1:

    H           -2.380228060474     0.020130412539     0.573645261582
    H           -2.239574570645     1.695516181662    -0.008497357866
    H           -1.945890199152     0.336174956979    -1.121627387129
    C           -1.799147486798     0.687855027732    -0.086132601016
    H            0.214243519367     1.376855427568    -0.402128195878
    H           -0.176910557562     1.119395256485     1.294317752060
    C           -0.313883000527     0.690824127258     0.285826968849
    H            0.351554048756    -1.178638870250     1.202845988959
    H           -0.272641811362    -1.357047291735    -0.432933768542
    C            0.348312336208    -0.702507352203     0.206465244997
    H            2.211006327275    -1.685822188483    -0.399989842600
    H            2.436809456210    -0.039336515656     0.235362113932
    H            1.769810063035    -0.276429834597    -1.396016571963
    C            1.767390717036    -0.677078638250    -0.367944398727

	Cleaning optimization helper files.

*** Psi4 exiting successfully. Buy a developer a beer!
