    -----------------------------------------------------------------------
          Psi4: An Open-Source Ab Initio Electronic Structure Package
                              Psi4 1.0.0 Driver

                          Git: Rev {master} 6a9a71b 

    J. M. Turney, A. C. Simmonett, R. M. Parrish, E. G. Hohenstein,
    F. A. Evangelista, J. T. Fermann, B. J. Mintz, L. A. Burns, J. J. Wilke,
    M. L. Abrams, N. J. Russ, M. L. Leininger, C. L. Janssen, E. T. Seidl,
    W. D. Allen, H. F. Schaefer, R. A. King, E. F. Valeev, C. D. Sherrill,
    and T. D. Crawford, WIREs Comput. Mol. Sci. 2, 556-565 (2012)
    (doi: 10.1002/wcms.93)

                         Additional Contributions by
    A. E. DePrince, U. Bozkaya, A. Yu. Sokolov, D. G. A. Smith, R. Di Remigio,
    R. M. Richard, J. F. Gonthier, H. R. McAlexander, M. Saitow, and
    B. P. Pritchard
    -----------------------------------------------------------------------


    Psi4 started on: Mon Feb 20 17:32:50 2017

    Process ID:  28187
    PSI4DATADIR: /Users/sternc1/anaconda/share/psi4
    Memory level set to 256.000 MB

  ==> Input File <==

--------------------------------------------------------------------------

memory 1000 mb

molecule butane {
  symmetry C1
  0 1 
  H      1.604   0.760   -8.260
  H      1.745   2.388   -8.880
  H      2.043   1.024   -9.930
  C      2.142   1.395   -8.932
  H      4.169   2.051   -9.210
  H      3.731   1.788   -7.539
  C      3.631   1.416   -8.537
  H      5.269   0.035   -8.685
  H      3.929   -0.553   -7.731
  C      4.203   -0.012   -8.612
  H      4.033   -1.721   -9.902
  H      3.908   -0.189   -10.732
  H      2.568   -0.776   -9.778
  C      3.635   -0.729   -9.850
  units Angstrom
}

dih_string = "4 7 10 14 40"
set optking fixed_dihedral = $dih_string

optimize('MP2/6-31G(d)')
--------------------------------------------------------------------------

  Memory set to 1000.000 MiB by Python script.
gradient() will perform analytic gradient computation.
    SCF Algorithm Type (re)set to DF.

*** tstart() called on lski1497
*** at Mon Feb 20 17:32:51 2017


         ---------------------------------------------------------
                                   SCF
            by Justin Turney, Rob Parrish, and Andy Simmonett
                              RHF Reference
                        1 Threads,   1000 MiB Core
         ---------------------------------------------------------

  ==> Geometry <==

    Molecular point group: c1
    Full point group: C1

    Geometry (in Angstrom), charge = 0, multiplicity = 1:

       Center              X                  Y                   Z               Mass       
    ------------   -----------------  -----------------  -----------------  -----------------
           H         -1.780902560730     0.248885860623     0.736970686905     1.007825032070
           H         -1.639902560730     1.876885860623     0.116970686905     1.007825032070
           H         -1.341902560730     0.512885860623    -0.933029313095     1.007825032070
           C         -1.242902560730     0.883885860623     0.064970686905    12.000000000000
           H          0.784097439270     1.539885860623    -0.213029313095     1.007825032070
           H          0.346097439270     1.276885860623     1.457970686905     1.007825032070
           C          0.246097439270     0.904885860623     0.459970686905    12.000000000000
           H          1.884097439270    -0.476114139377     0.311970686905     1.007825032070
           H          0.544097439270    -1.064114139377     1.265970686905     1.007825032070
           C          0.818097439270    -0.523114139377     0.384970686905    12.000000000000
           H          0.648097439270    -2.232114139377    -0.905029313095     1.007825032070
           H          0.523097439270    -0.700114139377    -1.735029313095     1.007825032070
           H         -0.816902560730    -1.287114139377    -0.781029313095     1.007825032070
           C          0.250097439270    -1.240114139377    -0.853029313095    12.000000000000

  Running in c1 symmetry.

  Rotational constants: A =      0.39416  B =      0.19300  C =      0.14783 [cm^-1]
  Rotational constants: A =  11816.74930  B =   5786.00979  C =   4431.75235 [MHz]
  Nuclear repulsion =  135.628873068029321

  Charge       = 0
  Multiplicity = 1
  Electrons    = 34
  Nalpha       = 17
  Nbeta        = 17

  ==> Algorithm <==

  SCF Algorithm Type is DF.
  DIIS enabled.
  MOM disabled.
  Fractional occupation disabled.
  Guess Type is SAD.
  Energy threshold   = 1.00e-10
  Density threshold  = 1.00e-10
  Integral threshold = 0.00e+00

  ==> Primary Basis <==

  Basis Set: 6-31G(D)
    Number of shells: 44
    Number of basis function: 80
    Number of Cartesian functions: 80
    Spherical Harmonics?: false
    Max angular momentum: 2

  ==> Pre-Iterations <==

   -------------------------------------------------------
    Irrep   Nso     Nmo     Nalpha   Nbeta   Ndocc  Nsocc
   -------------------------------------------------------
     A         80      80       0       0       0       0
   -------------------------------------------------------
    Total      80      80      17      17      17       0
   -------------------------------------------------------

  ==> Integral Setup <==

  ==> DFJK: Density-Fitted J/K Matrices <==

    J tasked:                  Yes
    K tasked:                  Yes
    wK tasked:                  No
    OpenMP threads:              1
    Integrals threads:           1
    Memory (MB):               715
    Algorithm:                Core
    Integral Cache:           NONE
    Schwarz Cutoff:          1E-12
    Fitting Condition:       1E-12

   => Auxiliary Basis Set <=

  Basis Set: 
    Number of shells: 186
    Number of basis function: 574
    Number of Cartesian functions: 574
    Spherical Harmonics?: false
    Max angular momentum: 3

  Minimum eigenvalue in the overlap matrix is 4.7259739422E-03.
  Using Symmetric Orthogonalization.
  SCF Guess: Superposition of Atomic Densities via on-the-fly atomic UHF.

  ==> Iterations <==

                           Total Energy        Delta E     RMS |[F,P]|

   @DF-RHF iter   0:  -158.97896517166268   -1.58979e+02   4.72716e-02 
   @DF-RHF iter   1:  -157.19090353854514    1.78806e+00   4.07311e-03 
   @DF-RHF iter   2:  -157.27530925364456   -8.44057e-02   1.15268e-03 DIIS
   @DF-RHF iter   3:  -157.28377396349541   -8.46471e-03   3.46012e-04 DIIS
   @DF-RHF iter   4:  -157.28436215284327   -5.88189e-04   8.70080e-05 DIIS
   @DF-RHF iter   5:  -157.28440953099195   -4.73781e-05   1.49409e-05 DIIS
   @DF-RHF iter   6:  -157.28441124640429   -1.71541e-06   2.78899e-06 DIIS
   @DF-RHF iter   7:  -157.28441128713214   -4.07279e-08   7.99881e-07 DIIS
   @DF-RHF iter   8:  -157.28441129059340   -3.46125e-09   1.62468e-07 DIIS
   @DF-RHF iter   9:  -157.28441129078507   -1.91676e-10   4.40625e-08 DIIS
   @DF-RHF iter  10:  -157.28441129080133   -1.62572e-11   1.03791e-08 DIIS
   @DF-RHF iter  11:  -157.28441129080184   -5.11591e-13   2.95929e-09 DIIS
   @DF-RHF iter  12:  -157.28441129080184    0.00000e+00   6.32181e-10 DIIS
   @DF-RHF iter  13:  -157.28441129080184    0.00000e+00   1.25677e-10 DIIS
   @DF-RHF iter  14:  -157.28441129080178    5.68434e-14   2.97085e-11 DIIS

  ==> Post-Iterations <==

    Orbital Energies (a.u.)
    -----------------------

    Doubly Occupied:                                                      

       1A    -11.207762     2A    -11.207155     3A    -11.198963  
       4A    -11.198887     5A     -1.075962     6A     -0.970205  
       7A     -0.883936     8A     -0.776302     9A     -0.639727  
      10A     -0.628996    11A     -0.574212    12A     -0.539241  
      13A     -0.527541    14A     -0.507358    15A     -0.466868  
      16A     -0.453680    17A     -0.453357  

    Virtual:                                                              

      18A      0.233978    19A      0.282541    20A      0.291637  
      21A      0.304412    22A      0.316249    23A      0.320325  
      24A      0.349379    25A      0.353916    26A      0.368521  
      27A      0.379148    28A      0.390788    29A      0.419604  
      30A      0.451170    31A      0.714958    32A      0.732871  
      33A      0.755273    34A      0.755926    35A      0.775741  
      36A      0.840798    37A      0.845991    38A      0.929209  
      39A      0.950986    40A      0.996210    41A      1.118852  
      42A      1.138489    43A      1.177274    44A      1.182500  
      45A      1.183185    46A      1.208877    47A      1.213165  
      48A      1.216975    49A      1.237489    50A      1.269725  
      51A      1.270239    52A      1.307772    53A      1.327127  
      54A      1.584870    55A      1.715922    56A      1.736531  
      57A      1.739797    58A      1.911437    59A      1.957087  
      60A      2.062622    61A      2.164551    62A      2.285179  
      63A      2.314032    64A      2.320999    65A      2.352799  
      66A      2.452836    67A      2.502446    68A      2.634220  
      69A      2.670762    70A      2.682812    71A      2.715168  
      72A      2.750378    73A      2.801995    74A      2.938678  
      75A      2.946166    76A      3.095402    77A      4.589352  
      78A      4.691442    79A      4.797847    80A      4.960355  

    Final Occupation by Irrep:
              A 
    DOCC [    17 ]

  Energy converged.

  @DF-RHF Final Energy:  -157.28441129080178

   => Energetics <=

    Nuclear Repulsion Energy =            135.6288730680293213
    One-Electron Energy =                -479.2062637979246915
    Two-Electron Energy =                 186.2929794390936138
    DFT Exchange-Correlation Energy =       0.0000000000000000
    Empirical Dispersion Energy =           0.0000000000000000
    PCM Polarization Energy =               0.0000000000000000
    EFP Energy =                            0.0000000000000000
    Total Energy =                       -157.2844112908017280


  Saving occupied orbitals to File 180.

*** tstop() called on lski1497 at Mon Feb 20 17:32:59 2017
Module time:
	user time   =       5.16 seconds =       0.09 minutes
	system time =       0.17 seconds =       0.00 minutes
	total time  =          8 seconds =       0.13 minutes
Total time:
	user time   =       5.16 seconds =       0.09 minutes
	system time =       0.17 seconds =       0.00 minutes
	total time  =          8 seconds =       0.13 minutes


Properties will be evaluated at   0.000000,   0.000000,   0.000000 Bohr

Properties computed using the SCF density matrix

  Nuclear Dipole Moment: (a.u.)
     X:    -0.7969      Y:    -0.2851      Z:    -0.6349

  Electronic Dipole Moment: (a.u.)
     X:     0.8203      Y:     0.2931      Z:     0.6532

  Dipole Moment: (a.u.)
     X:     0.0234      Y:     0.0079      Z:     0.0183     Total:     0.0307

  Dipole Moment: (Debye)
     X:     0.0594      Y:     0.0202      Z:     0.0464     Total:     0.0781


  //>>>>>>>>>>>>>>>>>>>>>>>>>>>>>>>>>>>//
  //               DFMP2               //
  //<<<<<<<<<<<<<<<<<<<<<<<<<<<<<<<<<<<//


*** tstart() called on lski1497
*** at Mon Feb 20 17:32:59 2017


*** tstop() called on lski1497 at Mon Feb 20 17:33:00 2017
Module time:
	user time   =       0.52 seconds =       0.01 minutes
	system time =       0.00 seconds =       0.00 minutes
	total time  =          1 seconds =       0.02 minutes
Total time:
	user time   =       5.69 seconds =       0.09 minutes
	system time =       0.17 seconds =       0.00 minutes
	total time  =          9 seconds =       0.15 minutes
	 --------------------------------------------------------
	                          DF-MP2                         
	      2nd-Order Density-Fitted Moller-Plesset Theory     
	              RMP2 Wavefunction,   1 Threads             
	                                                         
	        Rob Parrish, Justin Turney, Andy Simmonett,      
	           Ed Hohenstein, and C. David Sherrill          
	 --------------------------------------------------------

   => Auxiliary Basis Set <=

  Basis Set: 
    Number of shells: 132
    Number of basis function: 364
    Number of Cartesian functions: 414
    Spherical Harmonics?: true
    Max angular momentum: 3

	 --------------------------------------------------------
	                 NBF =    80, NAUX =   364
	 --------------------------------------------------------
	   CLASS    FOCC     OCC    AOCC    AVIR     VIR    FVIR
	   PAIRS       0      17      17      63      63       0
	 --------------------------------------------------------

DGAS Warning! /src/lib/libfock/apps.cc:80 is not currently checking restricted

         ------------------------------------------------------------
                                     CPHF                           
                                  Rob Parrish                       
         ------------------------------------------------------------

  ==> Geometry <==

    Molecular point group: c1
    Full point group: C1

    Geometry (in Angstrom), charge = 0, multiplicity = 1:

       Center              X                  Y                   Z               Mass       
    ------------   -----------------  -----------------  -----------------  -----------------
           H         -1.780902560730     0.248885860623     0.736970686905     1.007825032070
           H         -1.639902560730     1.876885860623     0.116970686905     1.007825032070
           H         -1.341902560730     0.512885860623    -0.933029313095     1.007825032070
           C         -1.242902560730     0.883885860623     0.064970686905    12.000000000000
           H          0.784097439270     1.539885860623    -0.213029313095     1.007825032070
           H          0.346097439270     1.276885860623     1.457970686905     1.007825032070
           C          0.246097439270     0.904885860623     0.459970686905    12.000000000000
           H          1.884097439270    -0.476114139377     0.311970686905     1.007825032070
           H          0.544097439270    -1.064114139377     1.265970686905     1.007825032070
           C          0.818097439270    -0.523114139377     0.384970686905    12.000000000000
           H          0.648097439270    -2.232114139377    -0.905029313095     1.007825032070
           H          0.523097439270    -0.700114139377    -1.735029313095     1.007825032070
           H         -0.816902560730    -1.287114139377    -0.781029313095     1.007825032070
           C          0.250097439270    -1.240114139377    -0.853029313095    12.000000000000

  Nuclear repulsion =  135.628873068029321
  Reference energy  = -157.284411290801785

  ==> Basis Set <==

  Basis Set: 6-31G(D)
    Number of shells: 44
    Number of basis function: 80
    Number of Cartesian functions: 80
    Spherical Harmonics?: false
    Max angular momentum: 2

  ==> CGRSolver (by Rob Parrish) <==

   Number of roots    =         1
   Preconditioning    =    JACOBI
   Convergence cutoff =     1E-06
   Maximum iterations =       100

  ==> CPHFRHamiltonian (by Rob Parrish) <== 

  ==> DFJK: Density-Fitted J/K Matrices <==

    J tasked:                  Yes
    K tasked:                  Yes
    wK tasked:                  No
    OpenMP threads:              1
    Integrals threads:           1
    Memory (MB):               715
    Algorithm:                Core
    Integral Cache:           NONE
    Schwarz Cutoff:          1E-12
    Fitting Condition:       1E-12

   => Auxiliary Basis Set <=

  Basis Set: 
    Number of shells: 186
    Number of basis function: 574
    Number of Cartesian functions: 574
    Spherical Harmonics?: false
    Max angular momentum: 3

  ==> CPHF Iterations <==

  => Iterations <=

             Iter  Converged  Remaining    Residual
  CGR           1          0          1   7.575E-02
  CGR           2          0          1   8.676E-03
  CGR           3          0          1   2.261E-03
  CGR           4          0          1   4.345E-04
  CGR           5          0          1   7.756E-05
  CGR           6          0          1   1.412E-05
  CGR           7          0          1   1.898E-06
  CGR           8          1          0   4.778E-07

    CGRSolver converged.

  ==> DFCorrGrad: Density-Fitted Correlated Gradients <==

    OpenMP threads:              1
    Integrals threads:           1
    Memory (MB):               715
    Schwarz Cutoff:          0E+00
    Fitting Condition:       1E-12

   => Auxiliary Basis Set <=

  Basis Set: 
    Number of shells: 186
    Number of basis function: 510
    Number of Cartesian functions: 574
    Spherical Harmonics?: true
    Max angular momentum: 3

	-----------------------------------------------------------
	 ==================> DF-MP2 Energies <==================== 
	-----------------------------------------------------------
	 Reference Energy          =    -157.2844112908017848 [Eh]
	 Singles Energy            =      -0.0000000000000000 [Eh]
	 Same-Spin Energy          =      -0.1253835699110889 [Eh]
	 Opposite-Spin Energy      =      -0.4213423314636894 [Eh]
	 Correlation Energy        =      -0.5467259013747783 [Eh]
	 Total Energy              =    -157.8311371921765556 [Eh]
	-----------------------------------------------------------
	 ================> DF-SCS-MP2 Energies <================== 
	-----------------------------------------------------------
	 SCS Same-Spin Scale       =       0.3333333333333333 [-]
	 SCS Opposite-Spin Scale   =       1.2000000000000000 [-]
	 SCS Same-Spin Energy      =      -0.0417945233036963 [Eh]
	 SCS Opposite-Spin Energy  =      -0.5056107977564273 [Eh]
	 SCS Correlation Energy    =      -0.5474053210601235 [Eh]
	 SCS Total Energy          =    -157.8318166118619104 [Eh]
	-----------------------------------------------------------


  -Total Gradient:
     Atom            X                  Y                   Z
    ------   -----------------  -----------------  -----------------
       1        0.011442577318     0.009589996374    -0.009225109403
       2        0.009484929722    -0.013914056100    -0.000782240302
       3        0.006971369043    -0.001346456519     0.011952367349
       4       -0.025581699123    -0.011949784888    -0.008505331268
       5       -0.008923686446    -0.011926267094     0.009397342505
       6       -0.003950292958    -0.009978346270    -0.014783815314
       7        0.018816502486     0.027095314958     0.007146787511
       8       -0.018160017883     0.002090033506    -0.002701195228
       9        0.002511945879     0.009801114471    -0.015131302622
      10        0.019882231034    -0.013644113638     0.023816089404
      11       -0.005177995613     0.015915303310     0.004271325740
      12       -0.002952600034    -0.006596722353     0.016101777392
      13        0.010337841674     0.007938515538     0.002437125749
      14       -0.014701105097    -0.003074531292    -0.023993821513


			-----------------------------------------
			 OPTKING 2.0: for geometry optimizations 
			  - R.A. King,  Bethel University        
			-----------------------------------------

	Internal coordinates to be generated automatically.
	Detected frag 1 with atoms:  1 2 3 4 5 6 7 8 9 10 11 12 13 14
	---Fragment 1 Bond Connectivity---
	 1 : 4
	 2 : 4
	 3 : 4
	 4 : 1 2 3 7
	 5 : 7
	 6 : 7
	 7 : 4 5 6 10
	 8 : 10
	 9 : 10
	 10 : 7 8 9 14
	 11 : 14
	 12 : 14
	 13 : 14
	 14 : 10 11 12 13

	Assuming in current code that numbering for constraints corresponds to unified fragment.
	Fixed dihedral atom list: 
	     4     7    10    14
	---Fragment 1 Geometry and Gradient---
	 H          -3.3654181091        0.4703261149        1.3926727662
	 H          -3.0989667244        3.5468002593        0.2210425638
	 H          -2.5358283368        0.9692138140       -1.7631698757
	 C          -2.3487454496        1.6703022093        0.1227768049
	 H           1.4817294217        2.9099625525       -0.4025670600
	 H           0.6540293755        2.4129645795        2.7551653080
	 C           0.4650567622        1.7099864581        0.8692186274
	 H           3.5604281679       -0.8997253314        0.5895391597
	 H           1.0281951498       -2.0108842976        2.3923378905
	 C           1.5459801102       -0.9885424597        0.7274891674
	 H           1.2247266676       -4.2180844208       -1.7102575440
	 H           0.9885109010       -1.3230239852       -3.2787302343
	 H          -1.5437221170       -2.4322932252       -1.4759315035
	 C           0.4726156668       -2.3434760969       -1.6119917851
	             0.0114425773        0.0095899964       -0.0092251094
	             0.0094849297       -0.0139140561       -0.0007822403
	             0.0069713690       -0.0013464565        0.0119523673
	            -0.0255816991       -0.0119497849       -0.0085053313
	            -0.0089236864       -0.0119262671        0.0093973425
	            -0.0039502930       -0.0099783463       -0.0147838153
	             0.0188165025        0.0270953150        0.0071467875
	            -0.0181600179        0.0020900335       -0.0027011952
	             0.0025119459        0.0098011145       -0.0151313026
	             0.0198822310       -0.0136441136        0.0238160894
	            -0.0051779956        0.0159153033        0.0042713257
	            -0.0029526000       -0.0065967224        0.0161017774
	             0.0103378417        0.0079385155        0.0024371257
	            -0.0147011051       -0.0030745313       -0.0239938215

	Previous optimization step data not found.  Starting new optimization.

	---Fragment 1 Intrafragment Coordinates---
	 - Coordinate -           - BOHR/RAD -       - ANG/DEG -
	 R(1,4)           =         2.021436	       1.069698
	 R(2,4)           =         2.023298	       1.070683
	 R(3,4)           =         2.020723	       1.069320
	 R(4,7)           =         2.911397	       1.540645
	 R(5,7)           =         2.022623	       1.070326
	 R(6,7)           =         2.021555	       1.069761
	 R(7,10)          =         2.910419	       1.540128
	 R(8,10)          =         2.021118	       1.069530
	 R(9,10)          =         2.021140	       1.069541
	 R(10,14)         =         2.908802	       1.539272
	 R(11,14)         =         2.022247	       1.070127
	 R(12,14)         =         2.021259	       1.069604
	 R(13,14)         =         2.022874	       1.070459
	 B(1,4,2)         =         1.910870	     109.484805
	 B(1,4,3)         =         1.911121	     109.499161
	 B(1,4,7)         =         1.910399	     109.457783
	 B(2,4,3)         =         1.910042	     109.437340
	 B(2,4,7)         =         1.910564	     109.467262
	 B(3,4,7)         =         1.910803	     109.480971
	 B(4,7,5)         =         1.909937	     109.431343
	 B(4,7,6)         =         1.911630	     109.528316
	 B(4,7,10)        =         1.911154	     109.501062
	 B(5,7,6)         =         1.910605	     109.469614
	 B(5,7,10)        =         1.910047	     109.437654
	 B(6,7,10)        =         1.910425	     109.459295
	 B(7,10,8)        =         1.910015	     109.435815
	 B(7,10,9)        =         1.911064	     109.495884
	 B(7,10,14)       =         1.911351	     109.512373
	 B(8,10,9)        =         1.911117	     109.498955
	 B(8,10,14)       =         1.910664	     109.472970
	 B(9,10,14)       =         1.909588	     109.411344
	 B(10,14,11)      =         1.910958	     109.489813
	 B(10,14,12)      =         1.911193	     109.503272
	 B(10,14,13)      =         1.911520	     109.522005
	 B(11,14,12)      =         1.910285	     109.451288
	 B(11,14,13)      =         1.910581	     109.468233
	 B(12,14,13)      =         1.909262	     109.392648
	 D(1,4,7,5)       =         3.140997	     179.965873
	 D(1,4,7,6)       =        -1.047644	     -60.025575
	 D(1,4,7,10)      =         1.047427	      60.013132
	 D(2,4,7,5)       =        -1.047689	     -60.028143
	 D(2,4,7,6)       =         1.046856	      59.980409
	 D(2,4,7,10)      =        -3.141259	    -179.980883
	 D(3,4,7,5)       =         1.046044	      59.933911
	 D(3,4,7,6)       =         3.140588	     179.942463
	 D(3,4,7,10)      =        -1.047526	     -60.018830
	 D(4,7,10,8)      =         2.792518	     159.999472
	 D(4,7,10,9)      =        -1.395795	     -79.973150
	 D(4,7,10,14)     =         0.698024	      39.993827
	 D(5,7,10,8)      =         0.699015	      40.050596
	 D(5,7,10,9)      =         2.793888	     160.077974
	 D(5,7,10,14)     =        -1.395479	     -79.955049
	 D(6,7,10,8)      =        -1.394860	     -79.919602
	 D(6,7,10,9)      =         0.700013	      40.107776
	 D(6,7,10,14)     =         2.793831	     160.074752
	 D(7,10,14,11)    =         3.141157	     179.975061
	 D(7,10,14,12)    =         1.046647	      59.968444
	 D(7,10,14,13)    =        -1.046954	     -59.986060
	 D(8,10,14,11)    =         1.047061	      59.992153
	 D(8,10,14,12)    =        -1.047450	     -60.014464
	 D(8,10,14,13)    =        -3.141051	    -179.968968
	 D(9,10,14,11)    =        -1.047306	     -60.006228
	 D(9,10,14,12)    =         3.141368	     179.987154
	 D(9,10,14,13)    =         1.047767	      60.032651

	Current energy   :      -157.8311371922

	Generating empirical Hessian (Schlegel '84) for each fragment.
	Adding user-defined constraint: Fragment 1; Coordinate 49:
		Value =     0.698024; Fixed value    =     0.698132
		Force =     0.000054; Force constant =     0.500000
	Removing off-diagonal coupling between coordinate 49 and others.
	Taking RFO optimization step.
	Going to follow RFO solution 1.
	Using RFO vector 1.

	Determining step-restricting scale parameter for RS-RFO.
	Maximum step size allowed    0.10000

	 Iter      |step|        alpha        rfo_root  
	------------------------------------------------
	    0     0.41530       1.00000           1
	    1     0.28893       3.79755           1
	    2     0.19852      12.39448           1
	    3     0.14303      30.09421           1
	    4     0.11366      53.27760           1
	    5     0.10216      68.75814           1
	    6     0.10007      72.19837           1
	    7     0.10000      72.31726           1
	------------------------------------------------
	Norm of target step-size    0.10000
	Projected energy change by RFO approximation:        -0.0086452130

	Back-transformation to cartesian coordinates...
	Could not converge backtransformation.
	Using first guess instead.

	--- Internal Coordinate Step in ANG or DEG, aJ/ANG or AJ/DEG ---
	 ---------------------------------------------------------------------------
	   Coordinate                Previous        Force       Change         New 
	   ----------                --------       ------       ------       ------
	    1 R(1,4)          =      1.069698     0.142063     0.009207     1.078905
	    2 R(2,4)          =      1.070683     0.135604     0.009608     1.080291
	    3 R(3,4)          =      1.069320     0.093373     0.007072     1.076392
	    4 R(4,7)          =      1.540645     0.002615     0.001571     1.542216
	    5 R(5,7)          =      1.070326     0.143930     0.009173     1.079499
	    6 R(6,7)          =      1.069761     0.145259     0.009519     1.079279
	    7 R(7,10)         =      1.540128     0.122146     0.008669     1.548797
	    8 R(8,10)         =      1.069530     0.146846     0.009618     1.079148
	    9 R(9,10)         =      1.069541     0.148833     0.009475     1.079016
	   10 R(10,14)        =      1.539272     0.008602     0.001987     1.541259
	   11 R(11,14)        =      1.070127     0.139125     0.009825     1.079952
	   12 R(12,14)        =      1.069604     0.143038     0.009267     1.078871
	   13 R(13,14)        =      1.070459     0.086416     0.006641     1.077100
	   14 B(1,4,2)        =    109.484805    -0.000278    -0.247056   109.237749
	   15 B(1,4,3)        =    109.499161    -0.000270    -0.302859   109.196302
	   16 B(1,4,7)        =    109.457783     0.000228     0.192429   109.650211
	   17 B(2,4,3)        =    109.437340    -0.000461    -0.426298   109.011043
	   18 B(2,4,7)        =    109.467262     0.000168     0.170989   109.638251
	   19 B(3,4,7)        =    109.480971     0.000614     0.607078   110.088049
	   20 B(4,7,5)        =    109.431343    -0.000798    -0.727426   108.703917
	   21 B(4,7,6)        =    109.528316    -0.000938    -0.782856   108.745461
	   22 B(4,7,10)       =    109.501062     0.003049     2.704170   112.205232
	   23 B(5,7,6)        =    109.469614     0.000338     0.193934   109.663548
	   24 B(5,7,10)       =    109.437654    -0.000746    -0.613616   108.824038
	   25 B(6,7,10)       =    109.459295    -0.000905    -0.783972   108.675322
	   26 B(7,10,8)       =    109.435815    -0.000903    -0.782290   108.653525
	   27 B(7,10,9)       =    109.495884    -0.000751    -0.619168   108.876715
	   28 B(7,10,14)      =    109.512373     0.003047     2.701875   112.214248
	   29 B(8,10,9)       =    109.498955     0.000335     0.190648   109.689602
	   30 B(8,10,14)      =    109.472970    -0.000932    -0.776362   108.696608
	   31 B(9,10,14)      =    109.411344    -0.000795    -0.723754   108.687590
	   32 B(10,14,11)     =    109.489813     0.000169     0.171392   109.661205
	   33 B(10,14,12)     =    109.503272     0.000220     0.185408   109.688680
	   34 B(10,14,13)     =    109.522005     0.000611     0.605761   110.127766
	   35 B(11,14,12)     =    109.451288    -0.000274    -0.243347   109.207940
	   36 B(11,14,13)     =    109.468233    -0.000465    -0.432433   109.035800
	   37 B(12,14,13)     =    109.392648    -0.000261    -0.293627   109.099021
	   38 D(1,4,7,5)      =    179.965873     0.000085     0.325642   180.291515
	   39 D(1,4,7,6)      =    -60.025575    -0.000064    -0.338853   -60.364428
	   40 D(1,4,7,10)     =     60.013132    -0.000021    -0.128681    59.884451
	   41 D(2,4,7,5)      =    -60.028143     0.000062     0.246062   -59.782081
	   42 D(2,4,7,6)      =     59.980409    -0.000087    -0.418433    59.561977
	   43 D(2,4,7,10)     =   -179.980883    -0.000044    -0.208261  -180.189144
	   44 D(3,4,7,5)      =     59.933911     0.000042     0.202737    60.136648
	   45 D(3,4,7,6)      =    179.942463    -0.000107    -0.461757   179.480705
	   46 D(3,4,7,10)     =    -60.018830    -0.000064    -0.251586   -60.270415
	   47 D(4,7,10,8)     =    159.999472     0.000101     0.390542   160.390014
	   48 D(4,7,10,9)     =    -79.973150    -0.000038    -0.214573   -80.187723
	   49 D(4,7,10,14)    =     39.993827     0.000062     0.176600    40.170426
	   50 D(5,7,10,8)     =     40.050596     0.000002     0.001988    40.052584
	   51 D(5,7,10,9)     =    160.077974    -0.000136    -0.603127   159.474847
	   52 D(5,7,10,14)    =    -79.955049    -0.000037    -0.211954   -80.167003
	   53 D(6,7,10,8)     =    -79.919602     0.000139     0.599197   -79.320406
	   54 D(6,7,10,9)     =     40.107776     0.000000    -0.005918    40.101858
	   55 D(6,7,10,14)    =    160.074752     0.000100     0.385255   160.460007
	   56 D(7,10,14,11)   =    179.975061    -0.000043    -0.203726   179.771336
	   57 D(7,10,14,12)   =     59.968444    -0.000021    -0.124841    59.843603
	   58 D(7,10,14,13)   =    -59.986060    -0.000064    -0.254161   -60.240220
	   59 D(8,10,14,11)   =     59.992153    -0.000086    -0.415392    59.576761
	   60 D(8,10,14,12)   =    -60.014464    -0.000064    -0.336508   -60.350972
	   61 D(8,10,14,13)   =   -179.968968    -0.000107    -0.465828  -180.434795
	   62 D(9,10,14,11)   =    -60.006228     0.000062     0.245284   -59.760944
	   63 D(9,10,14,12)   =    179.987154     0.000084     0.324169   180.311323
	   64 D(9,10,14,13)   =     60.032651     0.000041     0.194849    60.227499
	 ---------------------------------------------------------------------------
	 Forces used to impose fixed constraints are not included.
	  Forces zeroed: 49 

  ==> Convergence Check <==

  Measures of convergence in internal coordinates in au.
  Criteria marked as inactive (o), active & met (*), and active & unmet ( ).
  --------------------------------------------------------------------------------------------- ~
   Step     Total Energy     Delta E     MAX Force     RMS Force      MAX Disp      RMS Disp    ~
  --------------------------------------------------------------------------------------------- ~
    Convergence Criteria    1.00e-06 *    3.00e-04 *             o    1.20e-03 *             o  ~
  --------------------------------------------------------------------------------------------- ~
      1    -157.83113719   -1.58e+02      4.01e-02      1.11e-02 o    4.72e-02      1.27e-02 o  ~
  ---------------------------------------------------------------------------------------------

	Writing optimization data to binary file.
	Structure for next step:
	Cartesian Geometry (in Angstrom)
	    H    -1.8289015402   0.3057837263   0.7514272576
	    H    -1.6367485760   1.9551872216   0.1669033474
	    H    -1.4057986038   0.6018286713  -0.9277681447
	    C    -1.2693746478   0.9426632187   0.0840815345
	    H     0.7697884988   1.5468253731  -0.2130536586
	    H     0.3386258075   1.2553891428   1.4731892443
	    C     0.2257876339   0.9014160985   0.4598707070
	    H     1.8881062568  -0.4556787602   0.2940804977
	    H     0.5448898549  -1.0757550232   1.2557206176
	    C     0.8137852629  -0.5283206043   0.3656159901
	    H     0.7253852250  -2.2817703158  -0.8911395193
	    H     0.5526757363  -0.7636274402  -1.7642511335
	    H    -0.7843550583  -1.3875764921  -0.8115729652
	    C     0.2874982999  -1.2949627678  -0.8635141582
			--------------------------
			 OPTKING Finished Execution 
			--------------------------

    Structure for next step:
    Molecular point group: c1
    Full point group: C1

    Geometry (in Angstrom), charge = 0, multiplicity = 1:

    H           -1.826309896327     0.306682260962     0.753476745721
    H           -1.634156932133     1.956085756331     0.168952835468
    H           -1.403206959953     0.602727206027    -0.925718656644
    C           -1.266783003948     0.943561753360     0.086131022607
    H            0.772380142703     1.547723907832    -0.211004170549
    H            0.341217451380     1.256287677487     1.475238732339
    C            0.228379277721     0.902314633187     0.461920195114
    H            1.890697900670    -0.454780225469     0.296129985741
    H            0.547481498810    -1.074856488468     1.257770105637
    C            0.816376906724    -0.527422069605     0.367665478160
    H            0.727976868836    -2.280871781082    -0.889090031201
    H            0.555267380118    -0.762728905500    -1.762201645401
    H           -0.781763414475    -1.386677957412    -0.809523477086
    C            0.290089943774    -1.294064233150    -0.861464670163

gradient() will perform analytic gradient computation.
    SCF Algorithm Type (re)set to DF.

*** tstart() called on lski1497
*** at Mon Feb 20 17:33:23 2017


         ---------------------------------------------------------
                                   SCF
            by Justin Turney, Rob Parrish, and Andy Simmonett
                              RHF Reference
                        1 Threads,   1000 MiB Core
         ---------------------------------------------------------

  ==> Geometry <==

    Molecular point group: c1
    Full point group: C1

    Geometry (in Angstrom), charge = 0, multiplicity = 1:

       Center              X                  Y                   Z               Mass       
    ------------   -----------------  -----------------  -----------------  -----------------
           H         -1.826309896327     0.306682260962     0.753476745721     1.007825032070
           H         -1.634156932133     1.956085756331     0.168952835468     1.007825032070
           H         -1.403206959953     0.602727206027    -0.925718656644     1.007825032070
           C         -1.266783003948     0.943561753360     0.086131022607    12.000000000000
           H          0.772380142703     1.547723907832    -0.211004170549     1.007825032070
           H          0.341217451380     1.256287677487     1.475238732339     1.007825032070
           C          0.228379277721     0.902314633187     0.461920195114    12.000000000000
           H          1.890697900670    -0.454780225469     0.296129985741     1.007825032070
           H          0.547481498810    -1.074856488468     1.257770105637     1.007825032070
           C          0.816376906724    -0.527422069605     0.367665478160    12.000000000000
           H          0.727976868836    -2.280871781082    -0.889090031201     1.007825032070
           H          0.555267380118    -0.762728905500    -1.762201645401     1.007825032070
           H         -0.781763414475    -1.386677957412    -0.809523477086     1.007825032070
           C          0.290089943774    -1.294064233150    -0.861464670163    12.000000000000

  Running in c1 symmetry.

  Rotational constants: A =      0.40227  B =      0.18016  C =      0.14102 [cm^-1]
  Rotational constants: A =  12059.64195  B =   5401.04414  C =   4227.58794 [MHz]
  Nuclear repulsion =  133.932276746583767

  Charge       = 0
  Multiplicity = 1
  Electrons    = 34
  Nalpha       = 17
  Nbeta        = 17

  ==> Algorithm <==

  SCF Algorithm Type is DF.
  DIIS enabled.
  MOM disabled.
  Fractional occupation disabled.
  Guess Type is READ.
  Energy threshold   = 1.00e-10
  Density threshold  = 1.00e-10
  Integral threshold = 0.00e+00

  ==> Primary Basis <==

  Basis Set: 6-31G(D)
    Number of shells: 44
    Number of basis function: 80
    Number of Cartesian functions: 80
    Spherical Harmonics?: false
    Max angular momentum: 2

  ==> Pre-Iterations <==

   -------------------------------------------------------
    Irrep   Nso     Nmo     Nalpha   Nbeta   Ndocc  Nsocc
   -------------------------------------------------------
     A         80      80       0       0       0       0
   -------------------------------------------------------
    Total      80      80      17      17      17       0
   -------------------------------------------------------

  ==> Integral Setup <==

  ==> DFJK: Density-Fitted J/K Matrices <==

    J tasked:                  Yes
    K tasked:                  Yes
    wK tasked:                  No
    OpenMP threads:              1
    Integrals threads:           1
    Memory (MB):               715
    Algorithm:                Core
    Integral Cache:           NONE
    Schwarz Cutoff:          1E-12
    Fitting Condition:       1E-12

   => Auxiliary Basis Set <=

  Basis Set: 
    Number of shells: 186
    Number of basis function: 574
    Number of Cartesian functions: 574
    Spherical Harmonics?: false
    Max angular momentum: 3

  Minimum eigenvalue in the overlap matrix is 4.8758728350E-03.
  Using Symmetric Orthogonalization.
  SCF Guess was Projection but file not found.
  Switching over to SAD guess.

  SCF Guess: Superposition of Atomic Densities via on-the-fly atomic UHF.

  ==> Iterations <==

                           Total Energy        Delta E     RMS |[F,P]|

   @DF-RHF iter   0:  -158.85691303560876   -1.58857e+02   4.63561e-02 
   @DF-RHF iter   1:  -157.19720940281351    1.65970e+00   4.04404e-03 
   @DF-RHF iter   2:  -157.28165561721508   -8.44462e-02   1.16089e-03 DIIS
   @DF-RHF iter   3:  -157.29025306001611   -8.59744e-03   3.55000e-04 DIIS
   @DF-RHF iter   4:  -157.29086919163885   -6.16132e-04   8.69998e-05 DIIS
   @DF-RHF iter   5:  -157.29091735803112   -4.81664e-05   1.44884e-05 DIIS
   @DF-RHF iter   6:  -157.29091900674703   -1.64872e-06   2.56423e-06 DIIS
   @DF-RHF iter   7:  -157.29091904131926   -3.45722e-08   7.57652e-07 DIIS
   @DF-RHF iter   8:  -157.29091904431104   -2.99178e-09   1.42832e-07 DIIS
   @DF-RHF iter   9:  -157.29091904445872   -1.47679e-10   3.91581e-08 DIIS
   @DF-RHF iter  10:  -157.29091904447031   -1.15961e-11   9.90445e-09 DIIS
   @DF-RHF iter  11:  -157.29091904447111   -7.95808e-13   2.65879e-09 DIIS
   @DF-RHF iter  12:  -157.29091904447117   -5.68434e-14   5.47142e-10 DIIS
   @DF-RHF iter  13:  -157.29091904447100    1.70530e-13   1.08680e-10 DIIS
   @DF-RHF iter  14:  -157.29091904447100    0.00000e+00   2.63829e-11 DIIS

  ==> Post-Iterations <==

    Orbital Energies (a.u.)
    -----------------------

    Doubly Occupied:                                                      

       1A    -11.211868     2A    -11.211303     3A    -11.203749  
       4A    -11.203696     5A     -1.069131     6A     -0.971854  
       7A     -0.878908     8A     -0.773170     9A     -0.636530  
      10A     -0.620585    11A     -0.573858    12A     -0.533560  
      13A     -0.528708    14A     -0.509046    15A     -0.463811  
      16A     -0.454710    17A     -0.453030  

    Virtual:                                                              

      18A      0.229379    19A      0.281966    20A      0.290576  
      21A      0.301014    22A      0.314866    23A      0.318138  
      24A      0.345329    25A      0.347700    26A      0.363617  
      27A      0.378149    28A      0.385746    29A      0.414561  
      30A      0.457033    31A      0.713547    32A      0.731160  
      33A      0.738336    34A      0.759261    35A      0.775428  
      36A      0.847210    37A      0.848845    38A      0.921391  
      39A      0.950068    40A      0.997644    41A      1.110816  
      42A      1.119115    43A      1.167545    44A      1.171383  
      45A      1.176220    46A      1.193292    47A      1.202180  
      48A      1.207162    49A      1.236091    50A      1.258626  
      51A      1.258872    52A      1.294297    53A      1.312395  
      54A      1.582346    55A      1.711955    56A      1.714826  
      57A      1.729888    58A      1.910036    59A      1.956774  
      60A      2.049471    61A      2.163467    62A      2.278394  
      63A      2.302882    64A      2.317666    65A      2.347380  
      66A      2.437470    67A      2.484878    68A      2.624067  
      69A      2.662624    70A      2.665741    71A      2.695174  
      72A      2.737860    73A      2.781174    74A      2.930325  
      75A      2.959093    76A      3.081617    77A      4.564854  
      78A      4.690750    79A      4.793252    80A      4.951765  

    Final Occupation by Irrep:
              A 
    DOCC [    17 ]

  Energy converged.

  @DF-RHF Final Energy:  -157.29091904447100

   => Energetics <=

    Nuclear Repulsion Energy =            133.9322767465837671
    One-Electron Energy =                -475.8513551791928649
    Two-Electron Energy =                 184.6281593881382150
    DFT Exchange-Correlation Energy =       0.0000000000000000
    Empirical Dispersion Energy =           0.0000000000000000
    PCM Polarization Energy =               0.0000000000000000
    EFP Energy =                            0.0000000000000000
    Total Energy =                       -157.2909190444709111


  Saving occupied orbitals to File 180.

*** tstop() called on lski1497 at Mon Feb 20 17:33:30 2017
Module time:
	user time   =       5.03 seconds =       0.08 minutes
	system time =       0.15 seconds =       0.00 minutes
	total time  =          7 seconds =       0.12 minutes
Total time:
	user time   =      27.90 seconds =       0.46 minutes
	system time =       0.88 seconds =       0.01 minutes
	total time  =         39 seconds =       0.65 minutes


Properties will be evaluated at   0.000000,   0.000000,   0.000000 Bohr

Properties computed using the SCF density matrix

  Nuclear Dipole Moment: (a.u.)
     X:    -0.7597      Y:    -0.2722      Z:    -0.6056

  Electronic Dipole Moment: (a.u.)
     X:     0.7820      Y:     0.2800      Z:     0.6230

  Dipole Moment: (a.u.)
     X:     0.0223      Y:     0.0077      Z:     0.0174     Total:     0.0293

  Dipole Moment: (Debye)
     X:     0.0566      Y:     0.0197      Z:     0.0443     Total:     0.0745


  //>>>>>>>>>>>>>>>>>>>>>>>>>>>>>>>>>>>//
  //               DFMP2               //
  //<<<<<<<<<<<<<<<<<<<<<<<<<<<<<<<<<<<//


*** tstart() called on lski1497
*** at Mon Feb 20 17:33:30 2017


*** tstop() called on lski1497 at Mon Feb 20 17:33:31 2017
Module time:
	user time   =       0.50 seconds =       0.01 minutes
	system time =       0.00 seconds =       0.00 minutes
	total time  =          1 seconds =       0.02 minutes
Total time:
	user time   =      28.41 seconds =       0.47 minutes
	system time =       0.88 seconds =       0.01 minutes
	total time  =         40 seconds =       0.67 minutes
	 --------------------------------------------------------
	                          DF-MP2                         
	      2nd-Order Density-Fitted Moller-Plesset Theory     
	              RMP2 Wavefunction,   1 Threads             
	                                                         
	        Rob Parrish, Justin Turney, Andy Simmonett,      
	           Ed Hohenstein, and C. David Sherrill          
	 --------------------------------------------------------

   => Auxiliary Basis Set <=

  Basis Set: 
    Number of shells: 132
    Number of basis function: 364
    Number of Cartesian functions: 414
    Spherical Harmonics?: true
    Max angular momentum: 3

	 --------------------------------------------------------
	                 NBF =    80, NAUX =   364
	 --------------------------------------------------------
	   CLASS    FOCC     OCC    AOCC    AVIR     VIR    FVIR
	   PAIRS       0      17      17      63      63       0
	 --------------------------------------------------------

DGAS Warning! /src/lib/libfock/apps.cc:80 is not currently checking restricted

         ------------------------------------------------------------
                                     CPHF                           
                                  Rob Parrish                       
         ------------------------------------------------------------

  ==> Geometry <==

    Molecular point group: c1
    Full point group: C1

    Geometry (in Angstrom), charge = 0, multiplicity = 1:

       Center              X                  Y                   Z               Mass       
    ------------   -----------------  -----------------  -----------------  -----------------
           H         -1.826309896327     0.306682260962     0.753476745721     1.007825032070
           H         -1.634156932133     1.956085756331     0.168952835468     1.007825032070
           H         -1.403206959953     0.602727206027    -0.925718656644     1.007825032070
           C         -1.266783003948     0.943561753360     0.086131022607    12.000000000000
           H          0.772380142703     1.547723907832    -0.211004170549     1.007825032070
           H          0.341217451380     1.256287677487     1.475238732339     1.007825032070
           C          0.228379277721     0.902314633187     0.461920195114    12.000000000000
           H          1.890697900670    -0.454780225469     0.296129985741     1.007825032070
           H          0.547481498810    -1.074856488468     1.257770105637     1.007825032070
           C          0.816376906724    -0.527422069605     0.367665478160    12.000000000000
           H          0.727976868836    -2.280871781082    -0.889090031201     1.007825032070
           H          0.555267380118    -0.762728905500    -1.762201645401     1.007825032070
           H         -0.781763414475    -1.386677957412    -0.809523477086     1.007825032070
           C          0.290089943774    -1.294064233150    -0.861464670163    12.000000000000

  Nuclear repulsion =  133.932276746583767
  Reference energy  = -157.290919044470996

  ==> Basis Set <==

  Basis Set: 6-31G(D)
    Number of shells: 44
    Number of basis function: 80
    Number of Cartesian functions: 80
    Spherical Harmonics?: false
    Max angular momentum: 2

  ==> CGRSolver (by Rob Parrish) <==

   Number of roots    =         1
   Preconditioning    =    JACOBI
   Convergence cutoff =     1E-06
   Maximum iterations =       100

  ==> CPHFRHamiltonian (by Rob Parrish) <== 

  ==> DFJK: Density-Fitted J/K Matrices <==

    J tasked:                  Yes
    K tasked:                  Yes
    wK tasked:                  No
    OpenMP threads:              1
    Integrals threads:           1
    Memory (MB):               715
    Algorithm:                Core
    Integral Cache:           NONE
    Schwarz Cutoff:          1E-12
    Fitting Condition:       1E-12

   => Auxiliary Basis Set <=

  Basis Set: 
    Number of shells: 186
    Number of basis function: 574
    Number of Cartesian functions: 574
    Spherical Harmonics?: false
    Max angular momentum: 3

  ==> CPHF Iterations <==

  => Iterations <=

             Iter  Converged  Remaining    Residual
  CGR           1          0          1   7.487E-02
  CGR           2          0          1   8.603E-03
  CGR           3          0          1   2.264E-03
  CGR           4          0          1   4.332E-04
  CGR           5          0          1   7.576E-05
  CGR           6          0          1   1.387E-05
  CGR           7          0          1   1.791E-06
  CGR           8          1          0   4.379E-07

    CGRSolver converged.

  ==> DFCorrGrad: Density-Fitted Correlated Gradients <==

    OpenMP threads:              1
    Integrals threads:           1
    Memory (MB):               715
    Schwarz Cutoff:          0E+00
    Fitting Condition:       1E-12

   => Auxiliary Basis Set <=

  Basis Set: 
    Number of shells: 186
    Number of basis function: 510
    Number of Cartesian functions: 574
    Spherical Harmonics?: true
    Max angular momentum: 3

	-----------------------------------------------------------
	 ==================> DF-MP2 Energies <==================== 
	-----------------------------------------------------------
	 Reference Energy          =    -157.2909190444709964 [Eh]
	 Singles Energy            =      -0.0000000000000000 [Eh]
	 Same-Spin Energy          =      -0.1247786377921313 [Eh]
	 Opposite-Spin Energy      =      -0.4216903174492370 [Eh]
	 Correlation Energy        =      -0.5464689552413684 [Eh]
	 Total Energy              =    -157.8373879997123765 [Eh]
	-----------------------------------------------------------
	 ================> DF-SCS-MP2 Energies <================== 
	-----------------------------------------------------------
	 SCS Same-Spin Scale       =       0.3333333333333333 [-]
	 SCS Opposite-Spin Scale   =       1.2000000000000000 [-]
	 SCS Same-Spin Energy      =      -0.0415928792640438 [Eh]
	 SCS Opposite-Spin Energy  =      -0.5060283809390844 [Eh]
	 SCS Correlation Energy    =      -0.5476212602031282 [Eh]
	 SCS Total Energy          =    -157.8385403046741260 [Eh]
	-----------------------------------------------------------


  -Total Gradient:
     Atom            X                  Y                   Z
    ------   -----------------  -----------------  -----------------
       1        0.007989387696     0.005461838947    -0.005060280519
       2        0.005520765553    -0.007478102260    -0.000728278561
       3        0.004638785315     0.000420766048     0.008753995910
       4       -0.021137040184    -0.003763885841    -0.007759155981
       5       -0.006101654337    -0.008504527796     0.004243608029
       6       -0.004536237410    -0.007461480457    -0.008046672965
       7        0.013836929532     0.021470242087     0.008271338637
       8       -0.011048142997     0.001898865841    -0.004319613740
       9       -0.000412475380     0.006244508803    -0.009799220669
      10        0.017964923186    -0.010313583516     0.017134428182
      11       -0.003005605158     0.008643453743     0.002738989428
      12       -0.001342963248    -0.003108219004     0.010422914292
      13        0.008200151483     0.004411518326     0.001767813616
      14       -0.010566824054    -0.007921394920    -0.017619865659


			-----------------------------------------
			 OPTKING 2.0: for geometry optimizations 
			  - R.A. King,  Bethel University        
			-----------------------------------------

	Previous internal coordinate definitions found.
	---Fragment 1 Geometry and Gradient---
	 H          -3.4512255378        0.5795454830        1.4238646969
	 H          -3.0881090599        3.6964663719        0.3192745884
	 H          -2.6516768621        1.1389893522       -1.7493547372
	 C          -2.3938729473        1.7830733033        0.1627640443
	 H           1.4595869402        2.9247743151       -0.3987400952
	 H           0.6448075349        2.3740396546        2.7877971847
	 C           0.4315742893        1.7051275424        0.8729026640
	 H           3.5729012323       -0.8594100768        0.5596045728
	 H           1.0345900956       -2.0311843954        2.3768410378
	 C           1.5427287749       -0.9966832680        0.6947870622
	 H           1.3756769132       -4.3102230105       -1.6801366664
	 H           1.0493032789       -1.4413487450       -3.3300785007
	 H          -1.4773187541       -2.6204415740       -1.5297776698
	 C           0.5481905476       -2.4454269990       -1.6279322998
	             0.0079893877        0.0054618389       -0.0050602805
	             0.0055207656       -0.0074781023       -0.0007282786
	             0.0046387853        0.0004207660        0.0087539959
	            -0.0211370402       -0.0037638858       -0.0077591560
	            -0.0061016543       -0.0085045278        0.0042436080
	            -0.0045362374       -0.0074614805       -0.0080466730
	             0.0138369295        0.0214702421        0.0082713386
	            -0.0110481430        0.0018988658       -0.0043196137
	            -0.0004124754        0.0062445088       -0.0097992207
	             0.0179649232       -0.0103135835        0.0171344282
	            -0.0030056052        0.0086434537        0.0027389894
	            -0.0013429632       -0.0031082190        0.0104229143
	             0.0082001515        0.0044115183        0.0017678136
	            -0.0105668241       -0.0079213949       -0.0176198657

	---Fragment 1 Intrafragment Coordinates---
	 - Coordinate -           - BOHR/RAD -       - ANG/DEG -
	 R(1,4)           =         2.038835	       1.078905
	 R(2,4)           =         2.041453	       1.080291
	 R(3,4)           =         2.034086	       1.076392
	 R(4,7)           =         2.914365	       1.542216
	 R(5,7)           =         2.039957	       1.079499
	 R(6,7)           =         2.039542	       1.079279
	 R(7,10)          =         2.926802	       1.548797
	 R(8,10)          =         2.039294	       1.079148
	 R(9,10)          =         2.039045	       1.079016
	 R(10,14)         =         2.912557	       1.541259
	 R(11,14)         =         2.040814	       1.079952
	 R(12,14)         =         2.038771	       1.078871
	 R(13,14)         =         2.035424	       1.077100
	 B(1,4,2)         =         1.906558	     109.237749
	 B(1,4,3)         =         1.905835	     109.196302
	 B(1,4,7)         =         1.913757	     109.650211
	 B(2,4,3)         =         1.902602	     109.011043
	 B(2,4,7)         =         1.913548	     109.638251
	 B(3,4,7)         =         1.921399	     110.088049
	 B(4,7,5)         =         1.897241	     108.703917
	 B(4,7,6)         =         1.897966	     108.745461
	 B(4,7,10)        =         1.958351	     112.205232
	 B(5,7,6)         =         1.913990	     109.663548
	 B(5,7,10)        =         1.899338	     108.824038
	 B(6,7,10)        =         1.896742	     108.675322
	 B(7,10,8)        =         1.896362	     108.653525
	 B(7,10,9)        =         1.900257	     108.876715
	 B(7,10,14)       =         1.958508	     112.214248
	 B(8,10,9)        =         1.914445	     109.689602
	 B(8,10,14)       =         1.897114	     108.696608
	 B(9,10,14)       =         1.896956	     108.687590
	 B(10,14,11)      =         1.913949	     109.661205
	 B(10,14,12)      =         1.914429	     109.688680
	 B(10,14,13)      =         1.922092	     110.127766
	 B(11,14,12)      =         1.906038	     109.207940
	 B(11,14,13)      =         1.903034	     109.035800
	 B(12,14,13)      =         1.904137	     109.099021
	 D(1,4,7,5)       =        -3.136505	    -179.708485
	 D(1,4,7,6)       =        -1.053558	     -60.364428
	 D(1,4,7,10)      =         1.045181	      59.884451
	 D(2,4,7,5)       =        -1.043394	     -59.782081
	 D(2,4,7,6)       =         1.039553	      59.561977
	 D(2,4,7,10)      =         3.138291	     179.810856
	 D(3,4,7,5)       =         1.049583	      60.136648
	 D(3,4,7,6)       =         3.132529	     179.480705
	 D(3,4,7,10)      =        -1.051917	     -60.270415
	 D(4,7,10,8)      =         2.799334	     160.390014
	 D(4,7,10,9)      =        -1.399540	     -80.187723
	 D(4,7,10,14)     =         0.701106	      40.170426
	 D(5,7,10,8)      =         0.699049	      40.052584
	 D(5,7,10,9)      =         2.783361	     159.474847
	 D(5,7,10,14)     =        -1.399178	     -80.167003
	 D(6,7,10,8)      =        -1.384402	     -79.320406
	 D(6,7,10,9)      =         0.699909	      40.101858
	 D(6,7,10,14)     =         2.800555	     160.460007
	 D(7,10,14,11)    =         3.137602	     179.771336
	 D(7,10,14,12)    =         1.044468	      59.843603
	 D(7,10,14,13)    =        -1.051390	     -60.240220
	 D(8,10,14,11)    =         1.039811	      59.576761
	 D(8,10,14,12)    =        -1.053323	     -60.350972
	 D(8,10,14,13)    =         3.134004	     179.565205
	 D(9,10,14,11)    =        -1.043025	     -59.760944
	 D(9,10,14,12)    =        -3.136159	    -179.688677
	 D(9,10,14,13)    =         1.051168	      60.227499

	Current energy   :      -157.8373879997

	Energy change for the previous step:
		Projected    :        -0.0086452130
		Actual       :        -0.0062508075

	Performing BFGS update.
	Previous computed or guess Hessian on step 1.
	Steps to be used in Hessian update: 1
	Adding user-defined constraint: Fragment 1; Coordinate 49:
		Value =     0.701106; Fixed value    =     0.698130
		Force =    -0.001563; Force constant =     0.525000
	Removing off-diagonal coupling between coordinate 49 and others.
	Taking RFO optimization step.
	Going to follow RFO solution 1.
	Using RFO vector 1.

	Determining step-restricting scale parameter for RS-RFO.
	Maximum step size allowed    0.10000

	 Iter      |step|        alpha        rfo_root  
	------------------------------------------------
	    0     0.20059       1.00000           1
	    1     0.15670       4.94979           1
	    2     0.12447      14.46135           1
	    3     0.10675      26.20304           1
	    4     0.10072      32.22676           1
	    5     0.10001      33.02920           1
	------------------------------------------------
	Norm of target step-size    0.10001
	Projected energy change by RFO approximation:        -0.0039143427

	Back-transformation to cartesian coordinates...
	Could not converge backtransformation.
	Using first guess instead.

	--- Internal Coordinate Step in ANG or DEG, aJ/ANG or AJ/DEG ---
	 ---------------------------------------------------------------------------
	   Coordinate                Previous        Force       Change         New 
	   ----------                --------       ------       ------       ------
	    1 R(1,4)          =      1.078905     0.086486     0.012661     1.091566
	    2 R(2,4)          =      1.080291     0.073673     0.010730     1.091021
	    3 R(3,4)          =      1.076392     0.073738     0.012578     1.088970
	    4 R(4,7)          =      1.542216    -0.032309    -0.006916     1.535299
	    5 R(5,7)          =      1.079499     0.089018     0.012866     1.092365
	    6 R(6,7)          =      1.079279     0.086312     0.012470     1.091749
	    7 R(7,10)         =      1.548797    -0.000279    -0.005900     1.542897
	    8 R(8,10)         =      1.079148     0.087203     0.012592     1.091740
	    9 R(9,10)         =      1.079016     0.091853     0.013247     1.092263
	   10 R(10,14)        =      1.541259    -0.028266    -0.006208     1.535051
	   11 R(11,14)        =      1.079952     0.075687     0.011002     1.090955
	   12 R(12,14)        =      1.078871     0.087025     0.012727     1.091598
	   13 R(13,14)        =      1.077100     0.069652     0.012021     1.089121
	   14 B(1,4,2)        =    109.237749    -0.000229    -0.625718   108.612031
	   15 B(1,4,3)        =    109.196302    -0.000224    -0.663402   108.532900
	   16 B(1,4,7)        =    109.650211     0.000238     0.705823   110.356034
	   17 B(2,4,3)        =    109.011043    -0.000268    -0.593855   108.417187
	   18 B(2,4,7)        =    109.638251     0.000139     0.404635   110.042885
	   19 B(3,4,7)        =    110.088049     0.000335     0.729813   110.817862
	   20 B(4,7,5)        =    108.703917    -0.000242    -0.171641   108.532276
	   21 B(4,7,6)        =    108.745461    -0.000264    -0.098965   108.646496
	   22 B(4,7,10)       =    112.205232     0.001022     1.173634   113.378865
	   23 B(5,7,6)        =    109.663548    -0.000027    -0.589925   109.073623
	   24 B(5,7,10)       =    108.824038    -0.000213    -0.121479   108.702560
	   25 B(6,7,10)       =    108.675322    -0.000286    -0.238323   108.437000
	   26 B(7,10,8)       =    108.653525    -0.000285    -0.234693   108.418832
	   27 B(7,10,9)       =    108.876715    -0.000218    -0.139235   108.737480
	   28 B(7,10,14)      =    112.214248     0.001019     1.165243   113.379490
	   29 B(8,10,9)       =    109.689602    -0.000030    -0.599651   109.089951
	   30 B(8,10,14)      =    108.696608    -0.000260    -0.081122   108.615485
	   31 B(9,10,14)      =    108.687590    -0.000238    -0.157172   108.530418
	   32 B(10,14,11)     =    109.661205     0.000139     0.401226   110.062430
	   33 B(10,14,12)     =    109.688680     0.000230     0.685446   110.374127
	   34 B(10,14,13)     =    110.127766     0.000331     0.717192   110.844958
	   35 B(11,14,12)     =    109.207940    -0.000225    -0.613674   108.594266
	   36 B(11,14,13)     =    109.035800    -0.000271    -0.602755   108.433045
	   37 B(12,14,13)     =    109.099021    -0.000214    -0.630961   108.468060
	   38 D(1,4,7,5)      =   -179.708485     0.000041     0.407658  -179.300828
	   39 D(1,4,7,6)      =    -60.364428    -0.000034    -0.455488   -60.819915
	   40 D(1,4,7,10)     =     59.884451    -0.000008    -0.073018    59.811434
	   41 D(2,4,7,5)      =    -59.782081     0.000030     0.330512   -59.451569
	   42 D(2,4,7,6)      =     59.561977    -0.000045    -0.532634    59.029343
	   43 D(2,4,7,10)     =    179.810856    -0.000020    -0.150164   179.660693
	   44 D(3,4,7,5)      =     60.136648     0.000022     0.312712    60.449359
	   45 D(3,4,7,6)      =    179.480705    -0.000053    -0.550434   178.930272
	   46 D(3,4,7,10)     =    -60.270415    -0.000028    -0.167964   -60.438379
	   47 D(4,7,10,8)     =    160.390014     0.000055     0.715800   161.105814
	   48 D(4,7,10,9)     =    -80.187723    -0.000021    -0.218953   -80.406676
	   49 D(4,7,10,14)    =     40.170426     0.000026     0.237238    40.407664
	   50 D(5,7,10,8)     =     40.052584     0.000008     0.261570    40.314154
	   51 D(5,7,10,9)     =    159.474847    -0.000067    -0.673183   158.801664
	   52 D(5,7,10,14)    =    -80.167003    -0.000021    -0.216992   -80.383996
	   53 D(6,7,10,8)     =    -79.320406     0.000082     1.175956   -78.144450
	   54 D(6,7,10,9)     =     40.101858     0.000007     0.241202    40.343059
	   55 D(6,7,10,14)    =    160.460007     0.000054     0.697393   161.157400
	   56 D(7,10,14,11)   =    179.771336    -0.000019    -0.134450   179.636886
	   57 D(7,10,14,12)   =     59.843603    -0.000008    -0.057860    59.785743
	   58 D(7,10,14,13)   =    -60.240220    -0.000028    -0.172160   -60.412380
	   59 D(8,10,14,11)   =     59.576761    -0.000044    -0.526842    59.049918
	   60 D(8,10,14,12)   =    -60.350972    -0.000033    -0.450253   -60.801225
	   61 D(8,10,14,13)   =    179.565205    -0.000053    -0.564552   179.000652
	   62 D(9,10,14,11)   =    -59.760944     0.000030     0.328958   -59.431986
	   63 D(9,10,14,12)   =   -179.688677     0.000041     0.405548  -179.283129
	   64 D(9,10,14,13)   =     60.227499     0.000021     0.291249    60.518748
	 ---------------------------------------------------------------------------
	 Forces used to impose fixed constraints are not included.
	  Forces zeroed: 49 

  ==> Convergence Check <==

  Measures of convergence in internal coordinates in au.
  Criteria marked as inactive (o), active & met (*), and active & unmet ( ).
  ---------------------------------------------------------------------------------------------
   Step     Total Energy     Delta E     MAX Force     RMS Force      MAX Disp      RMS Disp   
  ---------------------------------------------------------------------------------------------
    Convergence Criteria    1.00e-06 *    3.00e-04 *             o    1.20e-03 *             o
  ---------------------------------------------------------------------------------------------
      2    -157.83738800   -6.25e-03      1.34e-02      5.19e-03 o    2.50e-02      1.25e-02 o  ~
  ---------------------------------------------------------------------------------------------

	Writing optimization data to binary file.
	Structure for next step:
	Cartesian Geometry (in Angstrom)
	    H    -1.8533839339   0.3253121032   0.7623200640
	    H    -1.6322080883   1.9886501238   0.1909925604
	    H    -1.4342430685   0.6348779249  -0.9292779930
	    C    -1.2705027417   0.9637383311   0.0958535674
	    H     0.7720079517   1.5531620693  -0.2159705074
	    H     0.3454445501   1.2500163924   1.4842523815
	    C     0.2196151662   0.8957635961   0.4592706428
	    H     1.8970218075  -0.4445360047   0.2956657524
	    H     0.5450916654  -1.0809203092   1.2611866841
	    C     0.8101436249  -0.5260811649   0.3584469873
	    H     0.7610814015  -2.3012348633  -0.8833079199
	    H     0.5671355356  -0.7868439596  -1.7834385106
	    H    -0.7758336185  -1.4280799513  -0.8262335359
	    C     0.3062769119  -1.3098427534  -0.8614777233
			--------------------------
			 OPTKING Finished Execution 
			--------------------------

    Structure for next step:
    Molecular point group: c1
    Full point group: C1

    Geometry (in Angstrom), charge = 0, multiplicity = 1:

    H           -1.852905062827     0.325465800427     0.762728602086
    H           -1.631729217273     1.988803821078     0.191401098471
    H           -1.433764197410     0.635031622198    -0.928869454883
    C           -1.270023870655     0.963892028379     0.096262105424
    H            0.772486822766     1.553315766576    -0.215561969305
    H            0.345923421109     1.250170089637     1.484660919604
    C            0.220094037289     0.895917293396     0.459679180914
    H            1.897500678548    -0.444382307430     0.296074290451
    H            0.545570536421    -1.080766611930     1.261595222157
    C            0.810622496002    -0.525927467605     0.358855525336
    H            0.761560272516    -2.301081166084    -0.882899381856
    H            0.567614406635    -0.786690262342    -1.783029972564
    H           -0.775354747438    -1.427926253987    -0.825824997878
    C            0.306755782981    -1.309689056112    -0.861069185224

gradient() will perform analytic gradient computation.
    SCF Algorithm Type (re)set to DF.

*** tstart() called on lski1497
*** at Mon Feb 20 17:33:53 2017


         ---------------------------------------------------------
                                   SCF
            by Justin Turney, Rob Parrish, and Andy Simmonett
                              RHF Reference
                        1 Threads,   1000 MiB Core
         ---------------------------------------------------------

  ==> Geometry <==

    Molecular point group: c1
    Full point group: C1

    Geometry (in Angstrom), charge = 0, multiplicity = 1:

       Center              X                  Y                   Z               Mass       
    ------------   -----------------  -----------------  -----------------  -----------------
           H         -1.852905062827     0.325465800427     0.762728602086     1.007825032070
           H         -1.631729217273     1.988803821078     0.191401098471     1.007825032070
           H         -1.433764197410     0.635031622198    -0.928869454883     1.007825032070
           C         -1.270023870655     0.963892028379     0.096262105424    12.000000000000
           H          0.772486822766     1.553315766576    -0.215561969305     1.007825032070
           H          0.345923421109     1.250170089637     1.484660919604     1.007825032070
           C          0.220094037289     0.895917293396     0.459679180914    12.000000000000
           H          1.897500678548    -0.444382307430     0.296074290451     1.007825032070
           H          0.545570536421    -1.080766611930     1.261595222157     1.007825032070
           C          0.810622496002    -0.525927467605     0.358855525336    12.000000000000
           H          0.761560272516    -2.301081166084    -0.882899381856     1.007825032070
           H          0.567614406635    -0.786690262342    -1.783029972564     1.007825032070
           H         -0.775354747438    -1.427926253987    -0.825824997878     1.007825032070
           C          0.306755782981    -1.309689056112    -0.861069185224    12.000000000000

  Running in c1 symmetry.

  Rotational constants: A =      0.40641  B =      0.17623  C =      0.13917 [cm^-1]
  Rotational constants: A =  12183.89865  B =   5283.09663  C =   4172.26257 [MHz]
  Nuclear repulsion =  133.289166526446593

  Charge       = 0
  Multiplicity = 1
  Electrons    = 34
  Nalpha       = 17
  Nbeta        = 17

  ==> Algorithm <==

  SCF Algorithm Type is DF.
  DIIS enabled.
  MOM disabled.
  Fractional occupation disabled.
  Guess Type is READ.
  Energy threshold   = 1.00e-10
  Density threshold  = 1.00e-10
  Integral threshold = 0.00e+00

  ==> Primary Basis <==

  Basis Set: 6-31G(D)
    Number of shells: 44
    Number of basis function: 80
    Number of Cartesian functions: 80
    Spherical Harmonics?: false
    Max angular momentum: 2

  ==> Pre-Iterations <==

   -------------------------------------------------------
    Irrep   Nso     Nmo     Nalpha   Nbeta   Ndocc  Nsocc
   -------------------------------------------------------
     A         80      80       0       0       0       0
   -------------------------------------------------------
    Total      80      80      17      17      17       0
   -------------------------------------------------------

  ==> Integral Setup <==

  ==> DFJK: Density-Fitted J/K Matrices <==

    J tasked:                  Yes
    K tasked:                  Yes
    wK tasked:                  No
    OpenMP threads:              1
    Integrals threads:           1
    Memory (MB):               715
    Algorithm:                Core
    Integral Cache:           NONE
    Schwarz Cutoff:          1E-12
    Fitting Condition:       1E-12

   => Auxiliary Basis Set <=

  Basis Set: 
    Number of shells: 186
    Number of basis function: 574
    Number of Cartesian functions: 574
    Spherical Harmonics?: false
    Max angular momentum: 3

  Minimum eigenvalue in the overlap matrix is 4.8980173541E-03.
  Using Symmetric Orthogonalization.
  SCF Guess was Projection but file not found.
  Switching over to SAD guess.

  SCF Guess: Superposition of Atomic Densities via on-the-fly atomic UHF.

  ==> Iterations <==

                           Total Energy        Delta E     RMS |[F,P]|

   @DF-RHF iter   0:  -158.78604637645469   -1.58786e+02   4.57854e-02 
   @DF-RHF iter   1:  -157.19834920934051    1.58770e+00   4.02826e-03 
   @DF-RHF iter   2:  -157.28319476959365   -8.48456e-02   1.16953e-03 DIIS
   @DF-RHF iter   3:  -157.29194044272413   -8.74567e-03   3.62912e-04 DIIS
   @DF-RHF iter   4:  -157.29258323671070   -6.42794e-04   8.75929e-05 DIIS
   @DF-RHF iter   5:  -157.29263250165320   -4.92649e-05   1.44565e-05 DIIS
   @DF-RHF iter   6:  -157.29263416412471   -1.66247e-06   2.57819e-06 DIIS
   @DF-RHF iter   7:  -157.29263419869164   -3.45669e-08   7.71621e-07 DIIS
   @DF-RHF iter   8:  -157.29263420173584   -3.04419e-09   1.38634e-07 DIIS
   @DF-RHF iter   9:  -157.29263420187465   -1.38812e-10   3.84614e-08 DIIS
   @DF-RHF iter  10:  -157.29263420188596   -1.13118e-11   1.01366e-08 DIIS
   @DF-RHF iter  11:  -157.29263420188624   -2.84217e-13   2.49696e-09 DIIS
   @DF-RHF iter  12:  -157.29263420188647   -2.27374e-13   5.00866e-10 DIIS
   @DF-RHF iter  13:  -157.29263420188636    1.13687e-13   1.07798e-10 DIIS
   @DF-RHF iter  14:  -157.29263420188636    0.00000e+00   3.49578e-11 DIIS

  ==> Post-Iterations <==

    Orbital Energies (a.u.)
    -----------------------

    Doubly Occupied:                                                      

       1A    -11.215442     2A    -11.214880     3A    -11.208406  
       4A    -11.208389     5A     -1.068368     6A     -0.971354  
       7A     -0.875664     8A     -0.768908     9A     -0.633201  
      10A     -0.617387    11A     -0.570950    12A     -0.534153  
      13A     -0.526400    14A     -0.506031    15A     -0.459872  
      16A     -0.456643    17A     -0.453250  

    Virtual:                                                              

      18A      0.226528    19A      0.278867    20A      0.286491  
      21A      0.298085    22A      0.313819    23A      0.316232  
      24A      0.339243    25A      0.342550    26A      0.359611  
      27A      0.376805    28A      0.386806    29A      0.414606  
      30A      0.462778    31A      0.710721    32A      0.732160  
      33A      0.733308    34A      0.760699    35A      0.778450  
      36A      0.852415    37A      0.856248    38A      0.923106  
      39A      0.951932    40A      1.000419    41A      1.107860  
      42A      1.112317    43A      1.156014    44A      1.158494  
      45A      1.166890    46A      1.179544    47A      1.189787  
      48A      1.193962    49A      1.232403    50A      1.246413  
      51A      1.246916    52A      1.285089    53A      1.298670  
      54A      1.574130    55A      1.706033    56A      1.710021  
      57A      1.733653    58A      1.907192    59A      1.960085  
      60A      2.044635    61A      2.163847    62A      2.275459  
      63A      2.294402    64A      2.312233    65A      2.345574  
      66A      2.429612    67A      2.471224    68A      2.607231  
      69A      2.650103    70A      2.656051    71A      2.685562  
      72A      2.729432    73A      2.767942    74A      2.928524  
      75A      2.971368    76A      3.080775    77A      4.556411  
      78A      4.684472    79A      4.788679    80A      4.948505  

    Final Occupation by Irrep:
              A 
    DOCC [    17 ]

  Energy converged.

  @DF-RHF Final Energy:  -157.29263420188636

   => Energetics <=

    Nuclear Repulsion Energy =            133.2891665264465928
    One-Electron Energy =                -474.5850072166102791
    Two-Electron Energy =                 184.0032064882772431
    DFT Exchange-Correlation Energy =       0.0000000000000000
    Empirical Dispersion Energy =           0.0000000000000000
    PCM Polarization Energy =               0.0000000000000000
    EFP Energy =                            0.0000000000000000
    Total Energy =                       -157.2926342018864432


  Saving occupied orbitals to File 180.

*** tstop() called on lski1497 at Mon Feb 20 17:34:02 2017
Module time:
	user time   =       4.94 seconds =       0.08 minutes
	system time =       0.14 seconds =       0.00 minutes
	total time  =          9 seconds =       0.15 minutes
Total time:
	user time   =      50.21 seconds =       0.84 minutes
	system time =       1.53 seconds =       0.03 minutes
	total time  =         71 seconds =       1.18 minutes


Properties will be evaluated at   0.000000,   0.000000,   0.000000 Bohr

Properties computed using the SCF density matrix

  Nuclear Dipole Moment: (a.u.)
     X:    -0.7529      Y:    -0.2700      Z:    -0.5997

  Electronic Dipole Moment: (a.u.)
     X:     0.7735      Y:     0.2774      Z:     0.6160

  Dipole Moment: (a.u.)
     X:     0.0206      Y:     0.0074      Z:     0.0163     Total:     0.0273

  Dipole Moment: (Debye)
     X:     0.0524      Y:     0.0188      Z:     0.0414     Total:     0.0694


  //>>>>>>>>>>>>>>>>>>>>>>>>>>>>>>>>>>>//
  //               DFMP2               //
  //<<<<<<<<<<<<<<<<<<<<<<<<<<<<<<<<<<<//


*** tstart() called on lski1497
*** at Mon Feb 20 17:34:02 2017


*** tstop() called on lski1497 at Mon Feb 20 17:34:02 2017
Module time:
	user time   =       0.51 seconds =       0.01 minutes
	system time =       0.00 seconds =       0.00 minutes
	total time  =          0 seconds =       0.00 minutes
Total time:
	user time   =      50.74 seconds =       0.85 minutes
	system time =       1.53 seconds =       0.03 minutes
	total time  =         71 seconds =       1.18 minutes
	 --------------------------------------------------------
	                          DF-MP2                         
	      2nd-Order Density-Fitted Moller-Plesset Theory     
	              RMP2 Wavefunction,   1 Threads             
	                                                         
	        Rob Parrish, Justin Turney, Andy Simmonett,      
	           Ed Hohenstein, and C. David Sherrill          
	 --------------------------------------------------------

   => Auxiliary Basis Set <=

  Basis Set: 
    Number of shells: 132
    Number of basis function: 364
    Number of Cartesian functions: 414
    Spherical Harmonics?: true
    Max angular momentum: 3

	 --------------------------------------------------------
	                 NBF =    80, NAUX =   364
	 --------------------------------------------------------
	   CLASS    FOCC     OCC    AOCC    AVIR     VIR    FVIR
	   PAIRS       0      17      17      63      63       0
	 --------------------------------------------------------

DGAS Warning! /src/lib/libfock/apps.cc:80 is not currently checking restricted

         ------------------------------------------------------------
                                     CPHF                           
                                  Rob Parrish                       
         ------------------------------------------------------------

  ==> Geometry <==

    Molecular point group: c1
    Full point group: C1

    Geometry (in Angstrom), charge = 0, multiplicity = 1:

       Center              X                  Y                   Z               Mass       
    ------------   -----------------  -----------------  -----------------  -----------------
           H         -1.852905062827     0.325465800427     0.762728602086     1.007825032070
           H         -1.631729217273     1.988803821078     0.191401098471     1.007825032070
           H         -1.433764197410     0.635031622198    -0.928869454883     1.007825032070
           C         -1.270023870655     0.963892028379     0.096262105424    12.000000000000
           H          0.772486822766     1.553315766576    -0.215561969305     1.007825032070
           H          0.345923421109     1.250170089637     1.484660919604     1.007825032070
           C          0.220094037289     0.895917293396     0.459679180914    12.000000000000
           H          1.897500678548    -0.444382307430     0.296074290451     1.007825032070
           H          0.545570536421    -1.080766611930     1.261595222157     1.007825032070
           C          0.810622496002    -0.525927467605     0.358855525336    12.000000000000
           H          0.761560272516    -2.301081166084    -0.882899381856     1.007825032070
           H          0.567614406635    -0.786690262342    -1.783029972564     1.007825032070
           H         -0.775354747438    -1.427926253987    -0.825824997878     1.007825032070
[...]
  CGR           3          0          1   2.360E-03
  CGR           4          0          1   4.371E-04
  CGR           5          0          1   7.931E-05
  CGR           6          0          1   1.504E-05
  CGR           7          0          1   1.988E-06
  CGR           8          1          0   4.529E-07

    CGRSolver converged.

  ==> DFCorrGrad: Density-Fitted Correlated Gradients <==

    OpenMP threads:              1
    Integrals threads:           1
    Memory (MB):               715
    Schwarz Cutoff:          0E+00
    Fitting Condition:       1E-12

   => Auxiliary Basis Set <=

  Basis Set: 
    Number of shells: 186
    Number of basis function: 510
    Number of Cartesian functions: 574
    Spherical Harmonics?: true
    Max angular momentum: 3

	-----------------------------------------------------------
	 ==================> DF-MP2 Energies <==================== 
	-----------------------------------------------------------
	 Reference Energy          =    -157.2940669070732156 [Eh]
	 Singles Energy            =      -0.0000000000000000 [Eh]
	 Same-Spin Energy          =      -0.1246737319451406 [Eh]
	 Opposite-Spin Energy      =      -0.4226477702301310 [Eh]
	 Correlation Energy        =      -0.5473215021752715 [Eh]
	 Total Energy              =    -157.8413884092484807 [Eh]
	-----------------------------------------------------------
	 ================> DF-SCS-MP2 Energies <================== 
	-----------------------------------------------------------
	 SCS Same-Spin Scale       =       0.3333333333333333 [-]
	 SCS Opposite-Spin Scale   =       1.2000000000000000 [-]
	 SCS Same-Spin Energy      =      -0.0415579106483802 [Eh]
	 SCS Opposite-Spin Energy  =      -0.5071773242761571 [Eh]
	 SCS Correlation Energy    =      -0.5487352349245374 [Eh]
	 SCS Total Energy          =    -157.8428021419977654 [Eh]
	-----------------------------------------------------------


  -Total Gradient:
     Atom            X                  Y                   Z
    ------   -----------------  -----------------  -----------------
       1        0.000002019343    -0.000002879356    -0.000000759362
       2        0.000003123275    -0.000003426683     0.000002415255
       3        0.000002724063     0.000002702189    -0.000000522550
       4        0.000940981537     0.000707694211    -0.003674271016
       5       -0.000014601659    -0.000000247657    -0.000014127450
       6        0.000016150402     0.000006021282    -0.000009016258
       7       -0.002552063369    -0.001606929037     0.006067186359
       8       -0.000003660959    -0.000002298422     0.000018498428
       9       -0.000014858485    -0.000010525806    -0.000009873960
      10        0.004557141729     0.002329229434    -0.004440263868
      11        0.000001338344     0.000005239019     0.000001439297
      12       -0.000001550249     0.000003129999     0.000001082395
      13        0.000000816497    -0.000001250921     0.000003748429
      14       -0.002937560468    -0.001426458250     0.002054464302


			-----------------------------------------
			 OPTKING 2.0: for geometry optimizations 
			  - R.A. King,  Bethel University        
			-----------------------------------------

	Previous internal coordinate definitions found.
	---Fragment 1 Geometry and Gradient---
	 H          -3.5525213816        0.5416661857        1.3418949874
	 H          -3.1291861221        3.7538461305        0.5380056803
	 H          -2.7412557658        1.3948021592       -1.7848226440
	 C          -2.4167544085        1.8431134954        0.2027594097
	 H           1.4252476195        2.9498941414       -0.3718798553
	 H           0.6838916283        2.3770302153        2.8031661803
	 C           0.3799246055        1.6699904790        0.8813457249
	 H           3.5827443549       -0.8397691326        0.6591601536
	 H           1.0198438890       -2.0689295695        2.3560462445
	 C           1.5177417961       -0.9862613815        0.6585908957
	 H           1.6304919166       -4.2938244160       -1.7541752306
	 H           1.0156131207       -1.4557160247       -3.4005723818
	 H          -1.3822163587       -2.8804874179       -1.5613312154
	 C           0.6406440600       -2.4830452273       -1.6440544766
	             0.0000020193       -0.0000028794       -0.0000007594
	             0.0000031233       -0.0000034267        0.0000024153
	             0.0000027241        0.0000027022       -0.0000005226
	             0.0009409815        0.0007076942       -0.0036742710
	            -0.0000146017       -0.0000002477       -0.0000141274
	             0.0000161504        0.0000060213       -0.0000090163
	            -0.0025520634       -0.0016069290        0.0060671864
	            -0.0000036610       -0.0000022984        0.0000184984
	            -0.0000148585       -0.0000105258       -0.0000098740
	             0.0045571417        0.0023292294       -0.0044402639
	             0.0000013383        0.0000052390        0.0000014393
	            -0.0000015502        0.0000031300        0.0000010824
	             0.0000008165       -0.0000012509        0.0000037484
	            -0.0029375605       -0.0014264583        0.0020544643

	---Fragment 1 Intrafragment Coordinates---
	 - Coordinate -           - BOHR/RAD -       - ANG/DEG -
	 R(1,4)           =         2.069145	       1.094944
	 R(2,4)           =         2.066603	       1.093599
	 R(3,4)           =         2.063193	       1.091795
	 R(4,7)           =         2.883030	       1.525634
	 R(5,7)           =         2.073988	       1.097507
	 R(6,7)           =         2.070192	       1.095498
	 R(7,10)          =         2.898262	       1.533694
	 R(8,10)          =         2.070192	       1.095499
	 R(9,10)          =         2.073988	       1.097507
	 R(10,14)         =         2.883026	       1.525632
	 R(11,14)         =         2.066603	       1.093599
	 R(12,14)         =         2.069145	       1.094945
	 R(13,14)         =         2.063194	       1.091795
	 B(1,4,2)         =         1.878638	     107.638044
	 B(1,4,3)         =         1.883209	     107.899919
	 B(1,4,7)         =         1.944553	     111.414694
	 B(2,4,3)         =         1.878590	     107.635280
	 B(2,4,7)         =         1.930234	     110.594253
	 B(3,4,7)         =         1.945793	     111.485699
	 B(4,7,5)         =         1.885607	     108.037313
	 B(4,7,6)         =         1.918167	     109.902900
	 B(4,7,10)        =         2.001788	     114.694002
	 B(5,7,6)         =         1.850612	     106.032267
	 B(5,7,10)        =         1.897877	     108.740314
	 B(6,7,10)        =         1.903628	     109.069864
	 B(7,10,8)        =         1.903635	     109.070234
	 B(7,10,9)        =         1.897878	     108.740398
	 B(7,10,14)       =         2.001785	     114.693848
	 B(8,10,9)        =         1.850614	     106.032386
	 B(8,10,14)       =         1.918163	     109.902652
	 B(9,10,14)       =         1.885604	     108.037161
	 B(10,14,11)      =         1.930231	     110.594082
	 B(10,14,12)      =         1.944554	     111.414730
	 B(10,14,13)      =         1.945791	     111.485627
	 B(11,14,12)      =         1.878639	     107.638108
	 B(11,14,13)      =         1.878592	     107.635366
	 B(12,14,13)      =         1.883210	     107.899986
	 D(1,4,7,5)       =         3.099498	     177.588126
	 D(1,4,7,6)       =        -1.171938	     -67.147090
	 D(1,4,7,10)      =         0.979941	      56.146478
	 D(2,4,7,5)       =        -1.094985	     -62.738022
	 D(2,4,7,6)       =         0.916765	      52.526761
	 D(2,4,7,10)      =         3.068644	     175.820329
	 D(3,4,7,5)       =         0.994471	      56.978973
	 D(3,4,7,6)       =         3.006221	     172.243757
	 D(3,4,7,10)      =        -1.125086	     -64.462675
	 D(4,7,10,8)      =         2.868790	     164.369559
	 D(4,7,10,9)      =        -1.403685	     -80.425205
	 D(4,7,10,14)     =         0.709146	      40.631055
	 D(5,7,10,8)      =         0.755956	      43.313061
	 D(5,7,10,9)      =         2.766666	     158.518298
	 D(5,7,10,14)     =        -1.403689	     -80.425442
	 D(6,7,10,8)      =        -1.254748	     -71.891790
	 D(6,7,10,9)      =         0.755962	      43.313447
	 D(6,7,10,14)     =         2.868793	     164.369707
	 D(7,10,14,11)    =         3.068646	     175.820451
	 D(7,10,14,12)    =         0.979943	      56.146608
	 D(7,10,14,13)    =        -1.125085	     -64.462606
	 D(8,10,14,11)    =         0.916764	      52.526702
	 D(8,10,14,12)    =        -1.171939	     -67.147141
	 D(8,10,14,13)    =         3.006219	     172.243645
	 D(9,10,14,11)    =        -1.094985	     -62.738007
	 D(9,10,14,12)    =         3.099498	     177.588150
	 D(9,10,14,13)    =         0.994470	      56.978936

	Current energy   :      -157.8413884092

	Energy change for the previous step:
		Projected    :        -0.0000005820
		Actual       :         0.0000040156

	Performing BFGS update.
	Previous computed or guess Hessian on step 1.
	Steps to be used in Hessian update: 10 9
	Adding user-defined constraint: Fragment 1; Coordinate 49:
		Value =     0.709146; Fixed value    =     0.698130
		Force =    -0.008262; Force constant =     0.750000
	Removing off-diagonal coupling between coordinate 49 and others.
	Taking RFO optimization step.
	Going to follow RFO solution 1.
	Using RFO vector 1.
	Norm of target step-size    0.00407
	Projected energy change by RFO approximation:        -0.0000006578

	Back-transformation to cartesian coordinates...
	Successfully converged to displaced geometry.

	--- Internal Coordinate Step in ANG or DEG, aJ/ANG or AJ/DEG ---
	 ---------------------------------------------------------------------------
	   Coordinate                Previous        Force       Change         New 
	   ----------                --------       ------       ------       ------
	    1 R(1,4)          =      1.094944    -0.000002     0.000002     1.094947
	    2 R(2,4)          =      1.093599     0.000032     0.000006     1.093605
	    3 R(3,4)          =      1.091795     0.000004     0.000005     1.091800
	    4 R(4,7)          =      1.525634     0.000112     0.000003     1.525637
	    5 R(5,7)          =      1.097507    -0.000008    -0.000011     1.097497
	    6 R(6,7)          =      1.095498     0.000033     0.000003     1.095501
	    7 R(7,10)         =      1.533694     0.000092     0.000014     1.533708
	    8 R(8,10)         =      1.095499     0.000031     0.000003     1.095501
	    9 R(9,10)         =      1.097507    -0.000008    -0.000011     1.097496
	   10 R(10,14)        =      1.525632     0.000128     0.000004     1.525636
	   11 R(11,14)        =      1.093599     0.000033     0.000005     1.093604
	   12 R(12,14)        =      1.094945    -0.000003     0.000002     1.094947
	   13 R(13,14)        =      1.091795     0.000003     0.000006     1.091801
	   14 B(1,4,2)        =    107.638044    -0.000000     0.000658   107.638701
	   15 B(1,4,3)        =    107.899919    -0.000000     0.000092   107.900011
	   16 B(1,4,7)        =    111.414694     0.000000     0.001159   111.415853
	   17 B(2,4,3)        =    107.635280    -0.000000    -0.001056   107.634224
	   18 B(2,4,7)        =    110.594253     0.000000    -0.001678   110.592574
	   19 B(3,4,7)        =    111.485699     0.000000     0.000790   111.486489
	   20 B(4,7,5)        =    108.037313    -0.000016     0.007338   108.044650
	   21 B(4,7,6)        =    109.902900     0.000016    -0.006999   109.895901
	   22 B(4,7,10)       =    114.694002     0.000001     0.004267   114.698269
	   23 B(5,7,6)        =    106.032267     0.000000    -0.001629   106.030639
	   24 B(5,7,10)       =    108.740314    -0.000000     0.000313   108.740627
	   25 B(6,7,10)       =    109.069864    -0.000001    -0.003538   109.066326
	   26 B(7,10,8)       =    109.070234    -0.000001    -0.003822   109.066412
	   27 B(7,10,9)       =    108.740398    -0.000000     0.000241   108.740639
	   28 B(7,10,14)      =    114.693848     0.000001     0.004372   114.698220
	   29 B(8,10,9)       =    106.032386     0.000000    -0.001719   106.030666
	   30 B(8,10,14)      =    109.902652     0.000016    -0.006816   109.895836
	   31 B(9,10,14)      =    108.037161    -0.000016     0.007483   108.044644
	   32 B(10,14,11)     =    110.594082     0.000000    -0.001575   110.592507
	   33 B(10,14,12)     =    111.414730     0.000000     0.001162   111.415892
	   34 B(10,14,13)     =    111.485627     0.000000     0.000828   111.486455
	   35 B(11,14,12)     =    107.638108    -0.000000     0.000625   107.638733
	   36 B(11,14,13)     =    107.635366    -0.000000    -0.001124   107.634242
	   37 B(12,14,13)     =    107.899986    -0.000000     0.000041   107.900027
	   38 D(1,4,7,5)      =    177.588126    -0.000001     0.055089   177.643215
	   39 D(1,4,7,6)      =    -67.147090    -0.000001     0.053501   -67.093589
	   40 D(1,4,7,10)     =     56.146478     0.000002     0.046441    56.192918
	   41 D(2,4,7,5)      =    -62.738022    -0.000001     0.055560   -62.682463
	   42 D(2,4,7,6)      =     52.526761    -0.000001     0.053972    52.580734
	   43 D(2,4,7,10)     =    175.820329     0.000002     0.046912   175.867241
	   44 D(3,4,7,5)      =     56.978973    -0.000001     0.053629    57.032602
	   45 D(3,4,7,6)      =    172.243757    -0.000001     0.052041   172.295798
	   46 D(3,4,7,10)     =    -64.462675     0.000002     0.044981   -64.417695
	   47 D(4,7,10,8)     =    164.369559    -0.000005    -0.019317   164.350241
	   48 D(4,7,10,9)     =    -80.425205    -0.000005    -0.023282   -80.448487
	   49 D(4,7,10,14)    =     40.631055    -0.000010    -0.010507    40.620548
	   50 D(5,7,10,8)     =     43.313061    -0.000000    -0.031888    43.281173
	   51 D(5,7,10,9)     =    158.518298    -0.000000    -0.035853   158.482445
	   52 D(5,7,10,14)    =    -80.425442    -0.000005    -0.023078   -80.448520
	   53 D(6,7,10,8)     =    -71.891790    -0.000000    -0.028223   -71.920013
	   54 D(6,7,10,9)     =     43.313447    -0.000000    -0.032188    43.281259
	   55 D(6,7,10,14)    =    164.369707    -0.000005    -0.019413   164.350294
	   56 D(7,10,14,11)   =    175.820451     0.000002     0.047051   175.867502
	   57 D(7,10,14,12)   =     56.146608     0.000002     0.046551    56.193159
	   58 D(7,10,14,13)   =    -64.462606     0.000002     0.045128   -64.417479
	   59 D(8,10,14,11)   =     52.526702    -0.000001     0.054266    52.580968
	   60 D(8,10,14,12)   =    -67.147141    -0.000001     0.053765   -67.093375
	   61 D(8,10,14,13)   =    172.243645    -0.000001     0.052342   172.295987
	   62 D(9,10,14,11)   =    -62.738007    -0.000001     0.055783   -62.682223
	   63 D(9,10,14,12)   =    177.588150    -0.000001     0.055283   177.643434
	   64 D(9,10,14,13)   =     56.978936    -0.000001     0.053860    57.032796
	 ---------------------------------------------------------------------------
	 Forces used to impose fixed constraints are not included.
	  Forces zeroed: 49 

  ==> Convergence Check <==

  Measures of convergence in internal coordinates in au.
  Criteria marked as inactive (o), active & met (*), and active & unmet ( ).
  ---------------------------------------------------------------------------------------------
   Step     Total Energy     Delta E     MAX Force     RMS Force      MAX Disp      RMS Disp   
  ---------------------------------------------------------------------------------------------
    Convergence Criteria    1.00e-06 *    3.00e-04 *             o    1.20e-03 *             o
  ---------------------------------------------------------------------------------------------
     11    -157.84138841    4.02e-06      2.78e-04 *    9.52e-05 o    9.74e-04 *    5.08e-04 o  ~
  ---------------------------------------------------------------------------------------------


  **** Optimization is complete! (in 11 steps) ****

  ==> Optimization Summary <==

  Measures of convergence in internal coordinates in au.
  --------------------------------------------------------------------------------------------------------------- ~
   Step         Total Energy             Delta E       MAX Force       RMS Force        MAX Disp        RMS Disp  ~
  --------------------------------------------------------------------------------------------------------------- ~
      1    -157.831137192177   -157.831137192177      0.04007252      0.01110340      0.04719666      0.01267267  ~
      2    -157.837387999712     -0.006250807536      0.01343428      0.00519546      0.02503287      0.01254422  ~
      3    -157.840028550703     -0.002640550991      0.00673926      0.00201609      0.03901572      0.01250358  ~
      4    -157.840933850004     -0.000905299301      0.00241804      0.00080049      0.03731444      0.01249385  ~
      5    -157.841250666394     -0.000316816390      0.00067195      0.00025265      0.02677174      0.01250319  ~
      6    -157.841344990403     -0.000094324009      0.00031358      0.00012585      0.02507909      0.01249930  ~
      7    -157.841399946477     -0.000054956074      0.00067048      0.00015317      0.01081370      0.00546287  ~
      8    -157.841405819600     -0.000005873123      0.00068567      0.00014747      0.00432608      0.00140561  ~
      9    -157.841395336048      0.000010483552      0.00062615      0.00014789      0.00346495      0.00112594  ~
     10    -157.841392424877      0.000002911172      0.00056553      0.00012170      0.00230460      0.00116214  ~
     11    -157.841388409248      0.000004015628      0.00054740      0.00011725      0.00097360      0.00050832  ~
  --------------------------------------------------------------------------------------------------------------- ~

	Writing optimization data to binary file.
	Final energy is   -157.8413884092485
	Final (previous) structure:
	Cartesian Geometry (in Angstrom)
	    H    -1.8799133482   0.2866374001   0.7101002436
	    H    -1.6558939773   1.9864498168   0.2847003441
	    H    -1.4506100742   0.7380975131  -0.9444874646
	    C    -1.2788913517   0.9753336546   0.1072956584
	    H     0.7542085568   1.5610167474  -0.1967903438
	    H     0.3618998628   1.2578702141   1.4833716545
	    C     0.2010474422   0.8837209000   0.4663880705
	    H     1.8959066568  -0.4443866855   0.3488125301
	    H     0.5396781424  -1.0948303743   1.2467659750
	    C     0.8031543670  -0.5219070448   0.3485112918
	    H     0.8628191610  -2.2721940186  -0.9282695519
	    H     0.5374393162  -0.7703317425  -1.7995054006
	    H    -0.7314373944  -1.5242882912  -0.8262208942
	    C     0.3390142354  -1.3139709422  -0.8699961587
	Saving final (previous) structure.
			--------------------------
			 OPTKING Finished Execution 
			--------------------------

    Final optimized geometry and variables:
    Molecular point group: c1
    Full point group: C1

    Geometry (in Angstrom), charge = 0, multiplicity = 1:

    H           -1.879913348179     0.286637400123     0.710100243633
    H           -1.655893977275     1.986449816835     0.284700344089
    H           -1.450610074156     0.738097513116    -0.944487464556
    C           -1.278891351733     0.975333654617     0.107295658433
    H            0.754208556846     1.561016747406    -0.196790343784
    H            0.361899862836     1.257870214084     1.483371654520
    C            0.201047442193     0.883720900035     0.466388070506
    H            1.895906656809    -0.444386685461     0.348812530082
    H            0.539678142358    -1.094830374345     1.246765974958
    C            0.803154366998    -0.521907044808     0.348511291797
    H            0.862819161035    -2.272194018634    -0.928269551886
    H            0.537439316197    -0.770331742469    -1.799505400630
    H           -0.731437394377    -1.524288291160    -0.826220894238
    C            0.339014235392    -1.313970942192    -0.869996158695

	Cleaning optimization helper files.

*** Psi4 exiting successfully. Buy a developer a beer!
