    -----------------------------------------------------------------------
          Psi4: An Open-Source Ab Initio Electronic Structure Package
                              Psi4 1.0.0 Driver

                          Git: Rev {master} 6a9a71b 

    J. M. Turney, A. C. Simmonett, R. M. Parrish, E. G. Hohenstein,
    F. A. Evangelista, J. T. Fermann, B. J. Mintz, L. A. Burns, J. J. Wilke,
    M. L. Abrams, N. J. Russ, M. L. Leininger, C. L. Janssen, E. T. Seidl,
    W. D. Allen, H. F. Schaefer, R. A. King, E. F. Valeev, C. D. Sherrill,
    and T. D. Crawford, WIREs Comput. Mol. Sci. 2, 556-565 (2012)
    (doi: 10.1002/wcms.93)

                         Additional Contributions by
    A. E. DePrince, U. Bozkaya, A. Yu. Sokolov, D. G. A. Smith, R. Di Remigio,
    R. M. Richard, J. F. Gonthier, H. R. McAlexander, M. Saitow, and
    B. P. Pritchard
    -----------------------------------------------------------------------


    Psi4 started on: Tue Feb 21 19:27:09 2017

    Process ID:  46561
    PSI4DATADIR: /Users/sternc1/anaconda/share/psi4
    Memory level set to 256.000 MB

  ==> Input File <==

--------------------------------------------------------------------------

memory 1000 mb

molecule butane {
  symmetry C1
  0 1 
  H      1.604   0.760   -8.260
  H      1.745   2.388   -8.880
  H      2.043   1.024   -9.930
  C      2.142   1.395   -8.932
  H      4.169   2.051   -9.210
  H      3.731   1.788   -7.539
  C      3.631   1.416   -8.537
  H      4.989   -0.119   -7.894
  H      3.428   -0.718   -8.400
  C      4.203   -0.012   -8.612
  H      5.156   -1.261   -10.076
  H      5.534   0.436   -10.237
  H      3.973   -0.163   -10.743
  C      4.759   -0.270   -10.024
  units Angstrom
}

dih_string = "4 7 10 14 90"
set optking fixed_dihedral = $dih_string

optimize('B3LYP/cc-PVDZ')
--------------------------------------------------------------------------

  Memory set to 1000.000 MiB by Python script.
gradient() will perform analytic gradient computation.

*** tstart() called on lski1497
*** at Tue Feb 21 19:27:11 2017


         ---------------------------------------------------------
                                   SCF
            by Justin Turney, Rob Parrish, and Andy Simmonett
                              RKS Reference
                        1 Threads,   1000 MiB Core
         ---------------------------------------------------------

  ==> Geometry <==

    Molecular point group: c1
    Full point group: C1

    Geometry (in Angstrom), charge = 0, multiplicity = 1:

       Center              X                  Y                   Z               Mass       
    ------------   -----------------  -----------------  -----------------  -----------------
           H         -2.071672233369     0.130118668411     0.781980387650     1.007825032070
           H         -1.930672233369     1.758118668411     0.161980387650     1.007825032070
           H         -1.632672233369     0.394118668411    -0.888019612350     1.007825032070
           C         -1.533672233369     0.765118668411     0.109980387650    12.000000000000
           H          0.493327766631     1.421118668411    -0.168019612350     1.007825032070
           H          0.055327766631     1.158118668411     1.502980387650     1.007825032070
           C         -0.044672233369     0.786118668411     0.504980387650    12.000000000000
           H          1.313327766631    -0.748881331589     1.147980387650     1.007825032070
           H         -0.247672233369    -1.347881331589     0.641980387650     1.007825032070
           C          0.527327766631    -0.641881331589     0.429980387650    12.000000000000
           H          1.480327766631    -1.890881331589    -1.034019612350     1.007825032070
           H          1.858327766631    -0.193881331589    -1.195019612350     1.007825032070
           H          0.297327766631    -0.792881331589    -1.701019612350     1.007825032070
           C          1.083327766631    -0.899881331589    -0.982019612350    12.000000000000

  Running in c1 symmetry.

  Rotational constants: A =      0.48462  B =      0.15012  C =      0.13798 [cm^-1]
  Rotational constants: A =  14528.48456  B =   4500.43241  C =   4136.43076 [MHz]
  Nuclear repulsion =  133.477523262290134

  Charge       = 0
  Multiplicity = 1
  Electrons    = 34
  Nalpha       = 17
  Nbeta        = 17

  ==> Algorithm <==

  SCF Algorithm Type is DF.
  DIIS enabled.
  MOM disabled.
  Fractional occupation disabled.
  Guess Type is SAD.
  Energy threshold   = 1.00e-08
  Density threshold  = 1.00e-08
  Integral threshold = 0.00e+00

  ==> Primary Basis <==

  Basis Set: CC-PVDZ
    Number of shells: 54
    Number of basis function: 106
    Number of Cartesian functions: 110
    Spherical Harmonics?: true
    Max angular momentum: 2

  ==> DFT Potential <==

   => B3LYP Composite Functional <= 

    B3LYP Hybrid-GGA Exchange-Correlation Functional (VWN1-RPA)

    P.J. Stephens et. al., J. Phys. Chem., 98, 11623-11627, 1994

    Points   =           5000
    Deriv    =              1
    GGA      =           TRUE
    Meta     =          FALSE

    X_LRC        =          FALSE
    X_Hybrid     =           TRUE
    X_Alpha      =   2.000000E-01
    X_Omega      =   0.000000E+00
    C_LRC        =          FALSE
    C_Hybrid     =          FALSE
    C_Alpha      =   0.000000E+00
    C_Omega      =   0.000000E+00

   => Exchange Functionals <=

    0.8000    B3_X
    0.2000      HF 

   => Correlation Functionals <=

    0.1900 VWN3RPA_C
    0.8100   LYP_C

   => Molecular Quadrature <=

    Radial Scheme    =       TREUTLER
    Pruning Scheme   =           FLAT
    Nuclear Scheme   =       TREUTLER

    BS radius alpha  =              1
    Pruning alpha    =              1
    Radial Points    =             75
    Spherical Points =            302
    Total Points     =         312740
    Total Blocks     =            280
    Max Points       =           4973
    Max Functions    =            106

  ==> Pre-Iterations <==

   -------------------------------------------------------
    Irrep   Nso     Nmo     Nalpha   Nbeta   Ndocc  Nsocc
   -------------------------------------------------------
     A        106     106       0       0       0       0
   -------------------------------------------------------
    Total     106     106      17      17      17       0
   -------------------------------------------------------

  ==> Integral Setup <==

  ==> DFJK: Density-Fitted J/K Matrices <==

    J tasked:                  Yes
    K tasked:                  Yes
    wK tasked:                  No
    OpenMP threads:              1
    Integrals threads:           1
    Memory (MB):               715
    Algorithm:                Core
    Integral Cache:           NONE
    Schwarz Cutoff:          1E-12
    Fitting Condition:       1E-12

   => Auxiliary Basis Set <=

  Basis Set: 
    Number of shells: 186
    Number of basis function: 510
    Number of Cartesian functions: 574
    Spherical Harmonics?: true
    Max angular momentum: 3

  Minimum eigenvalue in the overlap matrix is 5.0182312212E-03.
  Using Symmetric Orthogonalization.
  SCF Guess: Superposition of Atomic Densities via on-the-fly atomic UHF.

  ==> Iterations <==

                           Total Energy        Delta E     RMS |[F,P]|

   @DF-RKS iter   0:  -159.06581580846290   -1.59066e+02   3.40686e-02 
   @DF-RKS iter   1:  -158.30744879301650    7.58367e-01   4.61092e-03 
   @DF-RKS iter   2:  -158.26549175683752    4.19570e-02   5.40494e-03 DIIS
   @DF-RKS iter   3:  -158.44527251871858   -1.79781e-01   3.70821e-04 DIIS
   @DF-RKS iter   4:  -158.44603351381613   -7.60995e-04   1.06720e-04 DIIS
   @DF-RKS iter   5:  -158.44608816629389   -5.46525e-05   4.47288e-05 DIIS
   @DF-RKS iter   6:  -158.44609904239718   -1.08761e-05   6.48606e-06 DIIS
   @DF-RKS iter   7:  -158.44609929842932   -2.56032e-07   9.07699e-07 DIIS
   @DF-RKS iter   8:  -158.44609930396106   -5.53175e-09   1.14446e-07 DIIS
   @DF-RKS iter   9:  -158.44609930404835   -8.72831e-11   2.58168e-08 DIIS
   @DF-RKS iter  10:  -158.44609930405278   -4.43379e-12   1.04319e-08 DIIS
   @DF-RKS iter  11:  -158.44609930405267    1.13687e-13   2.69515e-09 DIIS

  ==> Post-Iterations <==

    Orbital Energies (a.u.)
    -----------------------

    Doubly Occupied:                                                      

       1A    -10.169420     2A    -10.169212     3A    -10.164705  
       4A    -10.164568     5A     -0.795767     6A     -0.720857  
       7A     -0.636731     8A     -0.575153     9A     -0.461555  
      10A     -0.451618    11A     -0.421008    12A     -0.388308  
      13A     -0.374730    14A     -0.360889    15A     -0.332917  
      16A     -0.319839    17A     -0.313275  

    Virtual:                                                              

      18A      0.064423    19A      0.096976    20A      0.098359  
      21A      0.106849    22A      0.135672    23A      0.148389  
      24A      0.150676    25A      0.161259    26A      0.161397  
      27A      0.207710    28A      0.211358    29A      0.251864  
      30A      0.258384    31A      0.407008    32A      0.421329  
      33A      0.433105    34A      0.436835    35A      0.450107  
      36A      0.472950    37A      0.528764    38A      0.599390  
      39A      0.608809    40A      0.635106    41A      0.649181  
      42A      0.654052    43A      0.667215    44A      0.668683  
      45A      0.674316    46A      0.697450    47A      0.701693  
      48A      0.705743    49A      0.709952    50A      0.742923  
      51A      0.756779    52A      0.792829    53A      0.880960  
      54A      0.895984    55A      0.966672    56A      1.124387  
      57A      1.135809    58A      1.186958    59A      1.217041  
      60A      1.241012    61A      1.397319    62A      1.401295  
      63A      1.431964    64A      1.443595    65A      1.450443  
      66A      1.493506    67A      1.570575    68A      1.602830  
      69A      1.632899    70A      1.644731    71A      1.645889  
      72A      1.668555    73A      1.671737    74A      1.687214  
      75A      1.701873    76A      1.704889    77A      1.724207  
      78A      1.732022    79A      1.760638    80A      1.763589  
      81A      1.780359    82A      1.862516    83A      1.896598  
      84A      1.897745    85A      1.988625    86A      2.014269  
      87A      2.038549    88A      2.050653    89A      2.104033  
      90A      2.178238    91A      2.248922    92A      2.254720  
      93A      2.278626    94A      2.302740    95A      2.342946  
      96A      2.379834    97A      2.492966    98A      2.508360  
      99A      2.510605   100A      2.535480   101A      2.536074  
     102A      2.608935   103A      2.646427   104A      2.657091  
     105A      2.704807   106A      2.763309  

    Final Occupation by Irrep:
              A 
    DOCC [    17 ]

  Energy converged.

  @DF-RKS Final Energy:  -158.44609930405267

   => Energetics <=

    Nuclear Repulsion Energy =            133.4775232622901342
    One-Electron Energy =                -475.3400134421109442
    Two-Electron Energy =                 204.0978526042326280
    DFT Exchange-Correlation Energy =     -20.6814617284644555
    Empirical Dispersion Energy =           0.0000000000000000
    PCM Polarization Energy =               0.0000000000000000
    EFP Energy =                            0.0000000000000000
    Total Energy =                       -158.4460993040526660


  Saving occupied orbitals to File 180.

*** tstop() called on lski1497 at Tue Feb 21 19:29:18 2017
Module time:
	user time   =     117.95 seconds =       1.97 minutes
	system time =       1.46 seconds =       0.02 minutes
	total time  =        127 seconds =       2.12 minutes
Total time:
	user time   =     117.95 seconds =       1.97 minutes
	system time =       1.46 seconds =       0.02 minutes
	total time  =        127 seconds =       2.12 minutes


Properties will be evaluated at   0.000000,   0.000000,   0.000000 Bohr

Properties computed using the SCF density matrix

  Nuclear Dipole Moment: (a.u.)
     X:    -0.3607      Y:    -0.1058      Z:    -0.7023

  Electronic Dipole Moment: (a.u.)
     X:     0.3755      Y:     0.1094      Z:     0.7304

  Dipole Moment: (a.u.)
     X:     0.0148      Y:     0.0037      Z:     0.0280     Total:     0.0319

  Dipole Moment: (Debye)
     X:     0.0376      Y:     0.0093      Z:     0.0712     Total:     0.0811


*** tstart() called on lski1497
*** at Tue Feb 21 19:29:18 2017


         ------------------------------------------------------------
                                   SCF GRAD                          
                          Rob Parrish, Justin Turney,                
                       Andy Simmonett, and Alex Sokolov              
         ------------------------------------------------------------

  ==> Geometry <==

    Molecular point group: c1
    Full point group: C1

    Geometry (in Angstrom), charge = 0, multiplicity = 1:

       Center              X                  Y                   Z               Mass       
    ------------   -----------------  -----------------  -----------------  -----------------
           H         -2.071672233369     0.130118668411     0.781980387650     1.007825032070
           H         -1.930672233369     1.758118668411     0.161980387650     1.007825032070
           H         -1.632672233369     0.394118668411    -0.888019612350     1.007825032070
           C         -1.533672233369     0.765118668411     0.109980387650    12.000000000000
           H          0.493327766631     1.421118668411    -0.168019612350     1.007825032070
           H          0.055327766631     1.158118668411     1.502980387650     1.007825032070
           C         -0.044672233369     0.786118668411     0.504980387650    12.000000000000
           H          1.313327766631    -0.748881331589     1.147980387650     1.007825032070
           H         -0.247672233369    -1.347881331589     0.641980387650     1.007825032070
           C          0.527327766631    -0.641881331589     0.429980387650    12.000000000000
           H          1.480327766631    -1.890881331589    -1.034019612350     1.007825032070
           H          1.858327766631    -0.193881331589    -1.195019612350     1.007825032070
           H          0.297327766631    -0.792881331589    -1.701019612350     1.007825032070
           C          1.083327766631    -0.899881331589    -0.982019612350    12.000000000000

  Nuclear repulsion =  133.477523262290134

  ==> Basis Set <==

  Basis Set: CC-PVDZ
    Number of shells: 54
    Number of basis function: 106
    Number of Cartesian functions: 110
    Spherical Harmonics?: true
    Max angular momentum: 2

  ==> DFJKGrad: Density-Fitted SCF Gradients <==

    Gradient:                    1
    J tasked:                  Yes
    K tasked:                  Yes
    wK tasked:                  No
    OpenMP threads:              1
    Integrals threads:           1
    Memory (MB):               715
    Schwarz Cutoff:          0E+00
    Fitting Condition:       1E-12

   => Auxiliary Basis Set <=

  Basis Set: 
    Number of shells: 186
    Number of basis function: 510
    Number of Cartesian functions: 574
    Spherical Harmonics?: true
    Max angular momentum: 3

  ==> DFT Potential <==

   => B3LYP Composite Functional <= 

    B3LYP Hybrid-GGA Exchange-Correlation Functional (VWN1-RPA)

    P.J. Stephens et. al., J. Phys. Chem., 98, 11623-11627, 1994

    Points   =           5000
    Deriv    =              1
    GGA      =           TRUE
    Meta     =          FALSE

    X_LRC        =          FALSE
    X_Hybrid     =           TRUE
    X_Alpha      =   2.000000E-01
    X_Omega      =   0.000000E+00
    C_LRC        =          FALSE
    C_Hybrid     =          FALSE
    C_Alpha      =   0.000000E+00
    C_Omega      =   0.000000E+00

   => Exchange Functionals <=

    0.8000    B3_X
    0.2000      HF 

   => Correlation Functionals <=

    0.1900 VWN3RPA_C
    0.8100   LYP_C

   => Molecular Quadrature <=

    Radial Scheme    =       TREUTLER
    Pruning Scheme   =           FLAT
    Nuclear Scheme   =       TREUTLER

    BS radius alpha  =              1
    Pruning alpha    =              1
    Radial Points    =             75
    Spherical Points =            302
    Total Points     =         312740
    Total Blocks     =            280
    Max Points       =           4973
    Max Functions    =            106


  -Total Gradient:
     Atom            X                  Y                   Z
    ------   -----------------  -----------------  -----------------
       1        0.013903278448     0.012517591206    -0.012769659791
       2        0.012578093988    -0.018895778717     0.000859496725
       3        0.005974489109     0.007595351694     0.021148755148
       4       -0.029444392965    -0.008708402810    -0.008345589698
       5       -0.012934883198    -0.015683614306     0.010733361456
       6       -0.002134274892    -0.011305507051    -0.020303841263
       7        0.023404359522     0.029893117806     0.003545303860
       8       -0.016261405560     0.005744601840    -0.015578601019
       9        0.014678014869     0.016422453644    -0.008330777762
      10       -0.007600272551    -0.025470977780     0.027318982639
      11       -0.009519501386     0.021286253302     0.006067155240
      12       -0.016818258102    -0.013395723333     0.007020788487
      13        0.013689510593    -0.001388563525     0.017577120721
      14        0.010486347018     0.001389687136    -0.028940190326


*** tstop() called on lski1497 at Tue Feb 21 19:30:01 2017
Module time:
	user time   =      37.62 seconds =       0.63 minutes
	system time =       0.64 seconds =       0.01 minutes
	total time  =         43 seconds =       0.72 minutes
Total time:
	user time   =     155.59 seconds =       2.59 minutes
	system time =       2.10 seconds =       0.03 minutes
	total time  =        170 seconds =       2.83 minutes

			-----------------------------------------
			 OPTKING 2.0: for geometry optimizations 
			  - R.A. King,  Bethel University        
			-----------------------------------------

	Previous internal coordinate definitions found.
	---Fragment 1 Geometry and Gradient---
	 H          -3.9148931582        0.2458886481        1.4777287739
	 H          -3.6484417734        3.3223627924        0.3060985716
	 H          -3.0853033858        0.7447763472       -1.6781138680
	 C          -2.8982204987        1.4458647425        0.2078328126
	 H           0.9322543727        2.6855250856       -0.3175110523
	 H           0.1045543265        2.1885271127        2.8402213158
	 C          -0.0844182868        1.4855489912        0.9542746351
	 H           2.4818298016       -1.4151806227        2.1693685386
	 H          -0.4680326918       -2.5471265763        1.2131671153
	 C           0.9965050612       -1.2129799265        0.8125451752
	 H           2.7974140658       -3.5732478665       -1.9540138834
	 H           3.5117305441       -0.3663826190       -2.2582597908
	 H           0.5618680506       -1.4983285726       -3.2144612140
	 C           2.0471927911       -1.7005292688       -1.8557481245
	             0.0139032784        0.0125175912       -0.0127696598
	             0.0125780940       -0.0188957787        0.0008594967
	             0.0059744891        0.0075953517        0.0211487551
	            -0.0294443930       -0.0087084028       -0.0083455897
	            -0.0129348832       -0.0156836143        0.0107333615
	            -0.0021342749       -0.0113055071       -0.0203038413
	             0.0234043595        0.0298931178        0.0035453039
	            -0.0162614056        0.0057446018       -0.0155786010
	             0.0146780149        0.0164224536       -0.0083307778
	            -0.0076002726       -0.0254709778        0.0273189826
	            -0.0095195014        0.0212862533        0.0060671552
	            -0.0168182581       -0.0133957233        0.0070207885
	             0.0136895106       -0.0013885635        0.0175771207
	             0.0104863470        0.0013896871       -0.0289401903

	Previous optimization step data not found.  Starting new optimization.

	---Fragment 1 Intrafragment Coordinates---
	 - Coordinate -           - BOHR/RAD -       - ANG/DEG -
	 R(1,4)           =         2.021436	       1.069698
	 R(2,4)           =         2.023298	       1.070683
	 R(3,4)           =         2.020723	       1.069320
	 R(4,7)           =         2.911397	       1.540645
	 R(5,7)           =         2.022623	       1.070326
	 R(6,7)           =         2.021555	       1.069761
	 R(7,10)          =         2.910419	       1.540128
	 R(8,10)          =         2.021891	       1.069939
	 R(9,10)          =         2.021216	       1.069582
	 R(10,14)         =         2.908855	       1.539300
	 R(11,14)         =         2.019793	       1.068828
	 R(12,14)         =         2.021592	       1.069780
	 R(13,14)         =         2.023160	       1.070610
	 B(1,4,2)         =         1.910870	     109.484805
	 B(1,4,3)         =         1.911121	     109.499161
	 B(1,4,7)         =         1.910399	     109.457783
	 B(2,4,3)         =         1.910042	     109.437340
	 B(2,4,7)         =         1.910564	     109.467262
	 B(3,4,7)         =         1.910803	     109.480971
	 B(4,7,5)         =         1.909937	     109.431343
	 B(4,7,6)         =         1.911630	     109.528316
	 B(4,7,10)        =         1.911154	     109.501062
	 B(5,7,6)         =         1.910605	     109.469614
	 B(5,7,10)        =         1.910047	     109.437654
	 B(6,7,10)        =         1.910425	     109.459295
	 B(7,10,8)        =         1.910155	     109.443831
	 B(7,10,9)        =         1.910550	     109.466446
	 B(7,10,14)       =         1.911580	     109.525487
	 B(8,10,9)        =         1.910568	     109.467487
	 B(8,10,14)       =         1.910767	     109.478913
	 B(9,10,14)       =         1.910178	     109.445152
	 B(10,14,11)      =         1.911548	     109.523615
	 B(10,14,12)      =         1.911022	     109.493504
	 B(10,14,13)      =         1.911455	     109.518282
	 B(11,14,12)      =         1.910409	     109.458349
	 B(11,14,13)      =         1.909946	     109.431830
	 B(12,14,13)      =         1.909419	     109.401644
	 D(1,4,7,5)       =         3.140997	     179.965873
	 D(1,4,7,6)       =        -1.047644	     -60.025575
	 D(1,4,7,10)      =         1.047427	      60.013132
	 D(2,4,7,5)       =        -1.047689	     -60.028143
	 D(2,4,7,6)       =         1.046856	      59.980409
	 D(2,4,7,10)      =        -3.141259	    -179.980883
	 D(3,4,7,5)       =         1.046044	      59.933911
	 D(3,4,7,6)       =         3.140588	     179.942463
	 D(3,4,7,10)      =        -1.047526	     -60.018830
	 D(4,7,10,8)      =        -2.617481	    -149.970607
	 D(4,7,10,9)      =        -0.523509	     -29.994864
	 D(4,7,10,14)     =         1.570858	      90.003520
	 D(5,7,10,8)      =         1.572202	      90.080517
	 D(5,7,10,9)      =        -2.617012	    -149.943739
	 D(5,7,10,14)     =        -0.522645	     -29.945356
	 D(6,7,10,8)      =        -0.521673	     -29.889681
	 D(6,7,10,9)      =         1.572298	      90.086062
	 D(6,7,10,14)     =        -2.616520	    -149.915555
	 D(7,10,14,11)    =         3.141539	     179.996927
	 D(7,10,14,12)    =         1.046620	      59.966908
	 D(7,10,14,13)    =        -1.047029	     -59.990345
	 D(8,10,14,11)    =         1.047067	      59.992512
	 D(8,10,14,12)    =        -1.047852	     -60.037507
	 D(8,10,14,13)    =        -3.141501	    -179.994760
	 D(9,10,14,11)    =        -1.047052	     -59.991664
	 D(9,10,14,12)    =         3.141214	     179.978317
	 D(9,10,14,13)    =         1.047565	      60.021064

	Current energy   :      -158.4460993041

	Generating empirical Hessian (Schlegel '84) for each fragment.
	Adding user-defined constraint: Fragment 1; Coordinate 49:
		Value =     1.570858; Fixed value    =     1.570800
		Force =    -0.000029; Force constant =     0.500000
	Removing off-diagonal coupling between coordinate 49 and others.
	Taking RFO optimization step.
	Going to follow RFO solution 1.
	Using RFO vector 1.

	Determining step-restricting scale parameter for RS-RFO.
	Maximum step size allowed    0.10000

	 Iter      |step|        alpha        rfo_root  
	------------------------------------------------
	    0     0.26334       1.00000           1
	    1     0.19545       5.70368           1
	    2     0.14465      18.50086           1
	    3     0.11511      37.82777           1
	    4     0.10268      52.32118           1
	    5     0.10011      56.08890           1
	    6     0.10000      56.25804           1
	------------------------------------------------
	Norm of target step-size    0.10000
	Projected energy change by RFO approximation:        -0.0076248574

	Back-transformation to cartesian coordinates...
	Successfully converged to displaced geometry.

	--- Internal Coordinate Step in ANG or DEG, aJ/ANG or AJ/DEG ---
	 ---------------------------------------------------------------------------
	   Coordinate                Previous        Force       Change         New 
	   ----------                --------       ------       ------       ------
	    1 R(1,4)          =      1.069698     0.184931     0.014815     1.084512
	    2 R(2,4)          =      1.070683     0.182456     0.014639     1.085322
	    3 R(3,4)          =      1.069320     0.188884     0.015122     1.084443
	    4 R(4,7)          =      1.540645     0.025032     0.002253     1.542898
	    5 R(5,7)          =      1.070326     0.185823     0.014901     1.085227
	    6 R(6,7)          =      1.069761     0.190093     0.015230     1.084990
	    7 R(7,10)         =      1.540128     0.071796     0.006457     1.546585
	    8 R(8,10)         =      1.069939     0.189285     0.015169     1.085108
	    9 R(9,10)         =      1.069582     0.190530     0.015260     1.084842
	   10 R(10,14)        =      1.539300     0.030375     0.002729     1.542029
	   11 R(11,14)        =      1.068828     0.194158     0.015532     1.084361
	   12 R(12,14)        =      1.069780     0.184741     0.014801     1.084582
	   13 R(13,14)        =      1.070610     0.181197     0.014536     1.085146
	   14 B(1,4,2)        =    109.484805    -0.000305    -0.387165   109.097639
	   15 B(1,4,3)        =    109.499161    -0.000260    -0.333179   109.165982
	   16 B(1,4,7)        =    109.457783     0.000183     0.227210   109.684993
	   17 B(2,4,3)        =    109.437340    -0.000353    -0.453201   108.984139
	   18 B(2,4,7)        =    109.467262     0.000445     0.572207   110.039469
	   19 B(3,4,7)        =    109.480971     0.000290     0.366052   109.847023
	   20 B(4,7,5)        =    109.431343    -0.000204    -0.222139   109.209204
	   21 B(4,7,6)        =    109.528316    -0.000291    -0.347472   109.180844
	   22 B(4,7,10)       =    109.501062     0.000873     1.045001   110.546063
	   23 B(5,7,6)        =    109.469614    -0.000011    -0.108164   109.361450
	   24 B(5,7,10)       =    109.437654    -0.000251    -0.278635   109.159019
	   25 B(6,7,10)       =    109.459295    -0.000115    -0.092950   109.366345
	   26 B(7,10,8)       =    109.443831    -0.000116    -0.094660   109.349171
	   27 B(7,10,9)       =    109.466446    -0.000253    -0.282889   109.183556
	   28 B(7,10,14)      =    109.525487     0.000871     1.043597   110.569085
	   29 B(8,10,9)       =    109.467487    -0.000012    -0.109573   109.357914
	   30 B(8,10,14)      =    109.478913    -0.000286    -0.339863   109.139050
	   31 B(9,10,14)      =    109.445152    -0.000203    -0.221166   109.223986
	   32 B(10,14,11)     =    109.523615     0.000440     0.565345   110.088960
	   33 B(10,14,12)     =    109.493504     0.000178     0.220305   109.713809
	   34 B(10,14,13)     =    109.518282     0.000285     0.360174   109.878456
	   35 B(11,14,12)     =    109.458349    -0.000300    -0.380377   109.077972
	   36 B(11,14,13)     =    109.431830    -0.000351    -0.451205   108.980625
	   37 B(12,14,13)     =    109.401644    -0.000253    -0.324022   109.077621
	   38 D(1,4,7,5)      =    179.965873     0.000032     0.216149   180.182021
	   39 D(1,4,7,6)      =    -60.025575    -0.000041    -0.260452   -60.286027
	   40 D(1,4,7,10)     =     60.013132     0.000009     0.053918    60.067050
	   41 D(2,4,7,5)      =    -60.028143     0.000035     0.234783   -59.793360
	   42 D(2,4,7,6)      =     59.980409    -0.000038    -0.241818    59.738592
	   43 D(2,4,7,10)     =   -179.980883     0.000011     0.072552  -179.908331
	   44 D(3,4,7,5)      =     59.933911     0.000039     0.259083    60.192994
	   45 D(3,4,7,6)      =    179.942463    -0.000034    -0.217517   179.724945
	   46 D(3,4,7,10)     =    -60.018830     0.000015     0.096852   -59.921978
	   47 D(4,7,10,8)     =   -149.970607     0.000017     0.109039  -149.861568
	   48 D(4,7,10,9)     =    -29.994864    -0.000038    -0.253661   -30.248525
	   49 D(4,7,10,14)    =     90.003520    -0.000008    -0.058852    89.944667
	   50 D(5,7,10,8)     =     90.080517    -0.000012    -0.087141    89.993376
	   51 D(5,7,10,9)     =   -149.943739    -0.000068    -0.449842  -150.393581
	   52 D(5,7,10,14)    =    -29.945356    -0.000038    -0.255033   -30.200389
	   53 D(6,7,10,8)     =    -29.889681     0.000042     0.270176   -29.619506
	   54 D(6,7,10,9)     =     90.086062    -0.000013    -0.092525    89.993538
	   55 D(6,7,10,14)    =   -149.915555     0.000016     0.102284  -149.813271
	   56 D(7,10,14,11)   =    179.996927     0.000012     0.075936   180.072863
	   57 D(7,10,14,12)   =     59.966908     0.000009     0.056570    60.023478
	   58 D(7,10,14,13)   =    -59.990345     0.000015     0.096122   -59.894223
	   59 D(8,10,14,11)   =     59.992512    -0.000038    -0.239161    59.753351
	   60 D(8,10,14,12)   =    -60.037507    -0.000040    -0.258527   -60.296034
	   61 D(8,10,14,13)   =   -179.994760    -0.000034    -0.218976  -180.213736
	   62 D(9,10,14,11)   =    -59.991664     0.000034     0.233505   -59.758159
	   63 D(9,10,14,12)   =    179.978317     0.000032     0.214139   180.192457
	   64 D(9,10,14,13)   =     60.021064     0.000038     0.253690    60.274755
	 ---------------------------------------------------------------------------
	 Forces used to impose fixed constraints are not included.
	  Forces zeroed: 49 

  ==> Convergence Check <==

  Measures of convergence in internal coordinates in au.
  Criteria marked as inactive (o), active & met (*), and active & unmet ( ).
  --------------------------------------------------------------------------------------------- ~
   Step     Total Energy     Delta E     MAX Force     RMS Force      MAX Disp      RMS Disp    ~
  --------------------------------------------------------------------------------------------- ~
    Convergence Criteria    1.00e-06 *    3.00e-04 *             o    1.20e-03 *             o  ~
  --------------------------------------------------------------------------------------------- ~
      1    -158.44609930   -1.58e+02      2.36e-02      9.59e-03 o    2.94e-02      1.25e-02 o  ~
  ---------------------------------------------------------------------------------------------

	Writing optimization data to binary file.
	Structure for next step:
	Cartesian Geometry (in Angstrom)
	    H    -2.0981340435   0.0997035461   0.7984702295
	    H    -1.9753470678   1.7563530727   0.1945372813
	    H    -1.6684989338   0.3966314680  -0.8902172176
	    C    -1.5573133201   0.7570815388   0.1265075387
	    H     0.4690523085   1.4433698411  -0.1614408653
	    H     0.0351916961   1.1477930755   1.5297242304
	    C    -0.0638897155   0.7812744446   0.5133331031
	    H     1.3449205351  -0.7348249326   1.1443191627
	    H    -0.2258977159  -1.3707485924   0.6316187446
	    C     0.5445198344  -0.6374223601   0.4181437996
	    H     1.5327062860  -1.8876387935  -1.0525056102
	    H     1.8833770744  -0.1637624378  -1.2145198735
	    H     0.3173933926  -0.8001676740  -1.7301747383
	    C     1.1095084023  -0.8909808385  -0.9940703578
			--------------------------
			 OPTKING Finished Execution 
			--------------------------

    Structure for next step:
    Molecular point group: c1
    Full point group: C1

    Geometry (in Angstrom), charge = 0, multiplicity = 1:

    H           -2.098231351117     0.099613056459     0.798282377848
    H           -1.975444375457     1.756262582999     0.194349429654
    H           -1.668596241426     0.396540978341    -0.890405069279
    C           -1.557410627749     0.756991049112     0.126319687051
    H            0.468955000827     1.443279351420    -0.161628716966
    H            0.035094388406     1.147702585884     1.529536378696
    C           -0.063987023149     0.781183954917     0.513145251439
    H            1.344823227402    -0.734915422248     1.144131311045
    H           -0.225995023555    -1.370839082005     0.631430892884
    C            0.544422526782    -0.637512849788     0.417955947896
    H            1.532608978352    -1.887729283202    -1.052693461860
    H            1.883279766715    -0.163852927482    -1.214707725171
    H            0.317296084996    -0.800258163676    -1.730362590003
    C            1.109411094693    -0.891071328124    -0.994258209478

gradient() will perform analytic gradient computation.

*** tstart() called on lski1497
*** at Tue Feb 21 19:30:01 2017


         ---------------------------------------------------------
                                   SCF
            by Justin Turney, Rob Parrish, and Andy Simmonett
                              RKS Reference
                        1 Threads,   1000 MiB Core
         ---------------------------------------------------------

  ==> Geometry <==

    Molecular point group: c1
    Full point group: C1

    Geometry (in Angstrom), charge = 0, multiplicity = 1:

       Center              X                  Y                   Z               Mass       
    ------------   -----------------  -----------------  -----------------  -----------------
           H         -2.098231351117     0.099613056459     0.798282377848     1.007825032070
           H         -1.975444375457     1.756262582999     0.194349429654     1.007825032070
           H         -1.668596241426     0.396540978341    -0.890405069279     1.007825032070
           C         -1.557410627749     0.756991049112     0.126319687051    12.000000000000
           H          0.468955000827     1.443279351420    -0.161628716966     1.007825032070
           H          0.035094388406     1.147702585884     1.529536378696     1.007825032070
           C         -0.063987023149     0.781183954917     0.513145251439    12.000000000000
           H          1.344823227402    -0.734915422248     1.144131311045     1.007825032070
           H         -0.225995023555    -1.370839082005     0.631430892884     1.007825032070
           C          0.544422526782    -0.637512849788     0.417955947896    12.000000000000
           H          1.532608978352    -1.887729283202    -1.052693461860     1.007825032070
           H          1.883279766715    -0.163852927482    -1.214707725171     1.007825032070
           H          0.317296084996    -0.800258163676    -1.730362590003     1.007825032070
           C          1.109411094693    -0.891071328124    -0.994258209478    12.000000000000

  Running in c1 symmetry.

  Rotational constants: A =      0.48406  B =      0.14667  C =      0.13498 [cm^-1]
  Rotational constants: A =  14511.89077  B =   4397.03919  C =   4046.65178 [MHz]
  Nuclear repulsion =  132.316395723471629

  Charge       = 0
  Multiplicity = 1
  Electrons    = 34
  Nalpha       = 17
  Nbeta        = 17

  ==> Algorithm <==

  SCF Algorithm Type is DF.
  DIIS enabled.
  MOM disabled.
  Fractional occupation disabled.
  Guess Type is READ.
  Energy threshold   = 1.00e-08
  Density threshold  = 1.00e-08
  Integral threshold = 0.00e+00

  ==> Primary Basis <==

  Basis Set: CC-PVDZ
    Number of shells: 54
    Number of basis function: 106
    Number of Cartesian functions: 110
    Spherical Harmonics?: true
    Max angular momentum: 2

  ==> DFT Potential <==

   => B3LYP Composite Functional <= 

    B3LYP Hybrid-GGA Exchange-Correlation Functional (VWN1-RPA)

    P.J. Stephens et. al., J. Phys. Chem., 98, 11623-11627, 1994

    Points   =           5000
    Deriv    =              1
    GGA      =           TRUE
    Meta     =          FALSE

    X_LRC        =          FALSE
    X_Hybrid     =           TRUE
    X_Alpha      =   2.000000E-01
    X_Omega      =   0.000000E+00
    C_LRC        =          FALSE
    C_Hybrid     =          FALSE
    C_Alpha      =   0.000000E+00
    C_Omega      =   0.000000E+00

   => Exchange Functionals <=

    0.8000    B3_X
    0.2000      HF 

   => Correlation Functionals <=

    0.1900 VWN3RPA_C
    0.8100   LYP_C

   => Molecular Quadrature <=

    Radial Scheme    =       TREUTLER
    Pruning Scheme   =           FLAT
    Nuclear Scheme   =       TREUTLER

    BS radius alpha  =              1
    Pruning alpha    =              1
    Radial Points    =             75
    Spherical Points =            302
    Total Points     =         312772
    Total Blocks     =            278
    Max Points       =           4974
    Max Functions    =            106

  ==> Pre-Iterations <==

   -------------------------------------------------------
    Irrep   Nso     Nmo     Nalpha   Nbeta   Ndocc  Nsocc
   -------------------------------------------------------
     A        106     106       0       0       0       0
   -------------------------------------------------------
    Total     106     106      17      17      17       0
   -------------------------------------------------------

  ==> Integral Setup <==

  ==> DFJK: Density-Fitted J/K Matrices <==

    J tasked:                  Yes
    K tasked:                  Yes
    wK tasked:                  No
    OpenMP threads:              1
    Integrals threads:           1
    Memory (MB):               715
    Algorithm:                Core
    Integral Cache:           NONE
    Schwarz Cutoff:          1E-12
    Fitting Condition:       1E-12

   => Auxiliary Basis Set <=

  Basis Set: 
    Number of shells: 186
    Number of basis function: 510
    Number of Cartesian functions: 574
    Spherical Harmonics?: true
    Max angular momentum: 3

  Minimum eigenvalue in the overlap matrix is 5.1269730403E-03.
  Using Symmetric Orthogonalization.
  SCF Guess was Projection but file not found.
  Switching over to SAD guess.

  SCF Guess: Superposition of Atomic Densities via on-the-fly atomic UHF.

  ==> Iterations <==

                           Total Energy        Delta E     RMS |[F,P]|

   @DF-RKS iter   0:  -158.99556133903928   -1.58996e+02   3.32410e-02 
   @DF-RKS iter   1:  -158.32099795732898    6.74563e-01   4.46065e-03 
   @DF-RKS iter   2:  -158.27768309517694    4.33149e-02   5.28815e-03 DIIS
   @DF-RKS iter   3:  -158.45116953276192   -1.73486e-01   3.62860e-04 DIIS
   @DF-RKS iter   4:  -158.45190784495014   -7.38312e-04   1.03435e-04 DIIS
   @DF-RKS iter   5:  -158.45195905627867   -5.12113e-05   4.47164e-05 DIIS
   @DF-RKS iter   6:  -158.45196997621639   -1.09199e-05   6.49465e-06 DIIS
   @DF-RKS iter   7:  -158.45197023385953   -2.57643e-07   9.03968e-07 DIIS
   @DF-RKS iter   8:  -158.45197023940102   -5.54149e-09   1.18036e-07 DIIS
   @DF-RKS iter   9:  -158.45197023949589   -9.48717e-11   2.57142e-08 DIIS
   @DF-RKS iter  10:  -158.45197023949979   -3.89377e-12   1.02260e-08 DIIS
   @DF-RKS iter  11:  -158.45197023950007   -2.84217e-13   2.85267e-09 DIIS

  ==> Post-Iterations <==

    Orbital Energies (a.u.)
    -----------------------

    Doubly Occupied:                                                      

       1A    -10.174388     2A    -10.174211     3A    -10.169977  
       4A    -10.169902     5A     -0.792009     6A     -0.718379  
       7A     -0.633668     8A     -0.571036     9A     -0.457981  
      10A     -0.449010    11A     -0.418312    12A     -0.386573  
      13A     -0.372716    14A     -0.359177    15A     -0.330358  
      16A     -0.318910    17A     -0.315131  

    Virtual:                                                              

      18A      0.061816    19A      0.094630    20A      0.095647  
      21A      0.104419    22A      0.133138    23A      0.144778  
      24A      0.148203    25A      0.157048    26A      0.158242  
      27A      0.201590    28A      0.207638    29A      0.250344  
      30A      0.257691    31A      0.403082    32A      0.423251  
      33A      0.428786    34A      0.432697    35A      0.450196  
      36A      0.473616    37A      0.529475    38A      0.592232  
      39A      0.604169    40A      0.630083    41A      0.641688  
      42A      0.645993    43A      0.659877    44A      0.660629  
      45A      0.668464    46A      0.691690    47A      0.692144  
      48A      0.693363    49A      0.707020    50A      0.730318  
      51A      0.747911    52A      0.787945    53A      0.880181  
      54A      0.892762    55A      0.964364    56A      1.121431  
      57A      1.131550    58A      1.173970    59A      1.212795  
      60A      1.236391    61A      1.387744    62A      1.392402  
      63A      1.425454    64A      1.433189    65A      1.444162  
      66A      1.483376    67A      1.565673    68A      1.596228  
      69A      1.620240    70A      1.634968    71A      1.637563  
      72A      1.657697    73A      1.658002    74A      1.677118  
      75A      1.689037    76A      1.692503    77A      1.713592  
      78A      1.721566    79A      1.743682    80A      1.744545  
      81A      1.770399    82A      1.841483    83A      1.883001  
      84A      1.888427    85A      1.972805    86A      2.005351  
      87A      2.030419    88A      2.033797    89A      2.087382  
      90A      2.156535    91A      2.226223    92A      2.231442  
      93A      2.256820    94A      2.279046    95A      2.312374  
      96A      2.347821    97A      2.458866    98A      2.466893  
      99A      2.470126   100A      2.505990   101A      2.507159  
     102A      2.576995   103A      2.618405   104A      2.619641  
     105A      2.676738   106A      2.733775  

    Final Occupation by Irrep:
              A 
    DOCC [    17 ]

  Energy converged.

  @DF-RKS Final Energy:  -158.45197023950007

   => Energetics <=

    Nuclear Repulsion Energy =            132.3163957234716293
    One-Electron Energy =                -473.0808811422348867
    Two-Electron Energy =                 202.9452908877975688
    DFT Exchange-Correlation Energy =     -20.6327757085344210
    Empirical Dispersion Energy =           0.0000000000000000
    PCM Polarization Energy =               0.0000000000000000
    EFP Energy =                            0.0000000000000000
    Total Energy =                       -158.4519702395000706


  Saving occupied orbitals to File 180.

*** tstop() called on lski1497 at Tue Feb 21 19:32:18 2017
Module time:
	user time   =     120.79 seconds =       2.01 minutes
	system time =       1.54 seconds =       0.03 minutes
	total time  =        137 seconds =       2.28 minutes
Total time:
	user time   =     277.06 seconds =       4.62 minutes
	system time =       3.65 seconds =       0.06 minutes
	total time  =        307 seconds =       5.12 minutes


Properties will be evaluated at   0.000000,   0.000000,   0.000000 Bohr

Properties computed using the SCF density matrix

  Nuclear Dipole Moment: (a.u.)
     X:    -0.3621      Y:    -0.1071      Z:    -0.7050

  Electronic Dipole Moment: (a.u.)
     X:     0.3756      Y:     0.1108      Z:     0.7309

  Dipole Moment: (a.u.)
     X:     0.0136      Y:     0.0037      Z:     0.0259     Total:     0.0294

  Dipole Moment: (Debye)
     X:     0.0345      Y:     0.0094      Z:     0.0657     Total:     0.0748


*** tstart() called on lski1497
*** at Tue Feb 21 19:32:18 2017


         ------------------------------------------------------------
                                   SCF GRAD                          
                          Rob Parrish, Justin Turney,                
                       Andy Simmonett, and Alex Sokolov              
         ------------------------------------------------------------

  ==> Geometry <==

    Molecular point group: c1
    Full point group: C1

    Geometry (in Angstrom), charge = 0, multiplicity = 1:

       Center              X                  Y                   Z               Mass       
    ------------   -----------------  -----------------  -----------------  -----------------
           H         -2.098231351117     0.099613056459     0.798282377848     1.007825032070
           H         -1.975444375457     1.756262582999     0.194349429654     1.007825032070
           H         -1.668596241426     0.396540978341    -0.890405069279     1.007825032070
           C         -1.557410627749     0.756991049112     0.126319687051    12.000000000000
           H          0.468955000827     1.443279351420    -0.161628716966     1.007825032070
           H          0.035094388406     1.147702585884     1.529536378696     1.007825032070
           C         -0.063987023149     0.781183954917     0.513145251439    12.000000000000
           H          1.344823227402    -0.734915422248     1.144131311045     1.007825032070
           H         -0.225995023555    -1.370839082005     0.631430892884     1.007825032070
           C          0.544422526782    -0.637512849788     0.417955947896    12.000000000000
           H          1.532608978352    -1.887729283202    -1.052693461860     1.007825032070
           H          1.883279766715    -0.163852927482    -1.214707725171     1.007825032070
           H          0.317296084996    -0.800258163676    -1.730362590003     1.007825032070
           C          1.109411094693    -0.891071328124    -0.994258209478    12.000000000000

  Nuclear repulsion =  132.316395723471629

  ==> Basis Set <==

  Basis Set: CC-PVDZ
    Number of shells: 54
    Number of basis function: 106
    Number of Cartesian functions: 110
    Spherical Harmonics?: true
    Max angular momentum: 2

  ==> DFJKGrad: Density-Fitted SCF Gradients <==

    Gradient:                    1
    J tasked:                  Yes
    K tasked:                  Yes
    wK tasked:                  No
    OpenMP threads:              1
    Integrals threads:           1
    Memory (MB):               715
    Schwarz Cutoff:          0E+00
    Fitting Condition:       1E-12

   => Auxiliary Basis Set <=

  Basis Set: 
    Number of shells: 186
    Number of basis function: 510
    Number of Cartesian functions: 574
    Spherical Harmonics?: true
    Max angular momentum: 3

  ==> DFT Potential <==

   => B3LYP Composite Functional <= 

    B3LYP Hybrid-GGA Exchange-Correlation Functional (VWN1-RPA)

    P.J. Stephens et. al., J. Phys. Chem., 98, 11623-11627, 1994

    Points   =           5000
    Deriv    =              1
    GGA      =           TRUE
    Meta     =          FALSE

    X_LRC        =          FALSE
    X_Hybrid     =           TRUE
    X_Alpha      =   2.000000E-01
    X_Omega      =   0.000000E+00
    C_LRC        =          FALSE
    C_Hybrid     =          FALSE
    C_Alpha      =   0.000000E+00
    C_Omega      =   0.000000E+00

   => Exchange Functionals <=

    0.8000    B3_X
    0.2000      HF 

   => Correlation Functionals <=

    0.1900 VWN3RPA_C
    0.8100   LYP_C

   => Molecular Quadrature <=

    Radial Scheme    =       TREUTLER
    Pruning Scheme   =           FLAT
    Nuclear Scheme   =       TREUTLER

    BS radius alpha  =              1
    Pruning alpha    =              1
    Radial Points    =             75
    Spherical Points =            302
    Total Points     =         312772
    Total Blocks     =            278
    Max Points       =           4974
    Max Functions    =            106


  -Total Gradient:
     Atom            X                  Y                   Z
    ------   -----------------  -----------------  -----------------
       1        0.008115967860     0.006499631243    -0.006076697136
       2        0.007502567755    -0.009206094563     0.000716536982
       3        0.004452577538     0.003845761621     0.010932811778
       4       -0.020230499518    -0.006126984443    -0.005187945705
       5       -0.007497034085    -0.009706847444     0.003761286851
       6       -0.001609858583    -0.007061720427    -0.009965412226
       7        0.016139202770     0.021328837739     0.002376363509
       8       -0.007819041032     0.004216475681    -0.008471884162
       9        0.006423304082     0.009481760355    -0.006308428496
      10       -0.005174294272    -0.018179218941     0.018952898842
      11       -0.005199693853     0.010594288123     0.004195932434
      12       -0.008829496112    -0.006705336282     0.004625133194
      13        0.006312201883    -0.000452545995     0.010152593494
      14        0.007416794129     0.001472881502    -0.019697988435


*** tstop() called on lski1497 at Tue Feb 21 19:33:02 2017
Module time:
	user time   =      39.50 seconds =       0.66 minutes
	system time =       0.61 seconds =       0.01 minutes
	total time  =         44 seconds =       0.73 minutes
Total time:
	user time   =     316.59 seconds =       5.28 minutes
	system time =       4.26 seconds =       0.07 minutes
	total time  =        351 seconds =       5.85 minutes

			-----------------------------------------
			 OPTKING 2.0: for geometry optimizations 
			  - R.A. King,  Bethel University        
			-----------------------------------------

	Previous internal coordinate definitions found.
	---Fragment 1 Geometry and Gradient---
	 H          -3.9650826170        0.1882413960        1.5085350708
	 H          -3.7330488604        3.3188552993        0.3672671961
	 H          -3.1531899227        0.7493538495       -1.6826217283
	 C          -2.9430795629        1.4305057679        0.2387096137
	 H           0.8861965202        2.7274027074       -0.3054340103
	 H           0.0663187829        2.1688435693        2.8904048660
	 C          -0.1209179498        1.4762237342        0.9697039916
	 H           2.5413475969       -1.3887888789        2.1620948379
	 H          -0.4270687019       -2.5905104372        1.1932314594
	 C           1.0288094762       -1.2047246923        0.7898222771
	 H           2.8962112379       -3.5672913583       -1.9893023448
	 H           3.5588829907       -0.3096371590       -2.2954649321
	 H           0.5996027037       -1.5122687650       -3.2699114057
	 C           2.0964831378       -1.6838807750       -1.8788757213
	             0.0081159679        0.0064996312       -0.0060766971
	             0.0075025678       -0.0092060946        0.0007165370
	             0.0044525775        0.0038457616        0.0109328118
	            -0.0202304995       -0.0061269844       -0.0051879457
	            -0.0074970341       -0.0097068474        0.0037612869
	            -0.0016098586       -0.0070617204       -0.0099654122
	             0.0161392028        0.0213288377        0.0023763635
	            -0.0078190410        0.0042164757       -0.0084718842
	             0.0064233041        0.0094817604       -0.0063084285
	            -0.0051742943       -0.0181792189        0.0189528988
	            -0.0051996939        0.0105942881        0.0041959324
	            -0.0088294961       -0.0067053363        0.0046251332
	             0.0063122019       -0.0004525460        0.0101525935
	             0.0074167941        0.0014728815       -0.0196979884

	---Fragment 1 Intrafragment Coordinates---
	 - Coordinate -           - BOHR/RAD -       - ANG/DEG -
	 R(1,4)           =         2.049431	       1.084512
	 R(2,4)           =         2.050961	       1.085322
	 R(3,4)           =         2.049299	       1.084443
	 R(4,7)           =         2.915654	       1.542898
	 R(5,7)           =         2.050782	       1.085227
	 R(6,7)           =         2.050335	       1.084990
	 R(7,10)          =         2.922621	       1.546585
	 R(8,10)          =         2.050557	       1.085108
	 R(9,10)          =         2.050054	       1.084842
	 R(10,14)         =         2.914012	       1.542029
	 R(11,14)         =         2.049145	       1.084361
	 R(12,14)         =         2.049562	       1.084582
	 R(13,14)         =         2.050630	       1.085146
	 B(1,4,2)         =         1.904113	     109.097639
	 B(1,4,3)         =         1.905306	     109.165982
	 B(1,4,7)         =         1.914364	     109.684993
	 B(2,4,3)         =         1.902132	     108.984139
	 B(2,4,7)         =         1.920551	     110.039469
	 B(3,4,7)         =         1.917192	     109.847023
	 B(4,7,5)         =         1.906060	     109.209204
	 B(4,7,6)         =         1.905565	     109.180844
	 B(4,7,10)        =         1.929393	     110.546063
	 B(5,7,6)         =         1.908717	     109.361450
	 B(5,7,10)        =         1.905184	     109.159019
	 B(6,7,10)        =         1.908803	     109.366345
	 B(7,10,8)        =         1.908503	     109.349171
	 B(7,10,9)        =         1.905613	     109.183556
	 B(7,10,14)       =         1.929795	     110.569085
	 B(8,10,9)        =         1.908656	     109.357914
	 B(8,10,14)       =         1.904836	     109.139050
	 B(9,10,14)       =         1.906318	     109.223986
	 B(10,14,11)      =         1.921415	     110.088960
	 B(10,14,12)      =         1.914867	     109.713809
	 B(10,14,13)      =         1.917741	     109.878456
	 B(11,14,12)      =         1.903770	     109.077972
	 B(11,14,13)      =         1.902071	     108.980625
	 B(12,14,13)      =         1.903764	     109.077621
	 D(1,4,7,5)       =        -3.138416	    -179.817979
	 D(1,4,7,6)       =        -1.052190	     -60.286027
	 D(1,4,7,10)      =         1.048368	      60.067050
	 D(2,4,7,5)       =        -1.043591	     -59.793360
	 D(2,4,7,6)       =         1.042635	      59.738592
	 D(2,4,7,10)      =        -3.139993	    -179.908331
	 D(3,4,7,5)       =         1.050566	      60.192994
	 D(3,4,7,6)       =         3.136792	     179.724945
	 D(3,4,7,10)      =        -1.045836	     -59.921978
	 D(4,7,10,8)      =        -2.615578	    -149.861568
	 D(4,7,10,9)      =        -0.527936	     -30.248525
	 D(4,7,10,14)     =         1.569831	      89.944667
	 D(5,7,10,8)      =         1.570681	      89.993376
	 D(5,7,10,9)      =        -2.624863	    -150.393581
	 D(5,7,10,14)     =        -0.527096	     -30.200389
	 D(6,7,10,8)      =        -0.516958	     -29.619506
	 D(6,7,10,9)      =         1.570684	      89.993538
	 D(6,7,10,14)     =        -2.614735	    -149.813271
	 D(7,10,14,11)    =        -3.140321	    -179.927137
	 D(7,10,14,12)    =         1.047607	      60.023478
	 D(7,10,14,13)    =        -1.045351	     -59.894223
	 D(8,10,14,11)    =         1.042893	      59.753351
	 D(8,10,14,12)    =        -1.052364	     -60.296034
	 D(8,10,14,13)    =         3.137862	     179.786264
	 D(9,10,14,11)    =        -1.042977	     -59.758159
	 D(9,10,14,12)    =        -3.138234	    -179.807543
	 D(9,10,14,13)    =         1.051993	      60.274755

	Current energy   :      -158.4519702395

	Energy change for the previous step:
		Projected    :        -0.0076248574
		Actual       :        -0.0058709354

	Performing BFGS update.
	Previous computed or guess Hessian on step 1.
	Steps to be used in Hessian update: 1
	Adding user-defined constraint: Fragment 1; Coordinate 49:
		Value =     1.569831; Fixed value    =     1.570800
		Force =     0.000509; Force constant =     0.525000
	Removing off-diagonal coupling between coordinate 49 and others.
	Taking RFO optimization step.
	Going to follow RFO solution 1.
	Using RFO vector 1.

	Determining step-restricting scale parameter for RS-RFO.
	Maximum step size allowed    0.10000

	 Iter      |step|        alpha        rfo_root  
	------------------------------------------------
	    0     0.21680       1.00000           1
	    1     0.16672       4.77714           1
	    2     0.12931      14.05461           1
	    3     0.10884      26.17105           1
	    4     0.10117      33.46362           1
	    5     0.10003      34.74733           1
	    6     0.10000      34.77614           1
	------------------------------------------------
	Norm of target step-size    0.10000
	Projected energy change by RFO approximation:        -0.0043763774

	Back-transformation to cartesian coordinates...
	Successfully converged to displaced geometry.

	--- Internal Coordinate Step in ANG or DEG, aJ/ANG or AJ/DEG ---
	 ---------------------------------------------------------------------------
	   Coordinate                Previous        Force       Change         New 
	   ----------                --------       ------       ------       ------
	    1 R(1,4)          =      1.084512     0.096831     0.012189     1.096702
	    2 R(2,4)          =      1.085322     0.093266     0.011515     1.096837
	    3 R(3,4)          =      1.084443     0.098737     0.012407     1.096850
	    4 R(4,7)          =      1.542898    -0.001120    -0.002188     1.540710
	    5 R(5,7)          =      1.085227     0.098387     0.012508     1.097735
	    6 R(6,7)          =      1.084990     0.097780     0.012126     1.097116
	    7 R(7,10)         =      1.546585     0.027232     0.002219     1.548804
	    8 R(8,10)         =      1.085108     0.097349     0.012073     1.097181
	    9 R(9,10)         =      1.084842     0.100610     0.012752     1.097594
	   10 R(10,14)        =      1.542029     0.002092    -0.001684     1.540345
	   11 R(11,14)        =      1.084361     0.098801     0.012126     1.096487
	   12 R(12,14)        =      1.084582     0.096699     0.012170     1.096752
	   13 R(13,14)        =      1.085146     0.095010     0.011986     1.097133
	   14 B(1,4,2)        =    109.097639    -0.000239    -0.640434   108.457205
	   15 B(1,4,3)        =    109.165982    -0.000229    -0.668795   108.497187
	   16 B(1,4,7)        =    109.684993     0.000173     0.512226   110.197219
	   17 B(2,4,3)        =    108.984139    -0.000274    -0.738865   108.245274
	   18 B(2,4,7)        =    110.039469     0.000308     0.765846   110.805315
	   19 B(3,4,7)        =    109.847023     0.000250     0.717936   110.564958
	   20 B(4,7,5)        =    109.209204    -0.000114    -0.145699   109.063505
	   21 B(4,7,6)        =    109.180844    -0.000182    -0.356381   108.824463
	   22 B(4,7,10)       =    110.546063     0.000575     1.322965   111.869027
	   23 B(5,7,6)        =    109.361450    -0.000069    -0.553074   108.808375
	   24 B(5,7,10)       =    109.159019    -0.000152    -0.245340   108.913678
	   25 B(6,7,10)       =    109.366345    -0.000063    -0.054311   109.312034
	   26 B(7,10,8)       =    109.349171    -0.000063    -0.050699   109.298472
	   27 B(7,10,9)       =    109.183556    -0.000153    -0.250085   108.933471
	   28 B(7,10,14)      =    110.569085     0.000572     1.310888   111.879973
	   29 B(8,10,9)       =    109.357914    -0.000070    -0.555500   108.802414
	   30 B(8,10,14)      =    109.139050    -0.000177    -0.341553   108.797497
	   31 B(9,10,14)      =    109.223986    -0.000114    -0.145140   109.078845
	   32 B(10,14,11)     =    110.088960     0.000303     0.747384   110.836345
	   33 B(10,14,12)     =    109.713809     0.000167     0.497483   110.211291
	   34 B(10,14,13)     =    109.878456     0.000246     0.706551   110.585007
	   35 B(11,14,12)     =    109.077972    -0.000234    -0.628655   108.449317
	   36 B(11,14,13)     =    108.980625    -0.000271    -0.733215   108.247410
	   37 B(12,14,13)     =    109.077621    -0.000221    -0.642558   108.435063
	   38 D(1,4,7,5)      =   -179.817979     0.000028     0.498788  -179.319191
	   39 D(1,4,7,6)      =    -60.286027    -0.000032    -0.465664   -60.751691
	   40 D(1,4,7,10)     =     60.067050     0.000006     0.066728    60.133778
	   41 D(2,4,7,5)      =    -59.793360     0.000030     0.517295   -59.276065
	   42 D(2,4,7,6)      =     59.738592    -0.000030    -0.447156    59.291435
	   43 D(2,4,7,10)     =   -179.908331     0.000007     0.085235  -179.823096
	   44 D(3,4,7,5)      =     60.192994     0.000032     0.549290    60.742284
	   45 D(3,4,7,6)      =    179.724945    -0.000027    -0.415161   179.309784
	   46 D(3,4,7,10)     =    -59.921978     0.000010     0.117230   -59.804748
	   47 D(4,7,10,8)     =   -149.861568     0.000016     0.254976  -149.606592
	   48 D(4,7,10,9)     =    -30.248525    -0.000034    -0.597913   -30.846438
	   49 D(4,7,10,14)    =     89.944667    -0.000007    -0.117440    89.827227
	   50 D(5,7,10,8)     =     89.993376    -0.000012    -0.234208    89.759167
	   51 D(5,7,10,9)     =   -150.393581    -0.000061    -1.087097  -151.480678
	   52 D(5,7,10,14)    =    -30.200389    -0.000034    -0.606624   -30.807014
	   53 D(6,7,10,8)     =    -29.619506     0.000037     0.615030   -29.004475
	   54 D(6,7,10,9)     =     89.993538    -0.000012    -0.237858    89.755679
	   55 D(6,7,10,14)    =   -149.813271     0.000015     0.242614  -149.570656
	   56 D(7,10,14,11)   =   -179.927137     0.000008     0.092478  -179.834659
	   57 D(7,10,14,12)   =     60.023478     0.000006     0.079392    60.102871
	   58 D(7,10,14,13)   =    -59.894223     0.000010     0.114026   -59.780197
	   59 D(8,10,14,11)   =     59.753351    -0.000030    -0.445368    59.307982
	   60 D(8,10,14,12)   =    -60.296034    -0.000031    -0.458454   -60.754488
	   61 D(8,10,14,13)   =    179.786264    -0.000028    -0.423820   179.362444
	   62 D(9,10,14,11)   =    -59.758159     0.000029     0.512600   -59.245559
	   63 D(9,10,14,12)   =   -179.807543     0.000028     0.499514  -179.308029
	   64 D(9,10,14,13)   =     60.274755     0.000032     0.534148    60.808903
	 ---------------------------------------------------------------------------
	 Forces used to impose fixed constraints are not included.
	  Forces zeroed: 49 

  ==> Convergence Check <==

  Measures of convergence in internal coordinates in au.
  Criteria marked as inactive (o), active & met (*), and active & unmet ( ).
  ---------------------------------------------------------------------------------------------
   Step     Total Energy     Delta E     MAX Force     RMS Force      MAX Disp      RMS Disp   
  ---------------------------------------------------------------------------------------------
    Convergence Criteria    1.00e-06 *    3.00e-04 *             o    1.20e-03 *             o
  ---------------------------------------------------------------------------------------------
      2    -158.45197024   -5.87e-03      1.22e-02      5.21e-03 o    2.41e-02      1.25e-02 o  ~
  ---------------------------------------------------------------------------------------------

	Writing optimization data to binary file.
	Structure for next step:
	Cartesian Geometry (in Angstrom)
	    H    -2.1264178719   0.0642546655   0.8116140108
	    H    -2.0230923804   1.7443574553   0.2336416280
	    H    -1.7126495744   0.3999934687  -0.8869673742
	    C    -1.5811323437   0.7443288391   0.1460938247
	    H     0.4379942050   1.4659301306  -0.1472211464
	    H     0.0122008568   1.1308729241   1.5532769754
	    C    -0.0870917636   0.7715289649   0.5214452100
	    H     1.3747984451  -0.7156847520   1.1353532917
	    H    -0.1937990970  -1.3930835576   0.6201529131
	    C     0.5633481058  -0.6289881444   0.4019788809
	    H     1.5910051004  -1.8731743983  -1.0719277728
	    H     1.9063945791  -0.1298422387  -1.2381158037
	    H     0.3468168602  -0.8081822661  -1.7626778986
	    C     1.1378513042  -0.8769165886  -1.0055512350
			--------------------------
			 OPTKING Finished Execution 
			--------------------------

    Structure for next step:
    Molecular point group: c1
    Full point group: C1

    Geometry (in Angstrom), charge = 0, multiplicity = 1:

    H           -2.126519948584     0.064186105269     0.811461841070
    H           -2.023194457028     1.744288895054     0.233489458254
    H           -1.712751651026     0.399924908443    -0.887119543915
    C           -1.581234420389     0.744260278823     0.145941654985
    H            0.437892128325     1.465861570345    -0.147373316110
    H            0.012098780196     1.130804363837     1.553124805705
    C           -0.087193840215     0.771460404684     0.521293040335
    H            1.374696368484    -0.715753312209     1.135201121962
    H           -0.193901173605    -1.393152117895     0.620000743412
    C            0.563246029194    -0.629056704641     0.401826711221
    H            1.590903023746    -1.873242958594    -1.072079942537
    H            1.906292502477    -0.129910798939    -1.238267973403
    H            0.346714783553    -0.808250826317    -1.762830068330
    C            1.137749227523    -0.876985148837    -1.005703404681

gradient() will perform analytic gradient computation.

*** tstart() called on lski1497
*** at Tue Feb 21 19:33:03 2017


         ---------------------------------------------------------
                                   SCF
            by Justin Turney, Rob Parrish, and Andy Simmonett
                              RKS Reference
                        1 Threads,   1000 MiB Core
         ---------------------------------------------------------

  ==> Geometry <==

    Molecular point group: c1
    Full point group: C1

    Geometry (in Angstrom), charge = 0, multiplicity = 1:

       Center              X                  Y                   Z               Mass       
    ------------   -----------------  -----------------  -----------------  -----------------
           H         -2.126519948584     0.064186105269     0.811461841070     1.007825032070
           H         -2.023194457028     1.744288895054     0.233489458254     1.007825032070
           H         -1.712751651026     0.399924908443    -0.887119543915     1.007825032070
           C         -1.581234420389     0.744260278823     0.145941654985    12.000000000000
           H          0.437892128325     1.465861570345    -0.147373316110     1.007825032070
           H          0.012098780196     1.130804363837     1.553124805705     1.007825032070
           C         -0.087193840215     0.771460404684     0.521293040335    12.000000000000
           H          1.374696368484    -0.715753312209     1.135201121962     1.007825032070
           H         -0.193901173605    -1.393152117895     0.620000743412     1.007825032070
           C          0.563246029194    -0.629056704641     0.401826711221    12.000000000000
           H          1.590903023746    -1.873242958594    -1.072079942537     1.007825032070
           H          1.906292502477    -0.129910798939    -1.238267973403     1.007825032070
           H          0.346714783553    -0.808250826317    -1.762830068330     1.007825032070
           C          1.137749227523    -0.876985148837    -1.005703404681    12.000000000000

  Running in c1 symmetry.

  Rotational constants: A =      0.48706  B =      0.14351  C =      0.13227 [cm^-1]
  Rotational constants: A =  14601.65174  B =   4302.44616  C =   3965.46538 [MHz]
  Nuclear repulsion =  131.429127329772029

  Charge       = 0
  Multiplicity = 1
  Electrons    = 34
  Nalpha       = 17
  Nbeta        = 17

  ==> Algorithm <==

  SCF Algorithm Type is DF.
  DIIS enabled.
  MOM disabled.
  Fractional occupation disabled.
  Guess Type is READ.
  Energy threshold   = 1.00e-08
  Density threshold  = 1.00e-08
  Integral threshold = 0.00e+00

  ==> Primary Basis <==

  Basis Set: CC-PVDZ
    Number of shells: 54
    Number of basis function: 106
    Number of Cartesian functions: 110
    Spherical Harmonics?: true
    Max angular momentum: 2

  ==> DFT Potential <==

   => B3LYP Composite Functional <= 

    B3LYP Hybrid-GGA Exchange-Correlation Functional (VWN1-RPA)

    P.J. Stephens et. al., J. Phys. Chem., 98, 11623-11627, 1994

    Points   =           5000
    Deriv    =              1
    GGA      =           TRUE
    Meta     =          FALSE

    X_LRC        =          FALSE
    X_Hybrid     =           TRUE
    X_Alpha      =   2.000000E-01
    X_Omega      =   0.000000E+00
    C_LRC        =          FALSE
    C_Hybrid     =          FALSE
    C_Alpha      =   0.000000E+00
    C_Omega      =   0.000000E+00

   => Exchange Functionals <=

    0.8000    B3_X
    0.2000      HF 

   => Correlation Functionals <=

    0.1900 VWN3RPA_C
    0.8100   LYP_C

   => Molecular Quadrature <=

    Radial Scheme    =       TREUTLER
    Pruning Scheme   =           FLAT
    Nuclear Scheme   =       TREUTLER

    BS radius alpha  =              1
    Pruning alpha    =              1
    Radial Points    =             75
    Spherical Points =            302
    Total Points     =         312798
    Total Blocks     =            274
    Max Points       =           4980
    Max Functions    =            106

  ==> Pre-Iterations <==

   -------------------------------------------------------
    Irrep   Nso     Nmo     Nalpha   Nbeta   Ndocc  Nsocc
   -------------------------------------------------------
     A        106     106       0       0       0       0
   -------------------------------------------------------
    Total     106     106      17      17      17       0
   -------------------------------------------------------

  ==> Integral Setup <==

  ==> DFJK: Density-Fitted J/K Matrices <==

    J tasked:                  Yes
    K tasked:                  Yes
    wK tasked:                  No
    OpenMP threads:              1
    Integrals threads:           1
    Memory (MB):               715
    Algorithm:                Core
    Integral Cache:           NONE
    Schwarz Cutoff:          1E-12
    Fitting Condition:       1E-12

   => Auxiliary Basis Set <=

  Basis Set: 
    Number of shells: 186
    Number of basis function: 510
    Number of Cartesian functions: 574
    Spherical Harmonics?: true
    Max angular momentum: 3

  Minimum eigenvalue in the overlap matrix is 5.1843537722E-03.
  Using Symmetric Orthogonalization.
  SCF Guess was Projection but file not found.
  Switching over to SAD guess.

  SCF Guess: Superposition of Atomic Densities via on-the-fly atomic UHF.

  ==> Iterations <==

                           Total Energy        Delta E     RMS |[F,P]|

   @DF-RKS iter   0:  -158.95076258828502   -1.58951e+02   3.27010e-02 
   @DF-RKS iter   1:  -158.32999478784217    6.20768e-01   4.33566e-03 
   @DF-RKS iter   2:  -158.28559675245947    4.43980e-02   5.19225e-03 DIIS
   @DF-RKS iter   3:  -158.45393231880217   -1.68336e-01   3.58570e-04 DIIS
   @DF-RKS iter   4:  -158.45466113540843   -7.28817e-04   1.00111e-04 DIIS
   @DF-RKS iter   5:  -158.45470887462437   -4.77392e-05   4.45711e-05 DIIS
   @DF-RKS iter   6:  -158.45471975455408   -1.08799e-05   6.46247e-06 DIIS
   @DF-RKS iter   7:  -158.45472000992936   -2.55375e-07   9.00639e-07 DIIS
   @DF-RKS iter   8:  -158.45472001546574   -5.53638e-09   1.21504e-07 DIIS
   @DF-RKS iter   9:  -158.45472001556811   -1.02375e-10   2.58961e-08 DIIS
   @DF-RKS iter  10:  -158.45472001557161   -3.49587e-12   1.04542e-08 DIIS
   @DF-RKS iter  11:  -158.45472001557209   -4.83169e-13   2.94727e-09 DIIS

  ==> Post-Iterations <==

    Orbital Energies (a.u.)
    -----------------------

    Doubly Occupied:                                                      

       1A    -10.178274     2A    -10.178111     3A    -10.173995  
       4A    -10.173970     5A     -0.789706     6A     -0.717197  
       7A     -0.631857     8A     -0.567945     9A     -0.455038  
      10A     -0.447042    11A     -0.416257    12A     -0.385205  
      13A     -0.371450    14A     -0.358066    15A     -0.328086  
      16A     -0.317927    17A     -0.317217  

    Virtual:                                                              

      18A      0.059720    19A      0.092736    20A      0.093339  
      21A      0.102241    22A      0.131211    23A      0.142044  
      24A      0.146377    25A      0.152894    26A      0.155399  
      27A      0.195260    28A      0.205756    29A      0.250857  
      30A      0.259600    31A      0.398850    32A      0.421689  
      33A      0.427879    34A      0.429010    35A      0.450265  
      36A      0.474802    37A      0.531162    38A      0.587777  
      39A      0.602808    40A      0.625593    41A      0.637518  
      42A      0.638656    43A      0.653727    44A      0.654438  
      45A      0.663824    46A      0.680032    47A      0.686203  
      48A      0.688596    49A      0.705285    50A      0.720670  
      51A      0.741793    52A      0.783132    53A      0.881130  
      54A      0.890613    55A      0.963155    56A      1.119585  
      57A      1.128015    58A      1.161315    59A      1.209120  
      60A      1.232377    61A      1.379057    62A      1.385004  
      63A      1.422298    64A      1.427019    65A      1.439914  
      66A      1.473535    67A      1.563677    68A      1.589356  
      69A      1.610582    70A      1.628448    71A      1.635396  
      72A      1.645314    73A      1.651227    74A      1.669029  
      75A      1.678469    76A      1.686778    77A      1.707688  
      78A      1.713339    79A      1.726885    80A      1.730147  
      81A      1.766287    82A      1.822783    83A      1.868913  
      84A      1.879809    85A      1.964381    86A      1.997491  
      87A      2.017582    88A      2.036590    89A      2.074086  
      90A      2.140105    91A      2.208177    92A      2.213711  
      93A      2.240931    94A      2.262014    95A      2.287813  
      96A      2.319908    97A      2.426474    98A      2.433467  
      99A      2.444825   100A      2.488254   101A      2.490823  
     102A      2.553241   103A      2.588716   104A      2.606534  
     105A      2.660421   106A      2.715830  

    Final Occupation by Irrep:
              A 
    DOCC [    17 ]

  Energy converged.

  @DF-RKS Final Energy:  -158.45472001557209

   => Energetics <=

    Nuclear Repulsion Energy =            131.4291273297720295
    One-Electron Energy =                -471.3455353538917052
    Two-Electron Energy =                 202.0585782649509383
    DFT Exchange-Correlation Energy =     -20.5968902564033485
    Empirical Dispersion Energy =           0.0000000000000000
    PCM Polarization Energy =               0.0000000000000000
    EFP Energy =                            0.0000000000000000
    Total Energy =                       -158.4547200155720930


  Saving occupied orbitals to File 180.

*** tstop() called on lski1497 at Tue Feb 21 19:35:21 2017
Module time:
	user time   =     122.27 seconds =       2.04 minutes
	system time =       1.51 seconds =       0.03 minutes
	total time  =        138 seconds =       2.30 minutes
Total time:
	user time   =     439.55 seconds =       7.33 minutes
	system time =       5.80 seconds =       0.10 minutes
	total time  =        490 seconds =       8.17 minutes


Properties will be evaluated at   0.000000,   0.000000,   0.000000 Bohr

Properties computed using the SCF density matrix

  Nuclear Dipole Moment: (a.u.)
     X:    -0.3635      Y:    -0.1080      Z:    -0.7072

  Electronic Dipole Moment: (a.u.)
     X:     0.3760      Y:     0.1117      Z:     0.7312

  Dipole Moment: (a.u.)
     X:     0.0125      Y:     0.0036      Z:     0.0240     Total:     0.0272

  Dipole Moment: (Debye)
     X:     0.0316      Y:     0.0092      Z:     0.0609     Total:     0.0692


*** tstart() called on lski1497
*** at Tue Feb 21 19:35:22 2017


         ------------------------------------------------------------
                                   SCF GRAD                          
                          Rob Parrish, Justin Turney,                
                       Andy Simmonett, and Alex Sokolov              
         ------------------------------------------------------------

  ==> Geometry <==

    Molecular point group: c1
    Full point group: C1

    Geometry (in Angstrom), charge = 0, multiplicity = 1:

       Center              X                  Y                   Z               Mass       
    ------------   -----------------  -----------------  -----------------  -----------------
           H         -2.126519948584     0.064186105269     0.811461841070     1.007825032070
           H         -2.023194457028     1.744288895054     0.233489458254     1.007825032070
           H         -1.712751651026     0.399924908443    -0.887119543915     1.007825032070
           C         -1.581234420389     0.744260278823     0.145941654985    12.000000000000
           H          0.437892128325     1.465861570345    -0.147373316110     1.007825032070
           H          0.012098780196     1.130804363837     1.553124805705     1.007825032070
           C         -0.087193840215     0.771460404684     0.521293040335    12.000000000000
           H          1.374696368484    -0.715753312209     1.135201121962     1.007825032070
           H         -0.193901173605    -1.393152117895     0.620000743412     1.007825032070
           C          0.563246029194    -0.629056704641     0.401826711221    12.000000000000
           H          1.590903023746    -1.873242958594    -1.072079942537     1.007825032070
           H          1.906292502477    -0.129910798939    -1.238267973403     1.007825032070
           H          0.346714783553    -0.808250826317    -1.762830068330     1.007825032070
           C          1.137749227523    -0.876985148837    -1.005703404681    12.000000000000

  Nuclear repulsion =  131.429127329772029

  ==> Basis Set <==

  Basis Set: CC-PVDZ
    Number of shells: 54
    Number of basis function: 106
    Number of Cartesian functions: 110
    Spherical Harmonics?: true
    Max angular momentum: 2

  ==> DFJKGrad: Density-Fitted SCF Gradients <==

    Gradient:                    1
    J tasked:                  Yes
    K tasked:                  Yes
    wK tasked:                  No
    OpenMP threads:              1
    Integrals threads:           1
    Memory (MB):               715
    Schwarz Cutoff:          0E+00
    Fitting Condition:       1E-12

   => Auxiliary Basis Set <=

  Basis Set: 
    Number of shells: 186
    Number of basis function: 510
    Number of Cartesian functions: 574
    Spherical Harmonics?: true
    Max angular momentum: 3

  ==> DFT Potential <==

   => B3LYP Composite Functional <= 

    B3LYP Hybrid-GGA Exchange-Correlation Functional (VWN1-RPA)

    P.J. Stephens et. al., J. Phys. Chem., 98, 11623-11627, 1994

    Points   =           5000
    Deriv    =              1
    GGA      =           TRUE
    Meta     =          FALSE

    X_LRC        =          FALSE
    X_Hybrid     =           TRUE
    X_Alpha      =   2.000000E-01
    X_Omega      =   0.000000E+00
    C_LRC        =          FALSE
    C_Hybrid     =          FALSE
    C_Alpha      =   0.000000E+00
    C_Omega      =   0.000000E+00

   => Exchange Functionals <=

    0.8000    B3_X
    0.2000      HF 

   => Correlation Functionals <=

    0.1900 VWN3RPA_C
    0.8100   LYP_C

   => Molecular Quadrature <=

    Radial Scheme    =       TREUTLER
    Pruning Scheme   =           FLAT
    Nuclear Scheme   =       TREUTLER

    BS radius alpha  =              1
    Pruning alpha    =              1
    Radial Points    =             75
    Spherical Points =            302
    Total Points     =         312798
    Total Blocks     =            274
    Max Points       =           4980
    Max Functions    =            106


  -Total Gradient:
     Atom            X                  Y                   Z
    ------   -----------------  -----------------  -----------------
[...]

  ==> Basis Set <==

  Basis Set: CC-PVDZ
    Number of shells: 54
    Number of basis function: 106
    Number of Cartesian functions: 110
    Spherical Harmonics?: true
    Max angular momentum: 2

  ==> DFJKGrad: Density-Fitted SCF Gradients <==

    Gradient:                    1
    J tasked:                  Yes
    K tasked:                  Yes
    wK tasked:                  No
    OpenMP threads:              1
    Integrals threads:           1
    Memory (MB):               715
    Schwarz Cutoff:          0E+00
    Fitting Condition:       1E-12

   => Auxiliary Basis Set <=

  Basis Set: 
    Number of shells: 186
    Number of basis function: 510
    Number of Cartesian functions: 574
    Spherical Harmonics?: true
    Max angular momentum: 3

  ==> DFT Potential <==

   => B3LYP Composite Functional <= 

    B3LYP Hybrid-GGA Exchange-Correlation Functional (VWN1-RPA)

    P.J. Stephens et. al., J. Phys. Chem., 98, 11623-11627, 1994

    Points   =           5000
    Deriv    =              1
    GGA      =           TRUE
    Meta     =          FALSE

    X_LRC        =          FALSE
    X_Hybrid     =           TRUE
    X_Alpha      =   2.000000E-01
    X_Omega      =   0.000000E+00
    C_LRC        =          FALSE
    C_Hybrid     =          FALSE
    C_Alpha      =   0.000000E+00
    C_Omega      =   0.000000E+00

   => Exchange Functionals <=

    0.8000    B3_X
    0.2000      HF 

   => Correlation Functionals <=

    0.1900 VWN3RPA_C
    0.8100   LYP_C

   => Molecular Quadrature <=

    Radial Scheme    =       TREUTLER
    Pruning Scheme   =           FLAT
    Nuclear Scheme   =       TREUTLER

    BS radius alpha  =              1
    Pruning alpha    =              1
    Radial Points    =             75
    Spherical Points =            302
    Total Points     =         312808
    Total Blocks     =            276
    Max Points       =           4912
    Max Functions    =            106


  -Total Gradient:
     Atom            X                  Y                   Z
    ------   -----------------  -----------------  -----------------
       1       -0.000016634426     0.000001043777    -0.000002711137
       2        0.000000340292     0.000000900717     0.000006119090
       3        0.000008262179     0.000003268700     0.000008711461
       4       -0.000553070804    -0.000537608221     0.002413122802
       5        0.000004908840     0.000010117612    -0.000014696538
       6        0.000005700997    -0.000006965836    -0.000024707839
       7        0.001649994740     0.001149460514    -0.003039727881
       8       -0.000023994554     0.000001459507    -0.000010542763
       9       -0.000013267875    -0.000012720724    -0.000001667014
      10       -0.003258594437    -0.001630613041    -0.000079521245
      11        0.000004873886     0.000000626079     0.000003988060
      12        0.000007711179    -0.000003922199    -0.000014175865
      13        0.000002590829    -0.000000168331     0.000012453731
      14        0.002188182572     0.001027217242     0.000756935841


*** tstop() called on lski1497 at Tue Feb 21 19:48:55 2017
Module time:
	user time   =      81.82 seconds =       1.36 minutes
	system time =       1.26 seconds =       0.02 minutes
	total time  =         99 seconds =       1.65 minutes
Total time:
	user time   =    1166.96 seconds =      19.45 minutes
	system time =      15.31 seconds =       0.26 minutes
	total time  =       1304 seconds =      21.73 minutes

			-----------------------------------------
			 OPTKING 2.0: for geometry optimizations 
			  - R.A. King,  Bethel University        
			-----------------------------------------

	Previous internal coordinate definitions found.
	---Fragment 1 Geometry and Gradient---
	 H          -4.0793802997        0.1601596568        1.5702394498
	 H          -3.8455901613        3.3238714999        0.4493699772
	 H          -3.3276012425        0.7542748559       -1.6511882333
	 C          -3.0106534931        1.4210939153        0.2995838367
	 H           0.8211749518        2.8272073109       -0.1930996814
	 H          -0.0051244851        2.1056646582        2.9516303695
	 C          -0.1975078652        1.4351621338        0.9845911353
	 H           2.6231504254       -1.3222822024        2.1252344790
	 H          -0.2881062696       -2.6677004923        1.2268225435
	 C           1.0804923653       -1.1709495698        0.7276886677
	 H           3.0292662079       -3.5681377526       -2.0323743604
	 H           3.6726001426       -0.2818843975       -2.3590681944
	 H           0.7280718726       -1.5321206863       -3.3898087981
	 C           2.1840684656       -1.6684298151       -1.9024942615
	            -0.0000166344        0.0000010438       -0.0000027111
	             0.0000003403        0.0000009007        0.0000061191
	             0.0000082622        0.0000032687        0.0000087115
	            -0.0005530708       -0.0005376082        0.0024131228
	             0.0000049088        0.0000101176       -0.0000146965
	             0.0000057010       -0.0000069658       -0.0000247078
	             0.0016499947        0.0011494605       -0.0030397279
	            -0.0000239946        0.0000014595       -0.0000105428
	            -0.0000132679       -0.0000127207       -0.0000016670
	            -0.0032585944       -0.0016306130       -0.0000795212
	             0.0000048739        0.0000006261        0.0000039881
	             0.0000077112       -0.0000039222       -0.0000141759
	             0.0000025908       -0.0000001683        0.0000124537
	             0.0021881826        0.0010272172        0.0007569358

	---Fragment 1 Intrafragment Coordinates---
	 - Coordinate -           - BOHR/RAD -       - ANG/DEG -
	 R(1,4)           =         2.084874	       1.103268
	 R(2,4)           =         2.083295	       1.102432
	 R(3,4)           =         2.085813	       1.103765
	 R(4,7)           =         2.895379	       1.532169
	 R(5,7)           =         2.088650	       1.105266
	 R(6,7)           =         2.087062	       1.104426
	 R(7,10)          =         2.913949	       1.541996
	 R(8,10)          =         2.087062	       1.104426
	 R(9,10)          =         2.088650	       1.105266
	 R(10,14)         =         2.895381	       1.532169
	 R(11,14)         =         2.083295	       1.102432
	 R(12,14)         =         2.084873	       1.103267
	 R(13,14)         =         2.085812	       1.103764
	 B(1,4,2)         =         1.878775	     107.645901
	 B(1,4,3)         =         1.874192	     107.383271
	 B(1,4,7)         =         1.935635	     110.903719
	 B(2,4,3)         =         1.873744	     107.357651
	 B(2,4,7)         =         1.947596	     111.589008
	 B(3,4,7)         =         1.950301	     111.744041
	 B(4,7,5)         =         1.921660	     110.103030
	 B(4,7,6)         =         1.890308	     108.306655
	 B(4,7,10)        =         1.983317	     113.635703
	 B(5,7,6)         =         1.846632	     105.804208
	 B(5,7,10)        =         1.909702	     109.417871
	 B(6,7,10)        =         1.907091	     109.268274
	 B(7,10,8)        =         1.907091	     109.268256
	 B(7,10,9)        =         1.909703	     109.417924
	 B(7,10,14)       =         1.983317	     113.635711
	 B(8,10,9)        =         1.846630	     105.804115
	 B(8,10,14)       =         1.890308	     108.306684
	 B(9,10,14)       =         1.921661	     110.103042
	 B(10,14,11)      =         1.947594	     111.588898
	 B(10,14,12)      =         1.935633	     110.903586
	 B(10,14,13)      =         1.950302	     111.744052
	 B(11,14,12)      =         1.878775	     107.645854
	 B(11,14,13)      =         1.873746	     107.357718
	 B(12,14,13)      =         1.874196	     107.383498
	 D(1,4,7,5)       =        -3.056765	    -175.139719
	 D(1,4,7,6)       =        -1.045268	     -59.889417
	 D(1,4,7,10)      =         1.077304	      61.724991
	 D(2,4,7,5)       =        -0.962246	     -55.132619
	 D(2,4,7,6)       =         1.049251	      60.117683
	 D(2,4,7,10)      =        -3.111362	    -178.267909
	 D(3,4,7,5)       =         1.135899	      65.082227
	 D(3,4,7,6)       =        -3.135789	    -179.667471
	 D(3,4,7,10)      =        -1.013217	     -58.053062
	 D(4,7,10,8)      =        -2.606534	    -149.343382
	 D(4,7,10,9)      =        -0.592199	     -33.930495
	 D(4,7,10,14)     =         1.563453	      89.579250
	 D(5,7,10,8)      =         1.521001	      87.146936
	 D(5,7,10,9)      =        -2.747849	    -157.440178
	 D(5,7,10,14)     =        -0.592198	     -33.930433
	 D(6,7,10,8)      =        -0.493336	     -28.266042
	 D(6,7,10,9)      =         1.520999	      87.146844
	 D(6,7,10,14)     =        -2.606534	    -149.343411
	 D(7,10,14,11)    =        -3.111361	    -178.267871
	 D(7,10,14,12)    =         1.077309	      61.725251
	 D(7,10,14,13)    =        -1.013216	     -58.053007
	 D(8,10,14,11)    =         1.049252	      60.117718
	 D(8,10,14,12)    =        -1.045263	     -59.889159
	 D(8,10,14,13)    =        -3.135788	    -179.667418
	 D(9,10,14,11)    =        -0.962244	     -55.132496
	 D(9,10,14,12)    =        -3.056759	    -175.139374
	 D(9,10,14,13)    =         1.135902	      65.082368

	Current energy   :      -158.4558643691

	Energy change for the previous step:
		Projected    :         0.0000058740
		Actual       :        -0.0000003883

	Performing BFGS update.
	Previous computed or guess Hessian on step 1.
	Steps to be used in Hessian update: 6 5
	Adding user-defined constraint: Fragment 1; Coordinate 49:
		Value =     1.563453; Fixed value    =     1.570800
		Force =     0.004776; Force constant =     0.650000
	Removing off-diagonal coupling between coordinate 49 and others.
	Taking RFO optimization step.
	Going to follow RFO solution 1.
	Using RFO vector 1.
	Norm of target step-size    0.00114
	Projected energy change by RFO approximation:        -0.0000000393

	Back-transformation to cartesian coordinates...
	Successfully converged to displaced geometry.

	--- Internal Coordinate Step in ANG or DEG, aJ/ANG or AJ/DEG ---
	 ---------------------------------------------------------------------------
	   Coordinate                Previous        Force       Change         New 
	   ----------                --------       ------       ------       ------
	    1 R(1,4)          =      1.103268    -0.000043    -0.000010     1.103257
	    2 R(2,4)          =      1.102432    -0.000014    -0.000005     1.102427
	    3 R(3,4)          =      1.103765     0.000078     0.000011     1.103776
	    4 R(4,7)          =      1.532169     0.000199     0.000050     1.532219
	    5 R(5,7)          =      1.105266    -0.000148    -0.000031     1.105235
	    6 R(6,7)          =      1.104426     0.000215     0.000033     1.104459
	    7 R(7,10)         =      1.541996    -0.000139    -0.000027     1.541969
	    8 R(8,10)         =      1.104426     0.000214     0.000033     1.104459
	    9 R(9,10)         =      1.105266    -0.000148    -0.000031     1.105235
	   10 R(10,14)        =      1.532169     0.000197     0.000049     1.532219
	   11 R(11,14)        =      1.102432    -0.000014    -0.000005     1.102427
	   12 R(12,14)        =      1.103267    -0.000041    -0.000010     1.103257
	   13 R(13,14)        =      1.103764     0.000080     0.000012     1.103776
	   14 B(1,4,2)        =    107.645901     0.000001     0.003217   107.649118
	   15 B(1,4,3)        =    107.383271     0.000000     0.000686   107.383958
	   16 B(1,4,7)        =    110.903719    -0.000002    -0.011499   110.892220
	   17 B(2,4,3)        =    107.357651    -0.000000     0.000034   107.357684
	   18 B(2,4,7)        =    111.589008     0.000001     0.002936   111.591944
	   19 B(3,4,7)        =    111.744041     0.000001     0.004860   111.748901
	   20 B(4,7,5)        =    110.103030     0.000004     0.001716   110.104745
	   21 B(4,7,6)        =    108.306655    -0.000004    -0.002889   108.303767
	   22 B(4,7,10)       =    113.635703    -0.000000    -0.001726   113.633977
	   23 B(5,7,6)        =    105.804208    -0.000000     0.001343   105.805552
	   24 B(5,7,10)       =    109.417871    -0.000000    -0.000245   109.417626
	   25 B(6,7,10)       =    109.268274     0.000000     0.002010   109.270285
	   26 B(7,10,8)       =    109.268256     0.000000     0.002039   109.270295
	   27 B(7,10,9)       =    109.417924    -0.000000    -0.000274   109.417650
	   28 B(7,10,14)      =    113.635711    -0.000000    -0.001738   113.633974
	   29 B(8,10,9)       =    105.804115    -0.000000     0.001420   105.805535
	   30 B(8,10,14)      =    108.306684    -0.000004    -0.002950   108.303734
	   31 B(9,10,14)      =    110.103042     0.000004     0.001720   110.104762
	   32 B(10,14,11)     =    111.588898     0.000001     0.003028   111.591927
	   33 B(10,14,12)     =    110.903586    -0.000002    -0.011392   110.892194
	   34 B(10,14,13)     =    111.744052     0.000001     0.004836   111.748887
	   35 B(11,14,12)     =    107.645854     0.000001     0.003253   107.649107
	   36 B(11,14,13)     =    107.357718    -0.000000     0.000002   107.357720
	   37 B(12,14,13)     =    107.383498     0.000000     0.000495   107.383993
	   38 D(1,4,7,5)      =   -175.139719     0.000000     0.013098  -175.126620
	   39 D(1,4,7,6)      =    -59.889417     0.000000     0.014005   -59.875412
	   40 D(1,4,7,10)     =     61.724991    -0.000000     0.013360    61.738351
	   41 D(2,4,7,5)      =    -55.132619     0.000000     0.011349   -55.121270
	   42 D(2,4,7,6)      =     60.117683     0.000000     0.012256    60.129938
	   43 D(2,4,7,10)     =   -178.267909    -0.000000     0.011610  -178.256299
	   44 D(3,4,7,5)      =     65.082227     0.000000     0.016778    65.099006
	   45 D(3,4,7,6)      =   -179.667471     0.000000     0.017685  -179.649785
	   46 D(3,4,7,10)     =    -58.053062    -0.000000     0.017040   -58.036023
	   47 D(4,7,10,8)     =   -149.343382     0.000001    -0.003028  -149.346409
	   48 D(4,7,10,9)     =    -33.930495     0.000001    -0.000346   -33.930841
	   49 D(4,7,10,14)    =     89.579250     0.000002     0.000450    89.579699
	   50 D(5,7,10,8)     =     87.146936    -0.000000    -0.003849    87.143087
	   51 D(5,7,10,9)     =   -157.440178    -0.000000    -0.001167  -157.441345
	   52 D(5,7,10,14)    =    -33.930433     0.000001    -0.000372   -33.930804
	   53 D(6,7,10,8)     =    -28.266042    -0.000000    -0.006439   -28.272481
	   54 D(6,7,10,9)     =     87.146844    -0.000000    -0.003757    87.143087
	   55 D(6,7,10,14)    =   -149.343411     0.000001    -0.002962  -149.346372
	   56 D(7,10,14,11)   =   -178.267871    -0.000000     0.011532  -178.256339
	   57 D(7,10,14,12)   =     61.725251    -0.000000     0.013102    61.738353
	   58 D(7,10,14,13)   =    -58.053007    -0.000000     0.016968   -58.036039
	   59 D(8,10,14,11)   =     60.117718     0.000000     0.012193    60.129910
	   60 D(8,10,14,12)   =    -59.889159     0.000000     0.013763   -59.875397
	   61 D(8,10,14,13)   =   -179.667418     0.000000     0.017629  -179.649789
	   62 D(9,10,14,11)   =    -55.132496     0.000000     0.011227   -55.121269
	   63 D(9,10,14,12)   =   -175.139374     0.000000     0.012797  -175.126577
	   64 D(9,10,14,13)   =     65.082368     0.000000     0.016663    65.099031
	 ---------------------------------------------------------------------------
	 Forces used to impose fixed constraints are not included.
	  Forces zeroed: 49 

  ==> Convergence Check <==

  Measures of convergence in internal coordinates in au.
  Criteria marked as inactive (o), active & met (*), and active & unmet ( ).
  ---------------------------------------------------------------------------------------------
   Step     Total Energy     Delta E     MAX Force     RMS Force      MAX Disp      RMS Disp   
  ---------------------------------------------------------------------------------------------
    Convergence Criteria    1.00e-06 *    3.00e-04 *             o    1.20e-03 *             o
  ---------------------------------------------------------------------------------------------
      7    -158.45586437   -3.88e-07 *    6.05e-05 *    2.39e-05 o    3.09e-04 *    1.42e-04 o  ~
  ---------------------------------------------------------------------------------------------


  **** Optimization is complete! (in 7 steps) ****

  ==> Optimization Summary <==

  Measures of convergence in internal coordinates in au.
  --------------------------------------------------------------------------------------------------------------- ~
   Step         Total Energy             Delta E       MAX Force       RMS Force        MAX Disp        RMS Disp  ~
  --------------------------------------------------------------------------------------------------------------- ~
      1    -158.446099304053   -158.446099304053      0.02356655      0.00959319      0.02935199      0.01250069  ~
      2    -158.451970239500     -0.005870935447      0.01221190      0.00520988      0.02409870      0.01250656  ~
      3    -158.454720015572     -0.002749776072      0.00403125      0.00198270      0.03868447      0.01251259  ~
      4    -158.455589283155     -0.000869267583      0.00158787      0.00061972      0.04380123      0.01252281  ~
      5    -158.455825963104     -0.000236679949      0.00072915      0.00018365      0.02746520      0.01249902  ~
      6    -158.455863980822     -0.000038017718      0.00012435      0.00004105      0.00325018      0.00121416  ~
      7    -158.455864369142     -0.000000388320      0.00012549      0.00002858      0.00030867      0.00014228  ~
  --------------------------------------------------------------------------------------------------------------- ~

	Writing optimization data to binary file.
	Final energy is   -158.4558643691423
	Final (previous) structure:
	Cartesian Geometry (in Angstrom)
	    H    -2.1587150797   0.0847528401   0.8309349289
	    H    -2.0349986669   1.7589170420   0.2377963501
	    H    -1.7608907368   0.3991450628  -0.8737711802
	    C    -1.5931692115   0.7520105112   0.1585329384
	    H     0.4345470687   1.4960936729  -0.1021839504
	    H    -0.0027117607   1.1142697460   1.5619355197
	    C    -0.1045166608   0.7594550919   0.5210231886
	    H     1.3881114198  -0.6997216048   1.1246256492
	    H    -0.1524592715  -1.4116862999   0.6492065290
	    C     0.5717719338  -0.6196398248   0.3850762579
	    H     1.6030186360  -1.8881771758  -1.0754861908
	    H     1.9434562917  -0.1491667986  -1.2483651220
	    H     0.3852790412  -0.8107633480  -1.7938095574
	    C     1.1557592540  -0.8828950323  -1.0067566027
	Saving final (previous) structure.
			--------------------------
			 OPTKING Finished Execution 
			--------------------------

    Final optimized geometry and variables:
    Molecular point group: c1
    Full point group: C1

    Geometry (in Angstrom), charge = 0, multiplicity = 1:

    H           -2.158715079747     0.084752840101     0.830934928869
    H           -2.034998666946     1.758917042028     0.237796350135
    H           -1.760890736827     0.399145062781    -0.873771180152
    C           -1.593169211533     0.752010511246     0.158532938418
    H            0.434547068735     1.496093672883    -0.102183950402
    H           -0.002711760742     1.114269746039     1.561935519729
    C           -0.104516660773     0.759455091862     0.521023188554
    H            1.388111419828    -0.699721604808     1.124625649205
    H           -0.152459271511    -1.411686299881     0.649206529020
    C            0.571771933760    -0.619639824761     0.385076257913
    H            1.603018635955    -1.888177175790    -1.075486190820
    H            1.943456291711    -0.149166798638    -1.248365121980
    H            0.385279041187    -0.810763348015    -1.793809557438
    C            1.155759254019    -0.882895032292    -1.006756602665

	Cleaning optimization helper files.

*** Psi4 exiting successfully. Buy a developer a beer!
