    -----------------------------------------------------------------------
          Psi4: An Open-Source Ab Initio Electronic Structure Package
                              Psi4 1.0.0 Driver

                          Git: Rev {master} 6a9a71b 

    J. M. Turney, A. C. Simmonett, R. M. Parrish, E. G. Hohenstein,
    F. A. Evangelista, J. T. Fermann, B. J. Mintz, L. A. Burns, J. J. Wilke,
    M. L. Abrams, N. J. Russ, M. L. Leininger, C. L. Janssen, E. T. Seidl,
    W. D. Allen, H. F. Schaefer, R. A. King, E. F. Valeev, C. D. Sherrill,
    and T. D. Crawford, WIREs Comput. Mol. Sci. 2, 556-565 (2012)
    (doi: 10.1002/wcms.93)

                         Additional Contributions by
    A. E. DePrince, U. Bozkaya, A. Yu. Sokolov, D. G. A. Smith, R. Di Remigio,
    R. M. Richard, J. F. Gonthier, H. R. McAlexander, M. Saitow, and
    B. P. Pritchard
    -----------------------------------------------------------------------


    Psi4 started on: Tue Feb 21 18:15:05 2017

    Process ID:  36321
    PSI4DATADIR: /Users/sternc1/anaconda/share/psi4
    Memory level set to 256.000 MB

  ==> Input File <==

--------------------------------------------------------------------------

memory 1000 mb

molecule butane {
  symmetry C1
  0 1 
  H      1.604   0.760   -8.260
  H      1.745   2.388   -8.880
  H      2.043   1.024   -9.930
  C      2.142   1.395   -8.932
  H      4.169   2.051   -9.210
  H      3.731   1.788   -7.539
  C      3.631   1.416   -8.537
  H      3.403   -0.709   -8.750
  H      4.882   -0.082   -9.436
  C      4.203   -0.012   -8.612
  H      5.345   -1.329   -7.357
  H      4.270   -0.267   -6.480
  H      5.748   0.360   -7.166
  C      4.948   -0.337   -7.305
  units Angstrom
}

dih_string = "4 7 10 14 230"
set optking fixed_dihedral = $dih_string

optimize('B3LYP/cc-PVDZ')
--------------------------------------------------------------------------

  Memory set to 1000.000 MiB by Python script.
gradient() will perform analytic gradient computation.

*** tstart() called on lski1497
*** at Tue Feb 21 18:15:06 2017


         ---------------------------------------------------------
                                   SCF
            by Justin Turney, Rob Parrish, and Andy Simmonett
                              RKS Reference
                        1 Threads,   1000 MiB Core
         ---------------------------------------------------------

  ==> Geometry <==

    Molecular point group: c1
    Full point group: C1

    Geometry (in Angstrom), charge = 0, multiplicity = 1:

       Center              X                  Y                   Z               Mass       
    ------------   -----------------  -----------------  -----------------  -----------------
           H         -2.120579433612     0.147467342844     0.078569732867     1.007825032070
           H         -1.979579433612     1.775467342844    -0.541430267133     1.007825032070
           H         -1.681579433612     0.411467342844    -1.591430267133     1.007825032070
           C         -1.582579433612     0.782467342844    -0.593430267133    12.000000000000
           H          0.444420566388     1.438467342844    -0.871430267133     1.007825032070
           H          0.006420566388     1.175467342844     0.799569732867     1.007825032070
           C         -0.093579433612     0.803467342844    -0.198430267133    12.000000000000
           H         -0.321579433612    -1.321532657156    -0.411430267133     1.007825032070
           H          1.157420566388    -0.694532657156    -1.097430267133     1.007825032070
           C          0.478420566388    -0.624532657156    -0.273430267133    12.000000000000
           H          1.620420566388    -1.941532657156     0.981569732867     1.007825032070
           H          0.545420566388    -0.879532657156     1.858569732867     1.007825032070
           H          2.023420566388    -0.252532657156     1.172569732867     1.007825032070
           C          1.223420566388    -0.949532657156     1.033569732867    12.000000000000

  Running in c1 symmetry.

  Rotational constants: A =      0.63090  B =      0.12931  C =      0.12653 [cm^-1]
  Rotational constants: A =  18913.88985  B =   3876.61816  C =   3793.40690 [MHz]
  Nuclear repulsion =  132.349119781003765

  Charge       = 0
  Multiplicity = 1
  Electrons    = 34
  Nalpha       = 17
  Nbeta        = 17

  ==> Algorithm <==

  SCF Algorithm Type is DF.
  DIIS enabled.
  MOM disabled.
  Fractional occupation disabled.
  Guess Type is SAD.
  Energy threshold   = 1.00e-08
  Density threshold  = 1.00e-08
  Integral threshold = 0.00e+00

  ==> Primary Basis <==

  Basis Set: CC-PVDZ
    Number of shells: 54
    Number of basis function: 106
    Number of Cartesian functions: 110
    Spherical Harmonics?: true
    Max angular momentum: 2

  ==> DFT Potential <==

   => B3LYP Composite Functional <= 

    B3LYP Hybrid-GGA Exchange-Correlation Functional (VWN1-RPA)

    P.J. Stephens et. al., J. Phys. Chem., 98, 11623-11627, 1994

    Points   =           5000
    Deriv    =              1
    GGA      =           TRUE
    Meta     =          FALSE

    X_LRC        =          FALSE
    X_Hybrid     =           TRUE
    X_Alpha      =   2.000000E-01
    X_Omega      =   0.000000E+00
    C_LRC        =          FALSE
    C_Hybrid     =          FALSE
    C_Alpha      =   0.000000E+00
    C_Omega      =   0.000000E+00

   => Exchange Functionals <=

    0.8000    B3_X
    0.2000      HF 

   => Correlation Functionals <=

    0.1900 VWN3RPA_C
    0.8100   LYP_C

   => Molecular Quadrature <=

    Radial Scheme    =       TREUTLER
    Pruning Scheme   =           FLAT
    Nuclear Scheme   =       TREUTLER

    BS radius alpha  =              1
    Pruning alpha    =              1
    Radial Points    =             75
    Spherical Points =            302
    Total Points     =         312764
    Total Blocks     =            269
    Max Points       =           4866
    Max Functions    =            106

  ==> Pre-Iterations <==

   -------------------------------------------------------
    Irrep   Nso     Nmo     Nalpha   Nbeta   Ndocc  Nsocc
   -------------------------------------------------------
     A        106     106       0       0       0       0
   -------------------------------------------------------
    Total     106     106      17      17      17       0
   -------------------------------------------------------

  ==> Integral Setup <==

  ==> DFJK: Density-Fitted J/K Matrices <==

    J tasked:                  Yes
    K tasked:                  Yes
    wK tasked:                  No
    OpenMP threads:              1
    Integrals threads:           1
    Memory (MB):               715
    Algorithm:                Core
    Integral Cache:           NONE
    Schwarz Cutoff:          1E-12
    Fitting Condition:       1E-12

   => Auxiliary Basis Set <=

  Basis Set: 
    Number of shells: 186
    Number of basis function: 510
    Number of Cartesian functions: 574
    Spherical Harmonics?: true
    Max angular momentum: 3

  Minimum eigenvalue in the overlap matrix is 4.4299932951E-03.
  Using Symmetric Orthogonalization.
  SCF Guess: Superposition of Atomic Densities via on-the-fly atomic UHF.

  ==> Iterations <==

                           Total Energy        Delta E     RMS |[F,P]|

   @DF-RKS iter   0:  -159.06104556878591   -1.59061e+02   3.40424e-02 
   @DF-RKS iter   1:  -158.30413437893327    7.56911e-01   4.63081e-03 
   @DF-RKS iter   2:  -158.26465055740857    3.94838e-02   5.37508e-03 DIIS
   @DF-RKS iter   3:  -158.44318074571243   -1.78530e-01   3.56849e-04 DIIS
   @DF-RKS iter   4:  -158.44386887084454   -6.88125e-04   1.24230e-04 DIIS
   @DF-RKS iter   5:  -158.44394594273456   -7.70719e-05   4.54004e-05 DIIS
   @DF-RKS iter   6:  -158.44395727824198   -1.13355e-05   5.05720e-06 DIIS
   @DF-RKS iter   7:  -158.44395743218374   -1.53942e-07   9.65051e-07 DIIS
   @DF-RKS iter   8:  -158.44395743830572   -6.12198e-09   1.37819e-07 DIIS
   @DF-RKS iter   9:  -158.44395743842495   -1.19229e-10   3.20816e-08 DIIS
   @DF-RKS iter  10:  -158.44395743843049   -5.54223e-12   1.15830e-08 DIIS
   @DF-RKS iter  11:  -158.44395743843114   -6.53699e-13   3.29884e-09 DIIS

  ==> Post-Iterations <==

    Orbital Energies (a.u.)
    -----------------------

    Doubly Occupied:                                                      

       1A    -10.168763     2A    -10.168581     3A    -10.164630  
       4A    -10.164555     5A     -0.794823     6A     -0.722978  
       7A     -0.631623     8A     -0.578949     9A     -0.468884  
      10A     -0.434769    11A     -0.424154    12A     -0.399617  
      13A     -0.364859    14A     -0.363061    15A     -0.330867  
      16A     -0.323929    17A     -0.309460  

    Virtual:                                                              

      18A      0.064373    19A      0.090497    20A      0.102882  
      21A      0.109658    22A      0.143427    23A      0.150324  
      24A      0.151266    25A      0.152046    26A      0.159498  
      27A      0.169665    28A      0.226325    29A      0.247451  
      30A      0.258054    31A      0.404772    32A      0.420821  
      33A      0.432476    34A      0.451322    35A      0.484710  
      36A      0.490598    37A      0.496693    38A      0.583704  
      39A      0.590345    40A      0.638098    41A      0.648307  
      42A      0.665853    43A      0.666387    44A      0.676192  
      45A      0.676433    46A      0.690519    47A      0.693814  
      48A      0.699107    49A      0.712115    50A      0.738163  
      51A      0.739481    52A      0.748648    53A      0.878935  
      54A      0.880817    55A      0.976290    56A      1.125169  
      57A      1.131392    58A      1.188784    59A      1.231085  
      60A      1.257110    61A      1.344369    62A      1.377109  
      63A      1.441172    64A      1.442411    65A      1.472734  
      66A      1.501294    67A      1.561553    68A      1.580543  
      69A      1.600825    70A      1.642309    71A      1.660937  
      72A      1.665697    73A      1.684600    74A      1.697113  
      75A      1.708443    76A      1.713597    77A      1.716242  
      78A      1.737650    79A      1.759337    80A      1.787355  
      81A      1.794844    82A      1.803696    83A      1.861333  
      84A      1.928481    85A      1.992931    86A      2.027507  
      87A      2.029852    88A      2.078195    89A      2.100655  
      90A      2.172572    91A      2.220661    92A      2.255175  
      93A      2.278715    94A      2.309462    95A      2.348763  
      96A      2.350647    97A      2.500972    98A      2.512449  
      99A      2.528241   100A      2.537883   101A      2.585159  
     102A      2.588209   103A      2.610991   104A      2.641123  
     105A      2.685924   106A      2.744801  

    Final Occupation by Irrep:
              A 
    DOCC [    17 ]

  Energy converged.

  @DF-RKS Final Energy:  -158.44395743843114

   => Energetics <=

    Nuclear Repulsion Energy =            132.3491197810037647
    One-Electron Energy =                -473.0908284031465882
    Two-Electron Energy =                 202.9793553250062530
    DFT Exchange-Correlation Energy =     -20.6816041412945602
    Empirical Dispersion Energy =           0.0000000000000000
    PCM Polarization Energy =               0.0000000000000000
    EFP Energy =                            0.0000000000000000
    Total Energy =                       -158.4439574384311413


  Saving occupied orbitals to File 180.

*** tstop() called on lski1497 at Tue Feb 21 18:17:12 2017
Module time:
	user time   =     115.50 seconds =       1.93 minutes
	system time =       1.37 seconds =       0.02 minutes
	total time  =        126 seconds =       2.10 minutes
Total time:
	user time   =     115.50 seconds =       1.93 minutes
	system time =       1.37 seconds =       0.02 minutes
	total time  =        126 seconds =       2.10 minutes


Properties will be evaluated at   0.000000,   0.000000,   0.000000 Bohr

Properties computed using the SCF density matrix

  Nuclear Dipole Moment: (a.u.)
     X:    -0.2867      Y:    -0.1325      Z:     0.3541

  Electronic Dipole Moment: (a.u.)
     X:     0.3036      Y:     0.1400      Z:    -0.3748

  Dipole Moment: (a.u.)
     X:     0.0169      Y:     0.0075      Z:    -0.0208     Total:     0.0278

  Dipole Moment: (Debye)
     X:     0.0430      Y:     0.0192      Z:    -0.0528     Total:     0.0707


*** tstart() called on lski1497
*** at Tue Feb 21 18:17:12 2017


         ------------------------------------------------------------
                                   SCF GRAD                          
                          Rob Parrish, Justin Turney,                
                       Andy Simmonett, and Alex Sokolov              
         ------------------------------------------------------------

  ==> Geometry <==

    Molecular point group: c1
    Full point group: C1

    Geometry (in Angstrom), charge = 0, multiplicity = 1:

       Center              X                  Y                   Z               Mass       
    ------------   -----------------  -----------------  -----------------  -----------------
           H         -2.120579433612     0.147467342844     0.078569732867     1.007825032070
           H         -1.979579433612     1.775467342844    -0.541430267133     1.007825032070
           H         -1.681579433612     0.411467342844    -1.591430267133     1.007825032070
           C         -1.582579433612     0.782467342844    -0.593430267133    12.000000000000
           H          0.444420566388     1.438467342844    -0.871430267133     1.007825032070
           H          0.006420566388     1.175467342844     0.799569732867     1.007825032070
           C         -0.093579433612     0.803467342844    -0.198430267133    12.000000000000
           H         -0.321579433612    -1.321532657156    -0.411430267133     1.007825032070
           H          1.157420566388    -0.694532657156    -1.097430267133     1.007825032070
           C          0.478420566388    -0.624532657156    -0.273430267133    12.000000000000
           H          1.620420566388    -1.941532657156     0.981569732867     1.007825032070
           H          0.545420566388    -0.879532657156     1.858569732867     1.007825032070
           H          2.023420566388    -0.252532657156     1.172569732867     1.007825032070
           C          1.223420566388    -0.949532657156     1.033569732867    12.000000000000

  Nuclear repulsion =  132.349119781003765

  ==> Basis Set <==

  Basis Set: CC-PVDZ
    Number of shells: 54
    Number of basis function: 106
    Number of Cartesian functions: 110
    Spherical Harmonics?: true
    Max angular momentum: 2

  ==> DFJKGrad: Density-Fitted SCF Gradients <==

    Gradient:                    1
    J tasked:                  Yes
    K tasked:                  Yes
    wK tasked:                  No
    OpenMP threads:              1
    Integrals threads:           1
    Memory (MB):               715
    Schwarz Cutoff:          0E+00
    Fitting Condition:       1E-12

   => Auxiliary Basis Set <=

  Basis Set: 
    Number of shells: 186
    Number of basis function: 510
    Number of Cartesian functions: 574
    Spherical Harmonics?: true
    Max angular momentum: 3

  ==> DFT Potential <==

   => B3LYP Composite Functional <= 

    B3LYP Hybrid-GGA Exchange-Correlation Functional (VWN1-RPA)

    P.J. Stephens et. al., J. Phys. Chem., 98, 11623-11627, 1994

    Points   =           5000
    Deriv    =              1
    GGA      =           TRUE
    Meta     =          FALSE

    X_LRC        =          FALSE
    X_Hybrid     =           TRUE
    X_Alpha      =   2.000000E-01
    X_Omega      =   0.000000E+00
    C_LRC        =          FALSE
    C_Hybrid     =          FALSE
    C_Alpha      =   0.000000E+00
    C_Omega      =   0.000000E+00

   => Exchange Functionals <=

    0.8000    B3_X
    0.2000      HF 

   => Correlation Functionals <=

    0.1900 VWN3RPA_C
    0.8100   LYP_C

   => Molecular Quadrature <=

    Radial Scheme    =       TREUTLER
    Pruning Scheme   =           FLAT
    Nuclear Scheme   =       TREUTLER

    BS radius alpha  =              1
    Pruning alpha    =              1
    Radial Points    =             75
    Spherical Points =            302
    Total Points     =         312764
    Total Blocks     =            269
    Max Points       =           4866
    Max Functions    =            106


  -Total Gradient:
     Atom            X                  Y                   Z
    ------   -----------------  -----------------  -----------------
       1        0.013998034150     0.012965414494    -0.012836945729
       2        0.012972854795    -0.019068809892     0.000466460582
       3        0.005330572984     0.007788995798     0.021255792857
       4       -0.029301247890    -0.010279336483    -0.008553353725
       5       -0.011456006999    -0.016701693147     0.010692689289
       6       -0.002795947493    -0.010937253023    -0.019839602042
       7        0.023764563879     0.027125261734     0.015675863893
       8        0.014816962486     0.016482602554     0.004950798734
       9       -0.012424624671     0.005570628132     0.018684050696
      10       -0.010513275981    -0.021193635135    -0.030870208158
      11       -0.010653585649     0.020920216688    -0.003600247264
      12        0.012186422871    -0.000665953389    -0.019138813577
      13       -0.017580596852    -0.013248026872    -0.005558827350
      14        0.011661802612     0.001244235242     0.028665871230


*** tstop() called on lski1497 at Tue Feb 21 18:17:53 2017
Module time:
	user time   =      37.01 seconds =       0.62 minutes
	system time =       0.56 seconds =       0.01 minutes
	total time  =         41 seconds =       0.68 minutes
Total time:
	user time   =     152.53 seconds =       2.54 minutes
	system time =       1.93 seconds =       0.03 minutes
	total time  =        167 seconds =       2.78 minutes

			-----------------------------------------
			 OPTKING 2.0: for geometry optimizations 
			  - R.A. King,  Bethel University        
			-----------------------------------------

	Internal coordinates to be generated automatically.
	Detected frag 1 with atoms:  1 2 3 4 5 6 7 8 9 10 11 12 13 14
	---Fragment 1 Bond Connectivity---
	 1 : 4
	 2 : 4
	 3 : 4
	 4 : 1 2 3 7
	 5 : 7
	 6 : 7
	 7 : 4 5 6 10
	 8 : 10
	 9 : 10
	 10 : 7 8 9 14
	 11 : 14
	 12 : 14
	 13 : 14
	 14 : 10 11 12 13

	Assuming in current code that numbering for constraints corresponds to unified fragment.
	Fixed dihedral atom list: 
	     4     7    10    14
	---Fragment 1 Geometry and Gradient---
	 H          -4.0073143726        0.2786728915        0.1484752775
	 H          -3.7408629878        3.3551470359       -1.0231549249
	 H          -3.1777246002        0.7775605906       -3.0073673645
	 C          -2.9906417131        1.4786489859       -1.1214206838
	 H           0.8398331583        2.7183093291       -1.6467645488
	 H           0.0121331121        2.2213113561        1.5109678193
	 C          -0.1768395012        1.5183332347       -0.3749788614
	 H          -0.6076970595       -2.4973347977       -0.7774905277
	 H           2.1872078910       -1.3124765124       -2.0738426548
	 C           0.9040838468       -1.1801956831       -0.5167083213
	 H           3.0621510906       -3.6689650001        1.8548979754
	 H           1.0306954977       -1.6620758470        3.5121877940
	 H           3.8237107221       -0.4772175616        2.2158356668
	 C           2.3119298158       -1.7943566763        1.9531637344
	             0.0139980341        0.0129654145       -0.0128369457
	             0.0129728548       -0.0190688099        0.0004664606
	             0.0053305730        0.0077889958        0.0212557929
	            -0.0293012479       -0.0102793365       -0.0085533537
	            -0.0114560070       -0.0167016931        0.0106926893
	            -0.0027959475       -0.0109372530       -0.0198396020
	             0.0237645639        0.0271252617        0.0156758639
	             0.0148169625        0.0164826026        0.0049507987
	            -0.0124246247        0.0055706281        0.0186840507
	            -0.0105132760       -0.0211936351       -0.0308702082
	            -0.0106535856        0.0209202167       -0.0036002473
	             0.0121864229       -0.0006659534       -0.0191388136
	            -0.0175805969       -0.0132480269       -0.0055588274
	             0.0116618026        0.0012442352        0.0286658712

	Previous optimization step data not found.  Starting new optimization.

	---Fragment 1 Intrafragment Coordinates---
	 - Coordinate -           - BOHR/RAD -       - ANG/DEG -
	 R(1,4)           =         2.021436	       1.069698
	 R(2,4)           =         2.023298	       1.070683
	 R(3,4)           =         2.020723	       1.069320
	 R(4,7)           =         2.911397	       1.540645
	 R(5,7)           =         2.022623	       1.070326
	 R(6,7)           =         2.021555	       1.069761
	 R(7,10)          =         2.910419	       1.540128
	 R(8,10)          =         2.021965	       1.069978
	 R(9,10)          =         2.022022	       1.070008
	 R(10,14)         =         2.908521	       1.539123
	 R(11,14)         =         2.021545	       1.069756
	 R(12,14)         =         2.022280	       1.070144
	 R(13,14)         =         2.022210	       1.070107
	 B(1,4,2)         =         1.910870	     109.484805
	 B(1,4,3)         =         1.911121	     109.499161
	 B(1,4,7)         =         1.910399	     109.457783
	 B(2,4,3)         =         1.910042	     109.437340
	 B(2,4,7)         =         1.910564	     109.467262
	 B(3,4,7)         =         1.910803	     109.480971
	 B(4,7,5)         =         1.909937	     109.431343
	 B(4,7,6)         =         1.911630	     109.528316
	 B(4,7,10)        =         1.911154	     109.501062
	 B(5,7,6)         =         1.910605	     109.469614
	 B(5,7,10)        =         1.910047	     109.437654
	 B(6,7,10)        =         1.910425	     109.459295
	 B(7,10,8)        =         1.909839	     109.425686
	 B(7,10,9)        =         1.911169	     109.501896
	 B(7,10,14)       =         1.911558	     109.524208
	 B(8,10,9)        =         1.909771	     109.421845
	 B(8,10,14)       =         1.911212	     109.504379
	 B(9,10,14)       =         1.910250	     109.449271
	 B(10,14,11)      =         1.911518	     109.521891
	 B(10,14,12)      =         1.911527	     109.522409
	 B(10,14,13)      =         1.912011	     109.550166
	 B(11,14,12)      =         1.910548	     109.466356
	 B(11,14,13)      =         1.910140	     109.442955
	 B(12,14,13)      =         1.908052	     109.323327
	 D(1,4,7,5)       =         3.140997	     179.965873
	 D(1,4,7,6)       =        -1.047644	     -60.025575
	 D(1,4,7,10)      =         1.047427	      60.013132
	 D(2,4,7,5)       =        -1.047689	     -60.028143
	 D(2,4,7,6)       =         1.046856	      59.980409
	 D(2,4,7,10)      =        -3.141259	    -179.980883
	 D(3,4,7,5)       =         1.046044	      59.933911
	 D(3,4,7,6)       =         3.140588	     179.942463
	 D(3,4,7,10)      =        -1.047526	     -60.018830
	 D(4,7,10,8)      =        -0.173770	      -9.956260
	 D(4,7,10,9)      =         1.919411	     109.974175
	 D(4,7,10,14)     =        -2.268953	    -130.001416
	 D(5,7,10,8)      =        -2.267272	    -129.905136
	 D(5,7,10,9)      =        -0.174091	      -9.974701
	 D(5,7,10,14)     =         1.920730	     110.049708
	 D(6,7,10,8)      =         1.922038	     110.124666
	 D(6,7,10,9)      =        -2.267966	    -129.944899
	 D(6,7,10,14)     =        -0.173145	      -9.920491
	 D(7,10,14,11)    =         3.141255	     179.980640
	 D(7,10,14,12)    =         1.045873	      59.924102
	 D(7,10,14,13)    =        -1.046752	     -59.974453
	 D(8,10,14,11)    =         1.046912	      59.983615
	 D(8,10,14,12)    =        -1.048470	     -60.072922
	 D(8,10,14,13)    =        -3.141095	    -179.971478
	 D(9,10,14,11)    =        -1.046548	     -59.962771
	 D(9,10,14,12)    =         3.141256	     179.980692
	 D(9,10,14,13)    =         1.048631	      60.082137

	Current energy   :      -158.4439574384

	Generating empirical Hessian (Schlegel '84) for each fragment.
	Adding user-defined constraint: Fragment 1; Coordinate 49:
		Value =    -2.268953; Fixed value    =    -2.268928
		Force =     0.000012; Force constant =     0.500000
	Removing off-diagonal coupling between coordinate 49 and others.
	Taking RFO optimization step.
	Going to follow RFO solution 1.
	Using RFO vector 1.

	Determining step-restricting scale parameter for RS-RFO.
	Maximum step size allowed    0.10000

	 Iter      |step|        alpha        rfo_root  
	------------------------------------------------
	    0     0.26662       1.00000           1
	    1     0.19445       6.19012           1
	    2     0.14371      19.44647           1
	    3     0.11460      39.00147           1
	    4     0.10252      53.30861           1
	    5     0.10010      56.89097           1
	    6     0.10000      57.04184           1
	------------------------------------------------
	Norm of target step-size    0.10000
	Projected energy change by RFO approximation:        -0.0076013310

	Back-transformation to cartesian coordinates...
	Successfully converged to displaced geometry.

	--- Internal Coordinate Step in ANG or DEG, aJ/ANG or AJ/DEG ---
	 ---------------------------------------------------------------------------
	   Coordinate                Previous        Force       Change         New 
	   ----------                --------       ------       ------       ------
	    1 R(1,4)          =      1.069698     0.187850     0.014863     1.084560
	    2 R(2,4)          =      1.070683     0.185143     0.014671     1.085354
	    3 R(3,4)          =      1.069320     0.189779     0.015006     1.084327
	    4 R(4,7)          =      1.540645     0.023625     0.002097     1.542742
	    5 R(5,7)          =      1.070326     0.184473     0.014610     1.084936
	    6 R(6,7)          =      1.069761     0.185972     0.014715     1.084476
	    7 R(7,10)         =      1.540128     0.105087     0.009320     1.549448
	    8 R(8,10)         =      1.069978     0.184986     0.014642     1.084620
	    9 R(9,10)         =      1.070008     0.186506     0.014763     1.084771
	   10 R(10,14)        =      1.539123     0.029271     0.002593     1.541716
	   11 R(11,14)        =      1.069756     0.190955     0.015110     1.084865
	   12 R(12,14)        =      1.070144     0.185524     0.014689     1.084833
	   13 R(13,14)        =      1.070107     0.185330     0.014673     1.084780
	   14 B(1,4,2)        =    109.484805    -0.000315    -0.396658   109.088147
	   15 B(1,4,3)        =    109.499161    -0.000240    -0.309890   109.189271
	   16 B(1,4,7)        =    109.457783     0.000183     0.227321   109.685104
	   17 B(2,4,3)        =    109.437340    -0.000323    -0.403399   109.033941
	   18 B(2,4,7)        =    109.467262     0.000483     0.612215   110.079477
	   19 B(3,4,7)        =    109.480971     0.000212     0.263138   109.744109
	   20 B(4,7,5)        =    109.431343    -0.000302    -0.342178   109.089165
	   21 B(4,7,6)        =    109.528316    -0.000276    -0.323531   109.204785
	   22 B(4,7,10)       =    109.501062     0.000947     1.114964   110.616026
	   23 B(5,7,6)        =    109.469614    -0.000009    -0.110370   109.359243
	   24 B(5,7,10)       =    109.437654    -0.000155    -0.139928   109.297726
	   25 B(6,7,10)       =    109.459295    -0.000204    -0.203885   109.255410
	   26 B(7,10,8)       =    109.425686    -0.000201    -0.200153   109.225534
	   27 B(7,10,9)       =    109.501896    -0.000163    -0.151497   109.350399
	   28 B(7,10,14)      =    109.524208     0.000947     1.115407   110.639616
	   29 B(8,10,9)       =    109.421845    -0.000007    -0.107522   109.314323
	   30 B(8,10,14)      =    109.504379    -0.000276    -0.322118   109.182261
	   31 B(9,10,14)      =    109.449271    -0.000301    -0.339979   109.109291
	   32 B(10,14,11)     =    109.521891     0.000481     0.608922   110.130813
	   33 B(10,14,12)     =    109.522409     0.000171     0.213318   109.735726
	   34 B(10,14,13)     =    109.550166     0.000201     0.249788   109.799954
	   35 B(11,14,12)     =    109.466356    -0.000311    -0.391589   109.074767
	   36 B(11,14,13)     =    109.442955    -0.000321    -0.401847   109.041109
	   37 B(12,14,13)     =    109.323327    -0.000223    -0.288346   109.034981
	   38 D(1,4,7,5)      =    179.965873     0.000039     0.247697   180.213570
	   39 D(1,4,7,6)      =    -60.025575    -0.000045    -0.288912   -60.314487
	   40 D(1,4,7,10)     =     60.013132    -0.000008    -0.052852    59.960281
	   41 D(2,4,7,5)      =    -60.028143     0.000044     0.279662   -59.748480
	   42 D(2,4,7,6)      =     59.980409    -0.000040    -0.256946    59.723463
	   43 D(2,4,7,10)     =   -179.980883    -0.000003    -0.020886  -180.001769
	   44 D(3,4,7,5)      =     59.933911     0.000050     0.325764    60.259675
	   45 D(3,4,7,6)      =    179.942463    -0.000033    -0.210845   179.731618
	   46 D(3,4,7,10)     =    -60.018830     0.000004     0.025215   -59.993614
	   47 D(4,7,10,8)     =     -9.956260     0.000019     0.128164    -9.828096
	   48 D(4,7,10,9)     =    109.974175    -0.000034    -0.216323   109.757852
	   49 D(4,7,10,14)    =   -130.001416    -0.000008    -0.038927  -130.040343
	   50 D(5,7,10,8)     =   -129.905136    -0.000007    -0.051461  -129.956597
	   51 D(5,7,10,9)     =     -9.974701    -0.000060    -0.395948   -10.370649
	   52 D(5,7,10,14)    =    110.049708    -0.000034    -0.218552   109.831156
	   53 D(6,7,10,8)     =    110.124666     0.000046     0.291737   110.416402
	   54 D(6,7,10,9)     =   -129.944899    -0.000007    -0.052750  -129.997650
	   55 D(6,7,10,14)    =     -9.920491     0.000019     0.124646    -9.795845
	   56 D(7,10,14,11)   =    179.980640    -0.000002    -0.014319   179.966321
	   57 D(7,10,14,12)   =     59.924102    -0.000007    -0.043239    59.880863
	   58 D(7,10,14,13)   =    -59.974453     0.000004     0.025202   -59.949251
	   59 D(8,10,14,11)   =     59.983615    -0.000040    -0.255412    59.728203
	   60 D(8,10,14,12)   =    -60.072922    -0.000045    -0.284332   -60.357254
	   61 D(8,10,14,13)   =   -179.971478    -0.000034    -0.215891  -180.187369
	   62 D(9,10,14,11)   =    -59.962771     0.000043     0.274973   -59.687797
	   63 D(9,10,14,12)   =    179.980692     0.000038     0.246053   180.226745
	   64 D(9,10,14,13)   =     60.082137     0.000049     0.314494    60.396630
	 ---------------------------------------------------------------------------
	 Forces used to impose fixed constraints are not included.
	  Forces zeroed: 49 

  ==> Convergence Check <==

  Measures of convergence in internal coordinates in au.
  Criteria marked as inactive (o), active & met (*), and active & unmet ( ).
  --------------------------------------------------------------------------------------------- ~
   Step     Total Energy     Delta E     MAX Force     RMS Force      MAX Disp      RMS Disp    ~
  --------------------------------------------------------------------------------------------- ~
    Convergence Criteria    1.00e-06 *    3.00e-04 *             o    1.20e-03 *             o  ~
  --------------------------------------------------------------------------------------------- ~
      1    -158.44395744   -1.58e+02      2.32e-02      9.68e-03 o    2.86e-02      1.25e-02 o  ~
  ---------------------------------------------------------------------------------------------

	Writing optimization data to binary file.
	Structure for next step:
	Cartesian Geometry (in Angstrom)
	    H    -2.1508061139   0.1461195213   0.0733093693
	    H    -2.0080799761   1.7869521596  -0.5681403576
	    H    -1.7006852015   0.3991644728  -1.6173958801
	    C    -1.5977687618   0.7829556973  -0.6084970940
	    H     0.4349732560   1.4453225854  -0.8933618367
	    H    -0.0148478976   1.1925212009   0.7998541338
	    C    -0.1080581229   0.8030893691  -0.2079866753
	    H    -0.3104611358  -1.3431500703  -0.3994423663
	    H     1.1819055917  -0.6941005789  -1.0944279090
	    C     0.4905763373  -0.6250485006  -0.2613466312
	    H     1.6563669396  -1.9500692937   0.9997400197
	    H     0.5578484509  -0.8865337334   1.8858375908
	    H     2.0475666099  -0.2379029483   1.1921174063
	    C     1.2413579537  -0.9487770814   1.0457164905
			--------------------------
			 OPTKING Finished Execution 
			--------------------------

    Structure for next step:
    Molecular point group: c1
    Full point group: C1

    Geometry (in Angstrom), charge = 0, multiplicity = 1:

    H           -2.150886578088     0.146053257208     0.073383720400
    H           -2.008160440344     1.786885895455    -0.568066006524
    H           -1.700765665735     0.399098208636    -1.617321528958
    C           -1.597849226031     0.782889433230    -0.608422742927
    H            0.434892791814     1.445256321240    -0.893287485561
    H           -0.014928361860     1.192454936821     0.799928484896
    C           -0.108138587155     0.803023104988    -0.207912324192
    H           -0.310541599972    -1.343216334369    -0.399368015131
    H            1.181825127485    -0.694166843064    -1.094353557913
    C            0.490495873053    -0.625114764711    -0.261272280078
    H            1.656286475384    -1.950135557769     0.999814370858
    H            0.557767986681    -0.886599997466     1.885911941940
    H            2.047486145692    -0.237969212458     1.192191757424
    C            1.241277489509    -0.948843345544     1.045790841603

gradient() will perform analytic gradient computation.

*** tstart() called on lski1497
*** at Tue Feb 21 18:17:54 2017


         ---------------------------------------------------------
                                   SCF
            by Justin Turney, Rob Parrish, and Andy Simmonett
                              RKS Reference
                        1 Threads,   1000 MiB Core
         ---------------------------------------------------------

  ==> Geometry <==

    Molecular point group: c1
    Full point group: C1

    Geometry (in Angstrom), charge = 0, multiplicity = 1:

       Center              X                  Y                   Z               Mass       
    ------------   -----------------  -----------------  -----------------  -----------------
           H         -2.150886578088     0.146053257208     0.073383720400     1.007825032070
           H         -2.008160440344     1.786885895455    -0.568066006524     1.007825032070
           H         -1.700765665735     0.399098208636    -1.617321528958     1.007825032070
           C         -1.597849226031     0.782889433230    -0.608422742927    12.000000000000
           H          0.434892791814     1.445256321240    -0.893287485561     1.007825032070
           H         -0.014928361860     1.192454936821     0.799928484896     1.007825032070
           C         -0.108138587155     0.803023104988    -0.207912324192    12.000000000000
           H         -0.310541599972    -1.343216334369    -0.399368015131     1.007825032070
           H          1.181825127485    -0.694166843064    -1.094353557913     1.007825032070
           C          0.490495873053    -0.625114764711    -0.261272280078    12.000000000000
           H          1.656286475384    -1.950135557769     0.999814370858     1.007825032070
           H          0.557767986681    -0.886599997466     1.885911941940     1.007825032070
           H          2.047486145692    -0.237969212458     1.192191757424     1.007825032070
           C          1.241277489509    -0.948843345544     1.045790841603    12.000000000000

  Running in c1 symmetry.

  Rotational constants: A =      0.62912  B =      0.12651  C =      0.12396 [cm^-1]
  Rotational constants: A =  18860.67985  B =   3792.77067  C =   3716.25040 [MHz]
  Nuclear repulsion =  131.183195167348316

  Charge       = 0
  Multiplicity = 1
  Electrons    = 34
  Nalpha       = 17
  Nbeta        = 17

  ==> Algorithm <==

  SCF Algorithm Type is DF.
  DIIS enabled.
  MOM disabled.
  Fractional occupation disabled.
  Guess Type is READ.
  Energy threshold   = 1.00e-08
  Density threshold  = 1.00e-08
  Integral threshold = 0.00e+00

  ==> Primary Basis <==

  Basis Set: CC-PVDZ
    Number of shells: 54
    Number of basis function: 106
    Number of Cartesian functions: 110
    Spherical Harmonics?: true
    Max angular momentum: 2

  ==> DFT Potential <==

   => B3LYP Composite Functional <= 

    B3LYP Hybrid-GGA Exchange-Correlation Functional (VWN1-RPA)

    P.J. Stephens et. al., J. Phys. Chem., 98, 11623-11627, 1994

    Points   =           5000
    Deriv    =              1
    GGA      =           TRUE
    Meta     =          FALSE

    X_LRC        =          FALSE
    X_Hybrid     =           TRUE
    X_Alpha      =   2.000000E-01
    X_Omega      =   0.000000E+00
    C_LRC        =          FALSE
    C_Hybrid     =          FALSE
    C_Alpha      =   0.000000E+00
    C_Omega      =   0.000000E+00

   => Exchange Functionals <=

    0.8000    B3_X
    0.2000      HF 

   => Correlation Functionals <=

    0.1900 VWN3RPA_C
    0.8100   LYP_C

   => Molecular Quadrature <=

    Radial Scheme    =       TREUTLER
    Pruning Scheme   =           FLAT
    Nuclear Scheme   =       TREUTLER

    BS radius alpha  =              1
    Pruning alpha    =              1
    Radial Points    =             75
    Spherical Points =            302
    Total Points     =         312788
    Total Blocks     =            270
    Max Points       =           4980
    Max Functions    =            106

  ==> Pre-Iterations <==

   -------------------------------------------------------
    Irrep   Nso     Nmo     Nalpha   Nbeta   Ndocc  Nsocc
   -------------------------------------------------------
     A        106     106       0       0       0       0
   -------------------------------------------------------
    Total     106     106      17      17      17       0
   -------------------------------------------------------

  ==> Integral Setup <==

  ==> DFJK: Density-Fitted J/K Matrices <==

    J tasked:                  Yes
    K tasked:                  Yes
    wK tasked:                  No
    OpenMP threads:              1
    Integrals threads:           1
    Memory (MB):               715
    Algorithm:                Core
    Integral Cache:           NONE
    Schwarz Cutoff:          1E-12
    Fitting Condition:       1E-12

   => Auxiliary Basis Set <=

  Basis Set: 
    Number of shells: 186
    Number of basis function: 510
    Number of Cartesian functions: 574
    Spherical Harmonics?: true
    Max angular momentum: 3

  Minimum eigenvalue in the overlap matrix is 4.5263008849E-03.
  Using Symmetric Orthogonalization.
  SCF Guess was Projection but file not found.
  Switching over to SAD guess.

  SCF Guess: Superposition of Atomic Densities via on-the-fly atomic UHF.

  ==> Iterations <==

                           Total Energy        Delta E     RMS |[F,P]|

   @DF-RKS iter   0:  -158.98878751750755   -1.58989e+02   3.31913e-02 
   @DF-RKS iter   1:  -158.31740013499362    6.71387e-01   4.48824e-03 
   @DF-RKS iter   2:  -158.27624287646793    4.11573e-02   5.26863e-03 DIIS
   @DF-RKS iter   3:  -158.44913581707905   -1.72893e-01   3.49062e-04 DIIS
   @DF-RKS iter   4:  -158.44980455518569   -6.68738e-04   1.19989e-04 DIIS
   @DF-RKS iter   5:  -158.44987605572410   -7.15005e-05   4.58299e-05 DIIS
   @DF-RKS iter   6:  -158.44988766458692   -1.16089e-05   5.02300e-06 DIIS
   @DF-RKS iter   7:  -158.44988781712982   -1.52543e-07   9.57560e-07 DIIS
   @DF-RKS iter   8:  -158.44988782321693   -6.08711e-09   1.40999e-07 DIIS
   @DF-RKS iter   9:  -158.44988782334448   -1.27557e-10   3.19582e-08 DIIS
   @DF-RKS iter  10:  -158.44988782334963   -5.14433e-12   1.14611e-08 DIIS
   @DF-RKS iter  11:  -158.44988782335099   -1.36424e-12   3.48585e-09 DIIS

  ==> Post-Iterations <==

    Orbital Energies (a.u.)
    -----------------------

    Doubly Occupied:                                                      

       1A    -10.173851     2A    -10.173691     3A    -10.169977  
       4A    -10.169927     5A     -0.790820     6A     -0.720525  
       7A     -0.628758     8A     -0.574755     9A     -0.465244  
      10A     -0.432468    11A     -0.421377    12A     -0.398099  
      13A     -0.362877    14A     -0.361010    15A     -0.328212  
      16A     -0.322154    17A     -0.312524  

    Virtual:                                                              

      18A      0.062312    19A      0.087955    20A      0.100462  
      21A      0.107405    22A      0.140612    23A      0.147329  
      24A      0.148088    25A      0.148842    26A      0.155114  
      27A      0.165578    28A      0.222951    29A      0.246688  
      30A      0.257270    31A      0.403110    32A      0.418657  
      33A      0.428632    34A      0.446501    35A      0.484907  
      36A      0.490801    37A      0.496371    38A      0.580885  
      39A      0.584980    40A      0.630618    41A      0.641803  
      42A      0.657781    43A      0.659009    44A      0.670363  
      45A      0.672427    46A      0.682730    47A      0.686142  
      48A      0.692704    49A      0.704296    50A      0.727641  
      51A      0.730751    52A      0.742027    53A      0.875671  
      54A      0.880393    55A      0.972919    56A      1.118114  
      57A      1.131100    58A      1.187225    59A      1.218542  
      60A      1.250581    61A      1.333695    62A      1.368316  
      63A      1.431610    64A      1.432904    65A      1.468177  
      66A      1.487775    67A      1.550405    68A      1.576954  
      69A      1.588598    70A      1.633451    71A      1.650666  
      72A      1.656375    73A      1.674548    74A      1.683880  
      75A      1.691679    76A      1.701181    77A      1.708057  
      78A      1.726484    79A      1.749717    80A      1.774220  
      81A      1.780513    82A      1.788942    83A      1.854462  
      84A      1.910059    85A      1.971664    86A      2.018172  
      87A      2.023059    88A      2.060933    89A      2.088038  
      90A      2.147995    91A      2.196729    92A      2.231387  
      93A      2.254691    94A      2.289373    95A      2.316925  
      96A      2.322174    97A      2.457822    98A      2.469032  
      99A      2.494832   100A      2.509478   101A      2.557362  
     102A      2.559303   103A      2.578361   104A      2.610821  
     105A      2.654746   106A      2.714736  

    Final Occupation by Irrep:
              A 
    DOCC [    17 ]

  Energy converged.

  @DF-RKS Final Energy:  -158.44988782335099

   => Energetics <=

    Nuclear Repulsion Energy =            131.1831951673483161
    One-Electron Energy =                -470.8211635607985954
    Two-Electron Energy =                 201.8208323009149012
    DFT Exchange-Correlation Energy =     -20.6327517308156487
    Empirical Dispersion Energy =           0.0000000000000000
    PCM Polarization Energy =               0.0000000000000000
    EFP Energy =                            0.0000000000000000
    Total Energy =                       -158.4498878233509913


  Saving occupied orbitals to File 180.

*** tstop() called on lski1497 at Tue Feb 21 18:20:04 2017
Module time:
	user time   =     116.91 seconds =       1.95 minutes
	system time =       1.56 seconds =       0.03 minutes
	total time  =        130 seconds =       2.17 minutes
Total time:
	user time   =     270.09 seconds =       4.50 minutes
	system time =       3.52 seconds =       0.06 minutes
	total time  =        298 seconds =       4.97 minutes


Properties will be evaluated at   0.000000,   0.000000,   0.000000 Bohr

Properties computed using the SCF density matrix

  Nuclear Dipole Moment: (a.u.)
     X:    -0.2878      Y:    -0.1334      Z:     0.3551

  Electronic Dipole Moment: (a.u.)
     X:     0.3033      Y:     0.1406      Z:    -0.3743

  Dipole Moment: (a.u.)
     X:     0.0155      Y:     0.0071      Z:    -0.0191     Total:     0.0256

  Dipole Moment: (Debye)
     X:     0.0394      Y:     0.0181      Z:    -0.0486     Total:     0.0651


*** tstart() called on lski1497
*** at Tue Feb 21 18:20:04 2017


         ------------------------------------------------------------
                                   SCF GRAD                          
                          Rob Parrish, Justin Turney,                
                       Andy Simmonett, and Alex Sokolov              
         ------------------------------------------------------------

  ==> Geometry <==

    Molecular point group: c1
    Full point group: C1

    Geometry (in Angstrom), charge = 0, multiplicity = 1:

       Center              X                  Y                   Z               Mass       
    ------------   -----------------  -----------------  -----------------  -----------------
           H         -2.150886578088     0.146053257208     0.073383720400     1.007825032070
           H         -2.008160440344     1.786885895455    -0.568066006524     1.007825032070
           H         -1.700765665735     0.399098208636    -1.617321528958     1.007825032070
           C         -1.597849226031     0.782889433230    -0.608422742927    12.000000000000
           H          0.434892791814     1.445256321240    -0.893287485561     1.007825032070
           H         -0.014928361860     1.192454936821     0.799928484896     1.007825032070
           C         -0.108138587155     0.803023104988    -0.207912324192    12.000000000000
           H         -0.310541599972    -1.343216334369    -0.399368015131     1.007825032070
           H          1.181825127485    -0.694166843064    -1.094353557913     1.007825032070
           C          0.490495873053    -0.625114764711    -0.261272280078    12.000000000000
           H          1.656286475384    -1.950135557769     0.999814370858     1.007825032070
           H          0.557767986681    -0.886599997466     1.885911941940     1.007825032070
           H          2.047486145692    -0.237969212458     1.192191757424     1.007825032070
           C          1.241277489509    -0.948843345544     1.045790841603    12.000000000000

  Nuclear repulsion =  131.183195167348316

  ==> Basis Set <==

  Basis Set: CC-PVDZ
    Number of shells: 54
    Number of basis function: 106
    Number of Cartesian functions: 110
    Spherical Harmonics?: true
    Max angular momentum: 2

  ==> DFJKGrad: Density-Fitted SCF Gradients <==

    Gradient:                    1
    J tasked:                  Yes
    K tasked:                  Yes
    wK tasked:                  No
    OpenMP threads:              1
    Integrals threads:           1
    Memory (MB):               715
    Schwarz Cutoff:          0E+00
    Fitting Condition:       1E-12

   => Auxiliary Basis Set <=

  Basis Set: 
    Number of shells: 186
    Number of basis function: 510
    Number of Cartesian functions: 574
    Spherical Harmonics?: true
    Max angular momentum: 3

  ==> DFT Potential <==

   => B3LYP Composite Functional <= 

    B3LYP Hybrid-GGA Exchange-Correlation Functional (VWN1-RPA)

    P.J. Stephens et. al., J. Phys. Chem., 98, 11623-11627, 1994

    Points   =           5000
    Deriv    =              1
    GGA      =           TRUE
    Meta     =          FALSE

    X_LRC        =          FALSE
    X_Hybrid     =           TRUE
    X_Alpha      =   2.000000E-01
    X_Omega      =   0.000000E+00
    C_LRC        =          FALSE
    C_Hybrid     =          FALSE
    C_Alpha      =   0.000000E+00
    C_Omega      =   0.000000E+00

   => Exchange Functionals <=

    0.8000    B3_X
    0.2000      HF 

   => Correlation Functionals <=

    0.1900 VWN3RPA_C
    0.8100   LYP_C

   => Molecular Quadrature <=

    Radial Scheme    =       TREUTLER
    Pruning Scheme   =           FLAT
    Nuclear Scheme   =       TREUTLER

    BS radius alpha  =              1
    Pruning alpha    =              1
    Radial Points    =             75
    Spherical Points =            302
    Total Points     =         312788
    Total Blocks     =            270
    Max Points       =           4980
    Max Functions    =            106


  -Total Gradient:
     Atom            X                  Y                   Z
    ------   -----------------  -----------------  -----------------
       1        0.008352456828     0.006668179779    -0.006134361064
       2        0.007638663803    -0.009388013526     0.000693307990
       3        0.003964373312     0.004237207783     0.011022126853
       4       -0.020157401512    -0.007004859513    -0.005677609350
       5       -0.006493070148    -0.010212952482     0.003810889296
       6       -0.002160542113    -0.007382216984    -0.009960275277
       7        0.016064425828     0.019798262046     0.010964203163
       8        0.006992523875     0.009606805488     0.003957103309
       9       -0.005268786616     0.004689634079     0.010632625082
      10       -0.006964526107    -0.015656084336    -0.021429079711
      11       -0.005994897329     0.010518484359    -0.002829434989
      12        0.005591104362    -0.000105346764    -0.010793863282
      13       -0.009405909488    -0.006617864977    -0.003975007684
      14        0.007846073207     0.000850741833     0.019714490646


*** tstop() called on lski1497 at Tue Feb 21 18:20:47 2017
Module time:
	user time   =      37.42 seconds =       0.62 minutes
	system time =       0.61 seconds =       0.01 minutes
	total time  =         43 seconds =       0.72 minutes
Total time:
	user time   =     307.53 seconds =       5.13 minutes
	system time =       4.13 seconds =       0.07 minutes
	total time  =        341 seconds =       5.68 minutes

			-----------------------------------------
			 OPTKING 2.0: for geometry optimizations 
			  - R.A. King,  Bethel University        
			-----------------------------------------

	Previous internal coordinate definitions found.
	---Fragment 1 Geometry and Gradient---
	 H          -4.0645865755        0.2760006569        0.1386751342
	 H          -3.7948732631        3.3767249731       -1.0734891777
	 H          -3.2139813245        0.7541863144       -3.0562947585
	 C          -3.0194974388        1.4794466211       -1.1497523572
	 H           0.8218282737        2.7311386390       -1.6880687056
	 H          -0.0282105155        2.2534132564        1.5116457623
	 C          -0.2043523141        1.5174937468       -0.3928973524
	 H          -0.5868385768       -2.5383110092       -0.7546961748
	 H           2.2333258279       -1.3117852239       -2.0680285170
	 C           0.9269028694       -1.1812957069       -0.4937330555
	 H           3.1299278361       -3.6852221262        1.8893753446
	 H           1.0540287405       -1.6754311846        3.5638570810
	 H           3.8691880762       -0.4496966396        2.2529159194
	 C           2.3456745101       -1.7930540661        1.9762582829
	             0.0083524568        0.0066681798       -0.0061343611
	             0.0076386638       -0.0093880135        0.0006933080
	             0.0039643733        0.0042372078        0.0110221269
	            -0.0201574015       -0.0070048595       -0.0056776094
	            -0.0064930701       -0.0102129525        0.0038108893
	            -0.0021605421       -0.0073822170       -0.0099602753
	             0.0160644258        0.0197982620        0.0109642032
	             0.0069925239        0.0096068055        0.0039571033
	            -0.0052687866        0.0046896341        0.0106326251
	            -0.0069645261       -0.0156560843       -0.0214290797
	            -0.0059948973        0.0105184844       -0.0028294350
	             0.0055911044       -0.0001053468       -0.0107938633
	            -0.0094059095       -0.0066178650       -0.0039750077
	             0.0078460732        0.0008507418        0.0197144906

	---Fragment 1 Intrafragment Coordinates---
	 - Coordinate -           - BOHR/RAD -       - ANG/DEG -
	 R(1,4)           =         2.049522	       1.084560
	 R(2,4)           =         2.051021	       1.085354
	 R(3,4)           =         2.049080	       1.084327
	 R(4,7)           =         2.915359	       1.542742
	 R(5,7)           =         2.050232	       1.084936
	 R(6,7)           =         2.049363	       1.084476
	 R(7,10)          =         2.928032	       1.549448
	 R(8,10)          =         2.049635	       1.084620
	 R(9,10)          =         2.049921	       1.084771
	 R(10,14)         =         2.913420	       1.541716
	 R(11,14)         =         2.050098	       1.084865
	 R(12,14)         =         2.050038	       1.084833
	 R(13,14)         =         2.049937	       1.084780
	 B(1,4,2)         =         1.903947	     109.088147
	 B(1,4,3)         =         1.905712	     109.189271
	 B(1,4,7)         =         1.914366	     109.685104
	 B(2,4,3)         =         1.903001	     109.033941
	 B(2,4,7)         =         1.921249	     110.079477
	 B(3,4,7)         =         1.915396	     109.744109
	 B(4,7,5)         =         1.903965	     109.089165
	 B(4,7,6)         =         1.905983	     109.204785
	 B(4,7,10)        =         1.930614	     110.616026
	 B(5,7,6)         =         1.908679	     109.359243
	 B(5,7,10)        =         1.907605	     109.297726
	 B(6,7,10)        =         1.906867	     109.255410
	 B(7,10,8)        =         1.906345	     109.225534
	 B(7,10,9)        =         1.908525	     109.350399
	 B(7,10,14)       =         1.931026	     110.639616
	 B(8,10,9)        =         1.907895	     109.314323
	 B(8,10,14)       =         1.905590	     109.182261
	 B(9,10,14)       =         1.904316	     109.109291
	 B(10,14,11)      =         1.922145	     110.130813
	 B(10,14,12)      =         1.915250	     109.735726
	 B(10,14,13)      =         1.916371	     109.799954
	 B(11,14,12)      =         1.903714	     109.074767
	 B(11,14,13)      =         1.903126	     109.041109
	 B(12,14,13)      =         1.903019	     109.034981
	 D(1,4,7,5)       =        -3.137865	    -179.786430
	 D(1,4,7,6)       =        -1.052686	     -60.314487
	 D(1,4,7,10)      =         1.046504	      59.960281
	 D(2,4,7,5)       =        -1.042808	     -59.748480
	 D(2,4,7,6)       =         1.042371	      59.723463
	 D(2,4,7,10)      =         3.141562	     179.998231
	 D(3,4,7,5)       =         1.051730	      60.259675
	 D(3,4,7,6)       =         3.136909	     179.731618
	 D(3,4,7,10)      =        -1.047086	     -59.993614
	 D(4,7,10,8)      =        -0.171533	      -9.828096
	 D(4,7,10,9)      =         1.915636	     109.757852
	 D(4,7,10,14)     =        -2.269632	    -130.040343
	 D(5,7,10,8)      =        -2.268171	    -129.956597
	 D(5,7,10,9)      =        -0.181002	     -10.370649
	 D(5,7,10,14)     =         1.916915	     109.831156
	 D(6,7,10,8)      =         1.927130	     110.416402
	 D(6,7,10,9)      =        -2.268887	    -129.997650
	 D(6,7,10,14)     =        -0.170970	      -9.795845
	 D(7,10,14,11)    =         3.141005	     179.966321
	 D(7,10,14,12)    =         1.045118	      59.880863
	 D(7,10,14,13)    =        -1.046312	     -59.949251
	 D(8,10,14,11)    =         1.042454	      59.728203
	 D(8,10,14,12)    =        -1.053433	     -60.357254
	 D(8,10,14,13)    =         3.138322	     179.812631
	 D(9,10,14,11)    =        -1.041749	     -59.687797
	 D(9,10,14,12)    =        -3.137635	    -179.773255
	 D(9,10,14,13)    =         1.054120	      60.396630

	Current energy   :      -158.4498878234

	Energy change for the previous step:
		Projected    :        -0.0076013310
		Actual       :        -0.0059303849

	Performing BFGS update.
	Previous computed or guess Hessian on step 1.
	Steps to be used in Hessian update: 1
	Adding user-defined constraint: Fragment 1; Coordinate 49:
		Value =    -2.269632; Fixed value    =    -2.268930
		Force =     0.000369; Force constant =     0.525000
	Removing off-diagonal coupling between coordinate 49 and others.
	Taking RFO optimization step.
	Going to follow RFO solution 1.
	Using RFO vector 1.

	Determining step-restricting scale parameter for RS-RFO.
	Maximum step size allowed    0.10000

	 Iter      |step|        alpha        rfo_root  
	------------------------------------------------
	    0     0.20789       1.00000           1
	    1     0.15502       6.62433           1
	    2     0.12224      17.27726           1
	    3     0.10571      28.82592           1
	    4     0.10053      34.09248           1
	    5     0.10001      34.68424           1
	------------------------------------------------
	Norm of target step-size    0.10001
	Projected energy change by RFO approximation:        -0.0032510796

	Back-transformation to cartesian coordinates...
	Successfully converged to displaced geometry.

	--- Internal Coordinate Step in ANG or DEG, aJ/ANG or AJ/DEG ---
	 ---------------------------------------------------------------------------
	   Coordinate                Previous        Force       Change         New 
	   ----------                --------       ------       ------       ------
	    1 R(1,4)          =      1.084560     0.099117     0.012382     1.096943
	    2 R(2,4)          =      1.085354     0.095121     0.011623     1.096977
	    3 R(3,4)          =      1.084327     0.099955     0.012463     1.096790
	    4 R(4,7)          =      1.542742    -0.002400    -0.002468     1.540274
	    5 R(5,7)          =      1.084936     0.096421     0.011957     1.096893
	    6 R(6,7)          =      1.084476     0.099627     0.012606     1.097082
	    7 R(7,10)         =      1.549448     0.046527     0.004983     1.554431
	    8 R(8,10)         =      1.084620     0.099095     0.012542     1.097162
	    9 R(9,10)         =      1.084771     0.097402     0.012065     1.096837
	   10 R(10,14)        =      1.541716     0.001139    -0.001900     1.539816
	   11 R(11,14)        =      1.084865     0.097884     0.011925     1.096790
	   12 R(12,14)        =      1.084833     0.097939     0.012246     1.097080
	   13 R(13,14)        =      1.084780     0.097750     0.012213     1.096993
	   14 B(1,4,2)        =    109.088147    -0.000244    -0.652803   108.435344
	   15 B(1,4,3)        =    109.189271    -0.000220    -0.671579   108.517692
	   16 B(1,4,7)        =    109.685104     0.000180     0.555273   110.240376
	   17 B(2,4,3)        =    109.033941    -0.000250    -0.661305   108.372636
	   18 B(2,4,7)        =    110.079477     0.000326     0.783202   110.862679
	   19 B(3,4,7)        =    109.744109     0.000200     0.598406   110.342515
	   20 B(4,7,5)        =    109.089165    -0.000175    -0.282152   108.807014
	   21 B(4,7,6)        =    109.204785    -0.000165    -0.303215   108.901570
	   22 B(4,7,10)       =    110.616026     0.000599     1.312015   111.928041
	   23 B(5,7,6)        =    109.359243    -0.000076    -0.591390   108.767853
	   24 B(5,7,10)       =    109.297726    -0.000074    -0.020300   109.277426
	   25 B(6,7,10)       =    109.255410    -0.000114    -0.149868   109.105542
	   26 B(7,10,8)       =    109.225534    -0.000111    -0.140279   109.085254
	   27 B(7,10,9)       =    109.350399    -0.000080    -0.037847   109.312552
	   28 B(7,10,14)      =    110.639616     0.000597     1.305422   111.945038
	   29 B(8,10,9)       =    109.314323    -0.000075    -0.583544   108.730779
	   30 B(8,10,14)      =    109.182261    -0.000164    -0.298697   108.883564
	   31 B(9,10,14)      =    109.109291    -0.000174    -0.280872   108.828419
	   32 B(10,14,11)     =    110.130813     0.000323     0.769692   110.900505
	   33 B(10,14,12)     =    109.735726     0.000170     0.528403   110.264130
	   34 B(10,14,13)     =    109.799954     0.000191     0.573963   110.373917
	   35 B(11,14,12)     =    109.074767    -0.000240    -0.642091   108.432676
	   36 B(11,14,13)     =    109.041109    -0.000248    -0.656961   108.384148
	   37 B(12,14,13)     =    109.034981    -0.000206    -0.623122   108.411859
	   38 D(1,4,7,5)      =   -179.786430     0.000032     0.522023  -179.264407
	   39 D(1,4,7,6)      =    -60.314487    -0.000036    -0.534256   -60.848743
	   40 D(1,4,7,10)     =     59.960281    -0.000006    -0.092708    59.867573
	   41 D(2,4,7,5)      =    -59.748480     0.000036     0.565099   -59.183381
	   42 D(2,4,7,6)      =     59.723463    -0.000032    -0.491180    59.232283
	   43 D(2,4,7,10)     =    179.998231    -0.000003    -0.049632   179.948599
	   44 D(3,4,7,5)      =     60.259675     0.000040     0.626372    60.886047
	   45 D(3,4,7,6)      =    179.731618    -0.000027    -0.429907   179.301711
	   46 D(3,4,7,10)     =    -59.993614     0.000002     0.011642   -59.981973
	   47 D(4,7,10,8)     =     -9.828096     0.000018     0.295884    -9.532212
	   48 D(4,7,10,9)     =    109.757852    -0.000029    -0.519021   109.238831
	   49 D(4,7,10,14)    =   -130.040343    -0.000005    -0.064336  -130.104679
	   50 D(5,7,10,8)     =   -129.956597    -0.000007    -0.170524  -130.127121
	   51 D(5,7,10,9)     =    -10.370649    -0.000054    -0.985429   -11.356078
	   52 D(5,7,10,14)    =    109.831156    -0.000030    -0.530743   109.300413
	   53 D(6,7,10,8)     =    110.416402     0.000040     0.649189   111.065592
	   54 D(6,7,10,9)     =   -129.997650    -0.000007    -0.165715  -130.163365
	   55 D(6,7,10,14)    =     -9.795845     0.000017     0.288970    -9.506875
	   56 D(7,10,14,11)   =    179.966321    -0.000002    -0.036885   179.929436
	   57 D(7,10,14,12)   =     59.880863    -0.000005    -0.069167    59.811696
	   58 D(7,10,14,13)   =    -59.949251     0.000002     0.007721   -59.941531
	   59 D(8,10,14,11)   =     59.728203    -0.000032    -0.488415    59.239789
	   60 D(8,10,14,12)   =    -60.357254    -0.000035    -0.520697   -60.877951
	   61 D(8,10,14,13)   =    179.812631    -0.000028    -0.443809   179.368822
	   62 D(9,10,14,11)   =    -59.687797     0.000035     0.554519   -59.133278
	   63 D(9,10,14,12)   =   -179.773255     0.000032     0.522237  -179.251017
	   64 D(9,10,14,13)   =     60.396630     0.000039     0.599125    60.995756
	 ---------------------------------------------------------------------------
	 Forces used to impose fixed constraints are not included.
	  Forces zeroed: 49 

  ==> Convergence Check <==

  Measures of convergence in internal coordinates in au.
  Criteria marked as inactive (o), active & met (*), and active & unmet ( ).
  ---------------------------------------------------------------------------------------------
   Step     Total Energy     Delta E     MAX Force     RMS Force      MAX Disp      RMS Disp   
  ---------------------------------------------------------------------------------------------
    Convergence Criteria    1.00e-06 *    3.00e-04 *             o    1.20e-03 *             o
  ---------------------------------------------------------------------------------------------
      2    -158.44988782   -5.93e-03      1.21e-02      5.28e-03 o    2.38e-02      1.25e-02 o  ~
  ---------------------------------------------------------------------------------------------

	Writing optimization data to binary file.
	Structure for next step:
	Cartesian Geometry (in Angstrom)
	    H    -2.1828132389   0.1495430959   0.0640692112
	    H    -2.0318358769   1.7966642555  -0.5931226366
	    H    -1.7230949878   0.3911700656  -1.6390804415
	    C    -1.6089855388   0.7848663357  -0.6217655139
	    H     0.4254937365   1.4508814267  -0.9085963536
	    H    -0.0349887069   1.2084763112   0.7973628762
	    C    -0.1229406309   0.7997376361  -0.2169283004
	    H    -0.2971571836  -1.3625422707  -0.3886792276
	    H     1.2000048902  -0.6948789940  -1.0904108389
	    C     0.5013995751  -0.6234619637  -0.2478545532
	    H     1.6895434991  -1.9558952808   1.0138514509
	    H     0.5761723282  -0.8969252123   1.9118716121
	    H     2.0704671573  -0.2294518423   1.2127487607
	    C     1.2574964077  -0.9485684606   1.0535511304
			--------------------------
			 OPTKING Finished Execution 
			--------------------------

    Structure for next step:
    Molecular point group: c1
    Full point group: C1

    Geometry (in Angstrom), charge = 0, multiplicity = 1:

    H           -2.183037378496     0.149425918305     0.064292682257
    H           -2.032060016477     1.796547077880    -0.592899165587
    H           -1.723319127340     0.391052887988    -1.638856970431
    C           -1.609209678372     0.784749158064    -0.621542042885
    H            0.425269596900     1.450764249124    -0.908372882526
    H           -0.035212846429     1.208359133656     0.797586347259
    C           -0.123164770450     0.799620458525    -0.216704829305
    H           -0.297381323145    -1.362659448296    -0.388455756539
    H            1.199780750653    -0.694996171582    -1.090187367816
    C            0.501175435499    -0.623579141299    -0.247631082150
    H            1.689319359535    -1.956012458426     1.014074921975
    H            0.575948188630    -0.897042389849     1.912095083147
    H            2.070243017768    -0.229569019933     1.212972231765
    C            1.257272268146    -0.948685638229     1.053774601411

gradient() will perform analytic gradient computation.

*** tstart() called on lski1497
*** at Tue Feb 21 18:20:48 2017


         ---------------------------------------------------------
                                   SCF
            by Justin Turney, Rob Parrish, and Andy Simmonett
                              RKS Reference
                        1 Threads,   1000 MiB Core
         ---------------------------------------------------------

  ==> Geometry <==

    Molecular point group: c1
    Full point group: C1

    Geometry (in Angstrom), charge = 0, multiplicity = 1:

       Center              X                  Y                   Z               Mass       
    ------------   -----------------  -----------------  -----------------  -----------------
           H         -2.183037378496     0.149425918305     0.064292682257     1.007825032070
           H         -2.032060016477     1.796547077880    -0.592899165587     1.007825032070
           H         -1.723319127340     0.391052887988    -1.638856970431     1.007825032070
           C         -1.609209678372     0.784749158064    -0.621542042885    12.000000000000
           H          0.425269596900     1.450764249124    -0.908372882526     1.007825032070
           H         -0.035212846429     1.208359133656     0.797586347259     1.007825032070
           C         -0.123164770450     0.799620458525    -0.216704829305    12.000000000000
           H         -0.297381323145    -1.362659448296    -0.388455756539     1.007825032070
           H          1.199780750653    -0.694996171582    -1.090187367816     1.007825032070
           C          0.501175435499    -0.623579141299    -0.247631082150    12.000000000000
           H          1.689319359535    -1.956012458426     1.014074921975     1.007825032070
           H          0.575948188630    -0.897042389849     1.912095083147     1.007825032070
           H          2.070243017768    -0.229569019933     1.212972231765     1.007825032070
           C          1.257272268146    -0.948685638229     1.053774601411    12.000000000000

  Running in c1 symmetry.

  Rotational constants: A =      0.63176  B =      0.12416  C =      0.12180 [cm^-1]
  Rotational constants: A =  18939.74535  B =   3722.25248  C =   3651.36092 [MHz]
  Nuclear repulsion =  130.312706006628645

  Charge       = 0
  Multiplicity = 1
  Electrons    = 34
  Nalpha       = 17
  Nbeta        = 17

  ==> Algorithm <==

  SCF Algorithm Type is DF.
  DIIS enabled.
  MOM disabled.
  Fractional occupation disabled.
  Guess Type is READ.
  Energy threshold   = 1.00e-08
  Density threshold  = 1.00e-08
  Integral threshold = 0.00e+00

  ==> Primary Basis <==

  Basis Set: CC-PVDZ
    Number of shells: 54
    Number of basis function: 106
    Number of Cartesian functions: 110
    Spherical Harmonics?: true
    Max angular momentum: 2

  ==> DFT Potential <==

   => B3LYP Composite Functional <= 

    B3LYP Hybrid-GGA Exchange-Correlation Functional (VWN1-RPA)

    P.J. Stephens et. al., J. Phys. Chem., 98, 11623-11627, 1994

    Points   =           5000
    Deriv    =              1
    GGA      =           TRUE
    Meta     =          FALSE

    X_LRC        =          FALSE
    X_Hybrid     =           TRUE
    X_Alpha      =   2.000000E-01
    X_Omega      =   0.000000E+00
    C_LRC        =          FALSE
    C_Hybrid     =          FALSE
    C_Alpha      =   0.000000E+00
    C_Omega      =   0.000000E+00

   => Exchange Functionals <=

    0.8000    B3_X
    0.2000      HF 

   => Correlation Functionals <=

    0.1900 VWN3RPA_C
    0.8100   LYP_C

   => Molecular Quadrature <=

    Radial Scheme    =       TREUTLER
    Pruning Scheme   =           FLAT
    Nuclear Scheme   =       TREUTLER

    BS radius alpha  =              1
    Pruning alpha    =              1
    Radial Points    =             75
    Spherical Points =            302
    Total Points     =         312810
    Total Blocks     =            274
    Max Points       =           4985
    Max Functions    =            106

  ==> Pre-Iterations <==

   -------------------------------------------------------
    Irrep   Nso     Nmo     Nalpha   Nbeta   Ndocc  Nsocc
   -------------------------------------------------------
     A        106     106       0       0       0       0
   -------------------------------------------------------
    Total     106     106      17      17      17       0
   -------------------------------------------------------

  ==> Integral Setup <==

  ==> DFJK: Density-Fitted J/K Matrices <==

    J tasked:                  Yes
    K tasked:                  Yes
    wK tasked:                  No
    OpenMP threads:              1
    Integrals threads:           1
    Memory (MB):               715
    Algorithm:                Core
    Integral Cache:           NONE
    Schwarz Cutoff:          1E-12
    Fitting Condition:       1E-12

   => Auxiliary Basis Set <=

  Basis Set: 
    Number of shells: 186
    Number of basis function: 510
    Number of Cartesian functions: 574
    Spherical Harmonics?: true
    Max angular momentum: 3

  Minimum eigenvalue in the overlap matrix is 4.5734307877E-03.
  Using Symmetric Orthogonalization.
  SCF Guess was Projection but file not found.
  Switching over to SAD guess.

  SCF Guess: Superposition of Atomic Densities via on-the-fly atomic UHF.

  ==> Iterations <==

                           Total Energy        Delta E     RMS |[F,P]|

   @DF-RKS iter   0:  -158.94033646835004   -1.58940e+02   3.26142e-02 
   @DF-RKS iter   1:  -158.32564165262667    6.14695e-01   4.37944e-03 
   @DF-RKS iter   2:  -158.28258118314963    4.30605e-02   5.19760e-03 DIIS
   @DF-RKS iter   3:  -158.45192995066503   -1.69349e-01   3.44641e-04 DIIS
   @DF-RKS iter   4:  -158.45259151063357   -6.61560e-04   1.15760e-04 DIIS
   @DF-RKS iter   5:  -158.45265752706746   -6.60164e-05   4.61387e-05 DIIS
   @DF-RKS iter   6:  -158.45266932572008   -1.17987e-05   4.98374e-06 DIIS
   @DF-RKS iter   7:  -158.45266947608471   -1.50365e-07   9.50808e-07 DIIS
   @DF-RKS iter   8:  -158.45266948212651   -6.04180e-09   1.44382e-07 DIIS
   @DF-RKS iter   9:  -158.45266948226188   -1.35373e-10   3.22173e-08 DIIS
   @DF-RKS iter  10:  -158.45266948226774   -5.85487e-12   1.17722e-08 DIIS
   @DF-RKS iter  11:  -158.45266948226916   -1.42109e-12   3.59982e-09 DIIS

  ==> Post-Iterations <==

    Orbital Energies (a.u.)
    -----------------------

    Doubly Occupied:                                                      

       1A    -10.177923     2A    -10.177775     3A    -10.174131  
       4A    -10.174112     5A     -0.788339     6A     -0.719334  
       7A     -0.627009     8A     -0.571663     9A     -0.462081  
      10A     -0.430738    11A     -0.419429    12A     -0.396997  
      13A     -0.361674    14A     -0.359259    15A     -0.326448  
      16A     -0.319904    17A     -0.315752  

    Virtual:                                                              

      18A      0.060800    19A      0.085849    20A      0.098342  
      21A      0.105199    22A      0.138120    23A      0.144067  
      24A      0.146202    25A      0.146259    26A      0.150790  
      27A      0.162543    28A      0.221171    29A      0.248300  
      30A      0.258467    31A      0.401143    32A      0.415857  
      33A      0.424871    34A      0.442730    35A      0.485339  
      36A      0.491810    37A      0.496380    38A      0.580965  
      39A      0.581975    40A      0.625343    41A      0.636264  
      42A      0.651126    43A      0.652667    44A      0.665414  
      45A      0.668404    46A      0.673772    47A      0.680037  
      48A      0.692006    49A      0.698120    50A      0.720287  
      51A      0.723692    52A      0.738297    53A      0.873741  
      54A      0.880783    55A      0.970350    56A      1.111944  
      57A      1.132069    58A      1.185597    59A      1.206732  
      60A      1.245083    61A      1.324614    62A      1.360547  
      63A      1.426251    64A      1.427199    65A      1.463318  
      66A      1.476227    67A      1.539656    68A      1.576765  
      69A      1.579330    70A      1.627934    71A      1.645340  
      72A      1.650088    73A      1.668190    74A      1.672024  
      75A      1.680173    76A      1.692401    77A      1.704360  
      78A      1.718214    79A      1.742661    80A      1.762160  
      81A      1.771684    82A      1.777322    83A      1.848099  
      84A      1.893630    85A      1.954471    86A      2.006542  
      87A      2.026369    88A      2.052815    89A      2.079852  
      90A      2.126271    91A      2.176921    92A      2.212063  
      93A      2.236646    94A      2.274855    95A      2.289976  
      96A      2.297902    97A      2.422936    98A      2.433469  
      99A      2.473365   100A      2.490840   101A      2.532086  
     102A      2.539783   103A      2.565463   104A      2.587546  
     105A      2.633752   106A      2.696366  

    Final Occupation by Irrep:
              A 
    DOCC [    17 ]

  Energy converged.

  @DF-RKS Final Energy:  -158.45266948226916

   => Energetics <=

    Nuclear Repulsion Energy =            130.3127060066286447
    One-Electron Energy =                -469.1185317039285678
    Two-Electron Energy =                 200.9493205039441648
    DFT Exchange-Correlation Energy =     -20.5961642889133785
    Empirical Dispersion Energy =           0.0000000000000000
    PCM Polarization Energy =               0.0000000000000000
    EFP Energy =                            0.0000000000000000
    Total Energy =                       -158.4526694822691582


  Saving occupied orbitals to File 180.

*** tstop() called on lski1497 at Tue Feb 21 18:22:59 2017
Module time:
	user time   =     115.67 seconds =       1.93 minutes
	system time =       1.57 seconds =       0.03 minutes
	total time  =        131 seconds =       2.18 minutes
Total time:
	user time   =     423.86 seconds =       7.06 minutes
	system time =       5.73 seconds =       0.10 minutes
	total time  =        473 seconds =       7.88 minutes


Properties will be evaluated at   0.000000,   0.000000,   0.000000 Bohr

Properties computed using the SCF density matrix

  Nuclear Dipole Moment: (a.u.)
     X:    -0.2910      Y:    -0.1351      Z:     0.3583

  Electronic Dipole Moment: (a.u.)
     X:     0.3051      Y:     0.1417      Z:    -0.3758

  Dipole Moment: (a.u.)
     X:     0.0141      Y:     0.0066      Z:    -0.0174     Total:     0.0234

  Dipole Moment: (Debye)
     X:     0.0358      Y:     0.0168      Z:    -0.0443     Total:     0.0595


*** tstart() called on lski1497
*** at Tue Feb 21 18:22:59 2017


         ------------------------------------------------------------
                                   SCF GRAD                          
                          Rob Parrish, Justin Turney,                
                       Andy Simmonett, and Alex Sokolov              
         ------------------------------------------------------------

  ==> Geometry <==

    Molecular point group: c1
    Full point group: C1

    Geometry (in Angstrom), charge = 0, multiplicity = 1:

       Center              X                  Y                   Z               Mass       
    ------------   -----------------  -----------------  -----------------  -----------------
           H         -2.183037378496     0.149425918305     0.064292682257     1.007825032070
           H         -2.032060016477     1.796547077880    -0.592899165587     1.007825032070
           H         -1.723319127340     0.391052887988    -1.638856970431     1.007825032070
           C         -1.609209678372     0.784749158064    -0.621542042885    12.000000000000
           H          0.425269596900     1.450764249124    -0.908372882526     1.007825032070
           H         -0.035212846429     1.208359133656     0.797586347259     1.007825032070
           C         -0.123164770450     0.799620458525    -0.216704829305    12.000000000000
           H         -0.297381323145    -1.362659448296    -0.388455756539     1.007825032070
           H          1.199780750653    -0.694996171582    -1.090187367816     1.007825032070
           C          0.501175435499    -0.623579141299    -0.247631082150    12.000000000000
           H          1.689319359535    -1.956012458426     1.014074921975     1.007825032070
           H          0.575948188630    -0.897042389849     1.912095083147     1.007825032070
           H          2.070243017768    -0.229569019933     1.212972231765     1.007825032070
           C          1.257272268146    -0.948685638229     1.053774601411    12.000000000000

  Nuclear repulsion =  130.312706006628645

  ==> Basis Set <==

  Basis Set: CC-PVDZ
    Number of shells: 54
    Number of basis function: 106
    Number of Cartesian functions: 110
    Spherical Harmonics?: true
    Max angular momentum: 2

  ==> DFJKGrad: Density-Fitted SCF Gradients <==

    Gradient:                    1
    J tasked:                  Yes
    K tasked:                  Yes
    wK tasked:                  No
    OpenMP threads:              1
    Integrals threads:           1
    Memory (MB):               715
    Schwarz Cutoff:          0E+00
    Fitting Condition:       1E-12

   => Auxiliary Basis Set <=

  Basis Set: 
    Number of shells: 186
    Number of basis function: 510
    Number of Cartesian functions: 574
    Spherical Harmonics?: true
    Max angular momentum: 3

  ==> DFT Potential <==

   => B3LYP Composite Functional <= 

    B3LYP Hybrid-GGA Exchange-Correlation Functional (VWN1-RPA)

    P.J. Stephens et. al., J. Phys. Chem., 98, 11623-11627, 1994

    Points   =           5000
    Deriv    =              1
    GGA      =           TRUE
    Meta     =          FALSE

    X_LRC        =          FALSE
    X_Hybrid     =           TRUE
    X_Alpha      =   2.000000E-01
    X_Omega      =   0.000000E+00
    C_LRC        =          FALSE
    C_Hybrid     =          FALSE
    C_Alpha      =   0.000000E+00
    C_Omega      =   0.000000E+00

   => Exchange Functionals <=

    0.8000    B3_X
    0.2000      HF 

   => Correlation Functionals <=

    0.1900 VWN3RPA_C
    0.8100   LYP_C

   => Molecular Quadrature <=

    Radial Scheme    =       TREUTLER
    Pruning Scheme   =           FLAT
    Nuclear Scheme   =       TREUTLER

    BS radius alpha  =              1
    Pruning alpha    =              1
    Radial Points    =             75
[...]
    J tasked:                  Yes
    K tasked:                  Yes
    wK tasked:                  No
    OpenMP threads:              1
    Integrals threads:           1
    Memory (MB):               715
    Schwarz Cutoff:          0E+00
    Fitting Condition:       1E-12

   => Auxiliary Basis Set <=

  Basis Set: 
    Number of shells: 186
    Number of basis function: 510
    Number of Cartesian functions: 574
    Spherical Harmonics?: true
    Max angular momentum: 3

  ==> DFT Potential <==

   => B3LYP Composite Functional <= 

    B3LYP Hybrid-GGA Exchange-Correlation Functional (VWN1-RPA)

    P.J. Stephens et. al., J. Phys. Chem., 98, 11623-11627, 1994

    Points   =           5000
    Deriv    =              1
    GGA      =           TRUE
    Meta     =          FALSE

    X_LRC        =          FALSE
    X_Hybrid     =           TRUE
    X_Alpha      =   2.000000E-01
    X_Omega      =   0.000000E+00
    C_LRC        =          FALSE
    C_Hybrid     =          FALSE
    C_Alpha      =   0.000000E+00
    C_Omega      =   0.000000E+00

   => Exchange Functionals <=

    0.8000    B3_X
    0.2000      HF 

   => Correlation Functionals <=

    0.1900 VWN3RPA_C
    0.8100   LYP_C

   => Molecular Quadrature <=

    Radial Scheme    =       TREUTLER
    Pruning Scheme   =           FLAT
    Nuclear Scheme   =       TREUTLER

    BS radius alpha  =              1
    Pruning alpha    =              1
    Radial Points    =             75
    Spherical Points =            302
    Total Points     =         312826
    Total Blocks     =            271
    Max Points       =           4955
    Max Functions    =            106


  -Total Gradient:
     Atom            X                  Y                   Z
    ------   -----------------  -----------------  -----------------
       1        0.000015155480     0.000008979135    -0.000013978278
       2        0.000010441816    -0.000022269216    -0.000001535214
       3        0.000006920359     0.000006998673     0.000017532817
       4       -0.000503265489    -0.000223722121     0.001696156686
       5       -0.000000572352    -0.000004090628     0.000013421344
       6       -0.000008813054     0.000001293631     0.000001578629
       7        0.000083088899     0.000027078155    -0.002111743015
       8        0.000001376346    -0.000004624810     0.000007585358
       9       -0.000013414245    -0.000002369506     0.000003981074
      10        0.001890492812     0.000891340192    -0.000314701818
      11       -0.000009213619     0.000023492732    -0.000000114634
      12        0.000011730088     0.000003511720    -0.000018518696
      13       -0.000014743225    -0.000010368570    -0.000006827809
      14       -0.001471177056    -0.000696179838     0.000729617621


*** tstop() called on lski1497 at Tue Feb 21 18:38:33 2017
Module time:
	user time   =      38.62 seconds =       0.64 minutes
	system time =       0.74 seconds =       0.01 minutes
	total time  =         47 seconds =       0.78 minutes
Total time:
	user time   =    1240.68 seconds =      20.68 minutes
	system time =      17.14 seconds =       0.29 minutes
	total time  =       1407 seconds =      23.45 minutes

			-----------------------------------------
			 OPTKING 2.0: for geometry optimizations 
			  - R.A. King,  Bethel University        
			-----------------------------------------

	Previous internal coordinate definitions found.
	---Fragment 1 Geometry and Gradient---
	 H          -4.1837790058        0.3151623534        0.0969681542
	 H          -3.8523788495        3.4205924139       -1.1585150807
	 H          -3.3093573853        0.7431958408       -3.1197195240
	 C          -3.0497897780        1.4982631401       -1.1926647037
	 H           0.8125373796        2.7820315439       -1.6636489206
	 H          -0.1020384375        2.3043991037        1.4956885179
	 C          -0.2599137136        1.4928277711       -0.4227673909
	 H          -0.5344570261       -2.6007589729       -0.7128433693
	 H           2.2312625955       -1.3647856442       -2.0800144140
	 C           0.9597756916       -1.1669592672       -0.4380134143
	 H           3.2407099279       -3.7053948320        1.9108304155
	 H           1.1383538957       -1.7331785627        3.6487046212
	 H           3.9495575320       -0.4450991370        2.3323183411
	 C           2.4011244192       -1.8002935675        1.9904758668
	             0.0000151555        0.0000089791       -0.0000139783
	             0.0000104418       -0.0000222692       -0.0000015352
	             0.0000069204        0.0000069987        0.0000175328
	            -0.0005032655       -0.0002237221        0.0016961567
	            -0.0000005724       -0.0000040906        0.0000134213
	            -0.0000088131        0.0000012936        0.0000015786
	             0.0000830889        0.0000270782       -0.0021117430
	             0.0000013763       -0.0000046248        0.0000075854
	            -0.0000134142       -0.0000023695        0.0000039811
	             0.0018904928        0.0008913402       -0.0003147018
	            -0.0000092136        0.0000234927       -0.0000001146
	             0.0000117301        0.0000035117       -0.0000185187
	            -0.0000147432       -0.0000103686       -0.0000068278
	            -0.0014711771       -0.0006961798        0.0007296176

	---Fragment 1 Intrafragment Coordinates---
	 - Coordinate -           - BOHR/RAD -       - ANG/DEG -
	 R(1,4)           =         2.085381	       1.103536
	 R(2,4)           =         2.083426	       1.102502
	 R(3,4)           =         2.085915	       1.103819
	 R(4,7)           =         2.894163	       1.531525
	 R(5,7)           =         2.086141	       1.103938
	 R(6,7)           =         2.089030	       1.105467
	 R(7,10)          =         2.926148	       1.548451
	 R(8,10)          =         2.089030	       1.105467
	 R(9,10)          =         2.086140	       1.103938
	 R(10,14)         =         2.894159	       1.531523
	 R(11,14)         =         2.083425	       1.102501
	 R(12,14)         =         2.085382	       1.103536
	 R(13,14)         =         2.085918	       1.103820
	 B(1,4,2)         =         1.879526	     107.688896
	 B(1,4,3)         =         1.873694	     107.354731
	 B(1,4,7)         =         1.937576	     111.014936
	 B(2,4,3)         =         1.876747	     107.529690
	 B(2,4,7)         =         1.948425	     111.636515
	 B(3,4,7)         =         1.944464	     111.409565
	 B(4,7,5)         =         1.913639	     109.643459
	 B(4,7,6)         =         1.892746	     108.446381
	 B(4,7,10)        =         1.984634	     113.711131
	 B(5,7,6)         =         1.841407	     105.504835
	 B(5,7,10)        =         1.922342	     110.142085
	 B(6,7,10)        =         1.903302	     109.051165
	 B(7,10,8)        =         1.903301	     109.051120
	 B(7,10,9)        =         1.922342	     110.142066
	 B(7,10,14)       =         1.984635	     113.711207
	 B(8,10,9)        =         1.841407	     105.504853
	 B(8,10,14)       =         1.892747	     108.446430
	 B(9,10,14)       =         1.913638	     109.643378
	 B(10,14,11)      =         1.948426	     111.636587
	 B(10,14,12)      =         1.937580	     111.015135
	 B(10,14,13)      =         1.944466	     111.409667
	 B(11,14,12)      =         1.879524	     107.688814
	 B(11,14,13)      =         1.876746	     107.529637
	 B(12,14,13)      =         1.873689	     107.354467
	 D(1,4,7,5)       =        -3.079107	    -176.419853
	 D(1,4,7,6)       =        -1.076771	     -61.694406
	 D(1,4,7,10)      =         1.043588	      59.793206
	 D(2,4,7,5)       =        -0.981759	     -56.250672
	 D(2,4,7,6)       =         1.020577	      58.474775
	 D(2,4,7,10)      =         3.140936	     179.962387
	 D(3,4,7,5)       =         1.116769	      63.986168
	 D(3,4,7,6)       =         3.119106	     178.711614
	 D(3,4,7,10)      =        -1.043720	     -59.800773
	 D(4,7,10,8)      =        -0.159371	      -9.131285
	 D(4,7,10,9)      =         1.853584	     106.202567
	 D(4,7,10,14)     =        -2.273843	    -130.281597
	 D(5,7,10,8)      =        -2.315130	    -132.647186
	 D(5,7,10,9)      =        -0.302175	     -17.313334
	 D(5,7,10,14)     =         1.853583	     106.202501
	 D(6,7,10,8)      =         1.955099	     112.018946
	 D(6,7,10,9)      =        -2.315130	    -132.647201
	 D(6,7,10,14)     =        -0.159372	      -9.131366
	 D(7,10,14,11)    =         3.140943	     179.962774
	 D(7,10,14,12)    =         1.043594	      59.793513
	 D(7,10,14,13)    =        -1.043713	     -59.800333
	 D(8,10,14,11)    =         1.020584	      58.475134
	 D(8,10,14,12)    =        -1.076766	     -61.694127
	 D(8,10,14,13)    =         3.119113	     178.712027
	 D(9,10,14,11)    =        -0.981753	     -56.250316
	 D(9,10,14,12)    =        -3.079102	    -176.419577
	 D(9,10,14,13)    =         1.116776	      63.986576

	Current energy   :      -158.4538024121

	Energy change for the previous step:
		Projected    :         0.0000001476
		Actual       :        -0.0000005673

	Performing BFGS update.
	Previous computed or guess Hessian on step 1.
	Steps to be used in Hessian update: 7 6
	Adding user-defined constraint: Fragment 1; Coordinate 49:
		Value =    -2.273843; Fixed value    =    -2.268930
		Force =     0.003316; Force constant =     0.675000
	Removing off-diagonal coupling between coordinate 49 and others.
	Taking RFO optimization step.
	Going to follow RFO solution 1.
	Rejecting RFO root 1 because normalization gives large value.
	Rejecting RFO root 2 because normalization gives large value.
	Rejecting RFO root 3 because normalization gives large value.
	Using RFO vector 4.
	Norm of target step-size    0.00262
	Projected energy change by RFO approximation:         0.0000001242

	Back-transformation to cartesian coordinates...
	Successfully converged to displaced geometry.

	--- Internal Coordinate Step in ANG or DEG, aJ/ANG or AJ/DEG ---
	 ---------------------------------------------------------------------------
	   Coordinate                Previous        Force       Change         New 
	   ----------                --------       ------       ------       ------
	    1 R(1,4)          =      1.103536     0.000186     0.000080     1.103616
	    2 R(2,4)          =      1.102502     0.000195     0.000077     1.102579
	    3 R(3,4)          =      1.103819     0.000169     0.000080     1.103899
	    4 R(4,7)          =      1.531525     0.000004     0.000060     1.531586
	    5 R(5,7)          =      1.103938     0.000087     0.000044     1.103983
	    6 R(6,7)          =      1.105467    -0.000013     0.000029     1.105496
	    7 R(7,10)         =      1.548451     0.000166     0.000068     1.548519
	    8 R(8,10)         =      1.105467    -0.000012     0.000030     1.105496
	    9 R(9,10)         =      1.103938     0.000089     0.000045     1.103983
	   10 R(10,14)        =      1.531523     0.000011     0.000064     1.531587
	   11 R(11,14)        =      1.102501     0.000200     0.000078     1.102579
	   12 R(12,14)        =      1.103536     0.000184     0.000080     1.103617
	   13 R(13,14)        =      1.103820     0.000162     0.000079     1.103899
	   14 B(1,4,2)        =    107.688896    -0.000000    -0.001826   107.687071
	   15 B(1,4,3)        =    107.354731    -0.000000    -0.000654   107.354077
	   16 B(1,4,7)        =    111.014936     0.000000    -0.001986   111.012950
	   17 B(2,4,3)        =    107.529690    -0.000000    -0.000599   107.529091
	   18 B(2,4,7)        =    111.636515     0.000000    -0.004611   111.631904
	   19 B(3,4,7)        =    111.409565     0.000000     0.009513   111.419079
	   20 B(4,7,5)        =    109.643459     0.000002     0.020180   109.663639
	   21 B(4,7,6)        =    108.446381    -0.000002    -0.020017   108.426365
	   22 B(4,7,10)       =    113.711131     0.000000    -0.001226   113.709904
	   23 B(5,7,6)        =    105.504835     0.000000     0.009677   105.514512
	   24 B(5,7,10)       =    110.142085    -0.000000    -0.026095   110.115990
	   25 B(6,7,10)       =    109.051165    -0.000000     0.018434   109.069599
	   26 B(7,10,8)       =    109.051120    -0.000000     0.018436   109.069556
	   27 B(7,10,9)       =    110.142066    -0.000000    -0.025945   110.116121
	   28 B(7,10,14)      =    113.711207     0.000000    -0.001357   113.709850
	   29 B(8,10,9)       =    105.504853     0.000000     0.009535   105.514388
	   30 B(8,10,14)      =    108.446430    -0.000002    -0.020103   108.426327
	   31 B(9,10,14)      =    109.643378     0.000002     0.020378   109.663756
	   32 B(10,14,11)     =    111.636587     0.000000    -0.004490   111.632098
	   33 B(10,14,12)     =    111.015135     0.000000    -0.002228   111.012907
	   34 B(10,14,13)     =    111.409667     0.000000     0.009386   111.419053
	   35 B(11,14,12)     =    107.688814    -0.000000    -0.001648   107.687166
	   36 B(11,14,13)     =    107.529637    -0.000000    -0.000494   107.529143
	   37 B(12,14,13)     =    107.354467    -0.000000    -0.000674   107.353792
	   38 D(1,4,7,5)      =   -176.419853     0.000000     0.022534  -176.397319
	   39 D(1,4,7,6)      =    -61.694406     0.000000     0.033806   -61.660600
	   40 D(1,4,7,10)     =     59.793206    -0.000000     0.042123    59.835329
	   41 D(2,4,7,5)      =    -56.250672     0.000000     0.015749   -56.234923
	   42 D(2,4,7,6)      =     58.474775     0.000000     0.027021    58.501796
	   43 D(2,4,7,10)     =    179.962387    -0.000000     0.035338   179.997726
	   44 D(3,4,7,5)      =     63.986168     0.000000     0.018367    64.004535
	   45 D(3,4,7,6)      =    178.711614     0.000000     0.029640   178.741254
	   46 D(3,4,7,10)     =    -59.800773    -0.000000     0.037957   -59.762816
	   47 D(4,7,10,8)     =     -9.131285     0.000001    -0.014359    -9.145645
	   48 D(4,7,10,9)     =    106.202567     0.000001    -0.006832   106.195735
	   49 D(4,7,10,14)    =   -130.281597     0.000001    -0.001012  -130.282610
	   50 D(5,7,10,8)     =   -132.647186     0.000000    -0.019898  -132.667084
	   51 D(5,7,10,9)     =    -17.313334     0.000000    -0.012371   -17.325704
	   52 D(5,7,10,14)    =    106.202501     0.000001    -0.006551   106.195951
	   53 D(6,7,10,8)     =    112.018946     0.000000    -0.027510   111.991436
	   54 D(6,7,10,9)     =   -132.647201     0.000000    -0.019983  -132.667184
	   55 D(6,7,10,14)    =     -9.131366     0.000001    -0.014163    -9.145529
	   56 D(7,10,14,11)   =    179.962774    -0.000000     0.033400   179.996174
	   57 D(7,10,14,12)   =     59.793513    -0.000000     0.040042    59.833555
	   58 D(7,10,14,13)   =    -59.800333    -0.000000     0.036148   -59.764186
	   59 D(8,10,14,11)   =     58.475134     0.000000     0.025228    58.500362
	   60 D(8,10,14,12)   =    -61.694127     0.000000     0.031870   -61.662257
	   61 D(8,10,14,13)   =    178.712027     0.000000     0.027976   178.740002
	   62 D(9,10,14,11)   =    -56.250316     0.000000     0.014064   -56.236252
	   63 D(9,10,14,12)   =   -176.419577     0.000000     0.020707  -176.398870
	   64 D(9,10,14,13)   =     63.986576     0.000000     0.016812    64.003389
	 ---------------------------------------------------------------------------
	 Forces used to impose fixed constraints are not included.
	  Forces zeroed: 49 

  ==> Convergence Check <==

  Measures of convergence in internal coordinates in au.
  Criteria marked as inactive (o), active & met (*), and active & unmet ( ).
  ---------------------------------------------------------------------------------------------
   Step     Total Energy     Delta E     MAX Force     RMS Force      MAX Disp      RMS Disp   
  ---------------------------------------------------------------------------------------------
    Convergence Criteria    1.00e-06 *    3.00e-04 *             o    1.20e-03 *             o
  ---------------------------------------------------------------------------------------------
      8    -158.45380241   -5.67e-07 *    4.04e-05 *    1.53e-05 o    7.35e-04 *    3.28e-04 o  ~
  ---------------------------------------------------------------------------------------------


  **** Optimization is complete! (in 8 steps) ****

  ==> Optimization Summary <==

  Measures of convergence in internal coordinates in au.
  --------------------------------------------------------------------------------------------------------------- ~
   Step         Total Energy             Delta E       MAX Force       RMS Force        MAX Disp        RMS Disp  ~
  --------------------------------------------------------------------------------------------------------------- ~
      1    -158.443957438431   -158.443957438431      0.02317775      0.00968277      0.02855295      0.01250499  ~
      2    -158.449887823351     -0.005930384920      0.01213236      0.00528238      0.02382216      0.01251964  ~
      3    -158.452669482269     -0.002781658918      0.00400406      0.00200359      0.03619124      0.01251088  ~
      4    -158.453544068451     -0.000874586182      0.00152506      0.00063752      0.04782704      0.01252311  ~
      5    -158.453780505433     -0.000236436982      0.00085994      0.00018329      0.01545031      0.00474583  ~
      6    -158.453799049056     -0.000018543623      0.00012045      0.00003655      0.00350272      0.00110249  ~
      7    -158.453801844838     -0.000002795783      0.00003971      0.00001421      0.00133124      0.00038353  ~
      8    -158.453802412113     -0.000000567275      0.00007547      0.00001797      0.00073519      0.00032809  ~
  --------------------------------------------------------------------------------------------------------------- ~

	Writing optimization data to binary file.
	Final energy is   -158.4538024121134
	Final (previous) structure:
	Cartesian Geometry (in Angstrom)
	    H    -2.2139604957   0.1667767344   0.0513133372
	    H    -2.0385910860   1.8100995453  -0.6130597765
	    H    -1.7512365034   0.3932823005  -1.6508844693
	    C    -1.6138792415   0.7928467062  -0.6311309787
	    H     0.4299762624   1.4721876866  -0.8803650919
	    H    -0.0539964155   1.2194354852   0.7914842748
	    C    -0.1375404134   0.7899704328  -0.2237188678
	    H    -0.2828224772  -1.3762623735  -0.3772204643
	    H     1.1807333119  -0.7222134575  -1.1006962214
	    C     0.5078914214  -0.6175282476  -0.2317867159
	    H     1.7149098335  -1.9608104939   1.0111679054
	    H     0.6023909369  -0.9171585938   1.9308113264
	    H     2.0900158299  -0.2355363189   1.2342097093
	    C     1.2706203176  -0.9526743247   1.0533144630
	Saving final (previous) structure.
			--------------------------
			 OPTKING Finished Execution 
			--------------------------

    Final optimized geometry and variables:
    Molecular point group: c1
    Full point group: C1

    Geometry (in Angstrom), charge = 0, multiplicity = 1:

    H           -2.213960495663     0.166776734426     0.051313337162
    H           -2.038591085990     1.810099545321    -0.613059776531
    H           -1.751236503402     0.393282300491    -1.650884469312
    C           -1.613879241506     0.792846706211    -0.631130978712
    H            0.429976262416     1.472187686607    -0.880365091892
    H           -0.053996415547     1.219435485188     0.791484274834
    C           -0.137540413449     0.789970432831    -0.223718867807
    H           -0.282822477163    -1.376262373505    -0.377220464317
    H            1.180733311923    -0.722213457537    -1.100696221430
    C            0.507891421361    -0.617528247556    -0.231786715911
    H            1.714909833504    -1.960810493930     1.011167905389
    H            0.602390936901    -0.917158593823     1.930811326415
    H            2.090015829929    -0.235536318883     1.234209709308
    C            1.270620317613    -0.952674324700     1.053314462972

	Cleaning optimization helper files.

*** Psi4 exiting successfully. Buy a developer a beer!
