    -----------------------------------------------------------------------
          Psi4: An Open-Source Ab Initio Electronic Structure Package
                              Psi4 1.0.0 Driver

                          Git: Rev {master} 6a9a71b 

    J. M. Turney, A. C. Simmonett, R. M. Parrish, E. G. Hohenstein,
    F. A. Evangelista, J. T. Fermann, B. J. Mintz, L. A. Burns, J. J. Wilke,
    M. L. Abrams, N. J. Russ, M. L. Leininger, C. L. Janssen, E. T. Seidl,
    W. D. Allen, H. F. Schaefer, R. A. King, E. F. Valeev, C. D. Sherrill,
    and T. D. Crawford, WIREs Comput. Mol. Sci. 2, 556-565 (2012)
    (doi: 10.1002/wcms.93)

                         Additional Contributions by
    A. E. DePrince, U. Bozkaya, A. Yu. Sokolov, D. G. A. Smith, R. Di Remigio,
    R. M. Richard, J. F. Gonthier, H. R. McAlexander, M. Saitow, and
    B. P. Pritchard
    -----------------------------------------------------------------------


    Psi4 started on: Mon Feb 20 17:23:14 2017

    Process ID:  28117
    PSI4DATADIR: /Users/sternc1/anaconda/share/psi4
    Memory level set to 256.000 MB

  ==> Input File <==

--------------------------------------------------------------------------

memory 1000 mb

molecule butane {
  symmetry C1
  0 1 
  H      1.604   0.760   -8.260
  H      1.745   2.388   -8.880
  H      2.043   1.024   -9.930
  C      2.142   1.395   -8.932
  H      4.169   2.051   -9.210
  H      3.731   1.788   -7.539
  C      3.631   1.416   -8.537
  H      3.428   -0.718   -8.400
  H      4.589   -0.191   -9.593
  C      4.203   -0.012   -8.612
  H      5.732   -1.159   -7.632
  H      4.949   0.011   -6.598
  H      6.111   0.539   -7.791
  C      5.335   -0.167   -7.580
  units Angstrom
}

dih_string = "4 7 10 14 210"
set optking fixed_dihedral = $dih_string

optimize('MP2/6-31G(d)')
--------------------------------------------------------------------------

  Memory set to 1000.000 MiB by Python script.
gradient() will perform analytic gradient computation.
    SCF Algorithm Type (re)set to DF.

*** tstart() called on lski1497
*** at Mon Feb 20 17:23:16 2017


         ---------------------------------------------------------
                                   SCF
            by Justin Turney, Rob Parrish, and Andy Simmonett
                              RHF Reference
                        1 Threads,   1000 MiB Core
         ---------------------------------------------------------

  ==> Geometry <==

    Molecular point group: c1
    Full point group: C1

    Geometry (in Angstrom), charge = 0, multiplicity = 1:

       Center              X                  Y                   Z               Mass       
    ------------   -----------------  -----------------  -----------------  -----------------
           H         -2.220687216304     0.103509700745     0.149705754160     1.007825032070
           H         -2.079687216304     1.731509700745    -0.470294245840     1.007825032070
           H         -1.781687216304     0.367509700745    -1.520294245840     1.007825032070
           C         -1.682687216304     0.738509700745    -0.522294245840    12.000000000000
           H          0.344312783696     1.394509700745    -0.800294245840     1.007825032070
           H         -0.093687216304     1.131509700745     0.870705754160     1.007825032070
           C         -0.193687216304     0.759509700745    -0.127294245840    12.000000000000
           H         -0.396687216304    -1.374490299255     0.009705754160     1.007825032070
           H          0.764312783696    -0.847490299255    -1.183294245840     1.007825032070
           C          0.378312783696    -0.668490299255    -0.202294245840    12.000000000000
           H          1.907312783696    -1.815490299255     0.777705754160     1.007825032070
           H          1.124312783696    -0.645490299255     1.811705754160     1.007825032070
           H          2.286312783696    -0.117490299255     0.618705754160     1.007825032070
           C          1.510312783696    -0.823490299255     0.829705754160    12.000000000000

  Running in c1 symmetry.

  Rotational constants: A =      0.71027  B =      0.12637  C =      0.11998 [cm^-1]
  Rotational constants: A =  21293.24900  B =   3788.42860  C =   3596.97450 [MHz]
  Nuclear repulsion =  132.015012572198884

  Charge       = 0
  Multiplicity = 1
  Electrons    = 34
  Nalpha       = 17
  Nbeta        = 17

  ==> Algorithm <==

  SCF Algorithm Type is DF.
  DIIS enabled.
  MOM disabled.
  Fractional occupation disabled.
  Guess Type is SAD.
  Energy threshold   = 1.00e-10
  Density threshold  = 1.00e-10
  Integral threshold = 0.00e+00

  ==> Primary Basis <==

  Basis Set: 6-31G(D)
    Number of shells: 44
    Number of basis function: 80
    Number of Cartesian functions: 80
    Spherical Harmonics?: false
    Max angular momentum: 2

  ==> Pre-Iterations <==

   -------------------------------------------------------
    Irrep   Nso     Nmo     Nalpha   Nbeta   Ndocc  Nsocc
   -------------------------------------------------------
     A         80      80       0       0       0       0
   -------------------------------------------------------
    Total      80      80      17      17      17       0
   -------------------------------------------------------

  ==> Integral Setup <==

  ==> DFJK: Density-Fitted J/K Matrices <==

    J tasked:                  Yes
    K tasked:                  Yes
    wK tasked:                  No
    OpenMP threads:              1
    Integrals threads:           1
    Memory (MB):               715
    Algorithm:                Core
    Integral Cache:           NONE
    Schwarz Cutoff:          1E-12
    Fitting Condition:       1E-12

   => Auxiliary Basis Set <=

  Basis Set: 
    Number of shells: 186
    Number of basis function: 574
    Number of Cartesian functions: 574
    Spherical Harmonics?: false
    Max angular momentum: 3

  Minimum eigenvalue in the overlap matrix is 4.5454932187E-03.
  Using Symmetric Orthogonalization.
  SCF Guess: Superposition of Atomic Densities via on-the-fly atomic UHF.

  ==> Iterations <==

                           Total Energy        Delta E     RMS |[F,P]|

   @DF-RHF iter   0:  -158.98578168709105   -1.58986e+02   4.75197e-02 
   @DF-RHF iter   1:  -157.20265221643058    1.78313e+00   3.97182e-03 
   @DF-RHF iter   2:  -157.28292746700993   -8.02753e-02   1.08644e-03 DIIS
   @DF-RHF iter   3:  -157.29058539619774   -7.65793e-03   2.51475e-04 DIIS
   @DF-RHF iter   4:  -157.29094917479199   -3.63779e-04   7.61951e-05 DIIS
   @DF-RHF iter   5:  -157.29098377454989   -3.45998e-05   1.35035e-05 DIIS
   @DF-RHF iter   6:  -157.29098511835730   -1.34381e-06   2.56506e-06 DIIS
   @DF-RHF iter   7:  -157.29098515014022   -3.17829e-08   7.35153e-07 DIIS
   @DF-RHF iter   8:  -157.29098515295402   -2.81381e-09   1.13532e-07 DIIS
   @DF-RHF iter   9:  -157.29098515306157   -1.07548e-10   2.50547e-08 DIIS
   @DF-RHF iter  10:  -157.29098515306714   -5.57066e-12   4.72454e-09 DIIS
   @DF-RHF iter  11:  -157.29098515306748   -3.41061e-13   1.31278e-09 DIIS
   @DF-RHF iter  12:  -157.29098515306737    1.13687e-13   3.11953e-10 DIIS
   @DF-RHF iter  13:  -157.29098515306737    0.00000e+00   6.57337e-11 DIIS

  ==> Post-Iterations <==

    Orbital Energies (a.u.)
    -----------------------

    Doubly Occupied:                                                      

       1A    -11.207150     2A    -11.206543     3A    -11.200394  
       4A    -11.200320     5A     -1.071054     6A     -0.980922  
       7A     -0.862388     8A     -0.794613     9A     -0.645293  
      10A     -0.587697    11A     -0.586570    12A     -0.562551  
      13A     -0.513550    14A     -0.506917    15A     -0.471245  
      16A     -0.469018    17A     -0.441045  

    Virtual:                                                              

      18A      0.234458    19A      0.267228    20A      0.291190  
      21A      0.299789    22A      0.326460    23A      0.336969  
      24A      0.337017    25A      0.348487    26A      0.352120  
      27A      0.357216    28A      0.419067    29A      0.437843  
      30A      0.440568    31A      0.702417    32A      0.718463  
      33A      0.744751    34A      0.758027    35A      0.775284  
      36A      0.844915    37A      0.847477    38A      0.932389  
      39A      0.948240    40A      1.013467    41A      1.076325  
      42A      1.078296    43A      1.163261    44A      1.193512  
      45A      1.198605    46A      1.208323    47A      1.215845  
      48A      1.222285    49A      1.246173    50A      1.256180  
      51A      1.263426    52A      1.288779    53A      1.293452  
      54A      1.542746    55A      1.652400    56A      1.724446  
      57A      1.753925    58A      1.928032    59A      1.950075  
      60A      2.132296    61A      2.195423    62A      2.227718  
      63A      2.292874    64A      2.316099    65A      2.333566  
      66A      2.427572    67A      2.536845    68A      2.635072  
      69A      2.656082    70A      2.677193    71A      2.727997  
      72A      2.752330    73A      2.774506    74A      2.887505  
      75A      3.011607    76A      3.105208    77A      4.578515  
      78A      4.675360    79A      4.800555    80A      4.962633  

    Final Occupation by Irrep:
              A 
    DOCC [    17 ]

  Energy converged.

  @DF-RHF Final Energy:  -157.29098515306737

   => Energetics <=

    Nuclear Repulsion Energy =            132.0150125721988843
    One-Electron Energy =                -471.9974582677054400
    Two-Electron Energy =                 182.6914605424392732
    DFT Exchange-Correlation Energy =       0.0000000000000000
    Empirical Dispersion Energy =           0.0000000000000000
    PCM Polarization Energy =               0.0000000000000000
    EFP Energy =                            0.0000000000000000
    Total Energy =                       -157.2909851530672825


  Saving occupied orbitals to File 180.

*** tstop() called on lski1497 at Mon Feb 20 17:23:24 2017
Module time:
	user time   =       5.08 seconds =       0.08 minutes
	system time =       0.19 seconds =       0.00 minutes
	total time  =          8 seconds =       0.13 minutes
Total time:
	user time   =       5.08 seconds =       0.08 minutes
	system time =       0.19 seconds =       0.00 minutes
	total time  =          8 seconds =       0.13 minutes


Properties will be evaluated at   0.000000,   0.000000,   0.000000 Bohr

Properties computed using the SCF density matrix

  Nuclear Dipole Moment: (a.u.)
     X:    -0.1368      Y:    -0.0674      Z:     0.2475

  Electronic Dipole Moment: (a.u.)
     X:     0.1470      Y:     0.0717      Z:    -0.2662

  Dipole Moment: (a.u.)
     X:     0.0103      Y:     0.0043      Z:    -0.0187     Total:     0.0218

  Dipole Moment: (Debye)
     X:     0.0261      Y:     0.0110      Z:    -0.0475     Total:     0.0553


  //>>>>>>>>>>>>>>>>>>>>>>>>>>>>>>>>>>>//
  //               DFMP2               //
  //<<<<<<<<<<<<<<<<<<<<<<<<<<<<<<<<<<<//


*** tstart() called on lski1497
*** at Mon Feb 20 17:23:24 2017


*** tstop() called on lski1497 at Mon Feb 20 17:23:24 2017
Module time:
	user time   =       0.53 seconds =       0.01 minutes
	system time =       0.01 seconds =       0.00 minutes
	total time  =          0 seconds =       0.00 minutes
Total time:
	user time   =       5.63 seconds =       0.09 minutes
	system time =       0.20 seconds =       0.00 minutes
	total time  =          8 seconds =       0.13 minutes
	 --------------------------------------------------------
	                          DF-MP2                         
	      2nd-Order Density-Fitted Moller-Plesset Theory     
	              RMP2 Wavefunction,   1 Threads             
	                                                         
	        Rob Parrish, Justin Turney, Andy Simmonett,      
	           Ed Hohenstein, and C. David Sherrill          
	 --------------------------------------------------------

   => Auxiliary Basis Set <=

  Basis Set: 
    Number of shells: 132
    Number of basis function: 364
    Number of Cartesian functions: 414
    Spherical Harmonics?: true
    Max angular momentum: 3

	 --------------------------------------------------------
	                 NBF =    80, NAUX =   364
	 --------------------------------------------------------
	   CLASS    FOCC     OCC    AOCC    AVIR     VIR    FVIR
	   PAIRS       0      17      17      63      63       0
	 --------------------------------------------------------

DGAS Warning! /src/lib/libfock/apps.cc:80 is not currently checking restricted

         ------------------------------------------------------------
                                     CPHF                           
                                  Rob Parrish                       
         ------------------------------------------------------------

  ==> Geometry <==

    Molecular point group: c1
    Full point group: C1

    Geometry (in Angstrom), charge = 0, multiplicity = 1:

       Center              X                  Y                   Z               Mass       
    ------------   -----------------  -----------------  -----------------  -----------------
           H         -2.220687216304     0.103509700745     0.149705754160     1.007825032070
           H         -2.079687216304     1.731509700745    -0.470294245840     1.007825032070
           H         -1.781687216304     0.367509700745    -1.520294245840     1.007825032070
           C         -1.682687216304     0.738509700745    -0.522294245840    12.000000000000
           H          0.344312783696     1.394509700745    -0.800294245840     1.007825032070
           H         -0.093687216304     1.131509700745     0.870705754160     1.007825032070
           C         -0.193687216304     0.759509700745    -0.127294245840    12.000000000000
           H         -0.396687216304    -1.374490299255     0.009705754160     1.007825032070
           H          0.764312783696    -0.847490299255    -1.183294245840     1.007825032070
           C          0.378312783696    -0.668490299255    -0.202294245840    12.000000000000
           H          1.907312783696    -1.815490299255     0.777705754160     1.007825032070
           H          1.124312783696    -0.645490299255     1.811705754160     1.007825032070
           H          2.286312783696    -0.117490299255     0.618705754160     1.007825032070
           C          1.510312783696    -0.823490299255     0.829705754160    12.000000000000

  Nuclear repulsion =  132.015012572198884
  Reference energy  = -157.290985153067368

  ==> Basis Set <==

  Basis Set: 6-31G(D)
    Number of shells: 44
    Number of basis function: 80
    Number of Cartesian functions: 80
    Spherical Harmonics?: false
    Max angular momentum: 2

  ==> CGRSolver (by Rob Parrish) <==

   Number of roots    =         1
   Preconditioning    =    JACOBI
   Convergence cutoff =     1E-06
   Maximum iterations =       100

  ==> CPHFRHamiltonian (by Rob Parrish) <== 

  ==> DFJK: Density-Fitted J/K Matrices <==

    J tasked:                  Yes
    K tasked:                  Yes
    wK tasked:                  No
    OpenMP threads:              1
    Integrals threads:           1
    Memory (MB):               715
    Algorithm:                Core
    Integral Cache:           NONE
    Schwarz Cutoff:          1E-12
    Fitting Condition:       1E-12

   => Auxiliary Basis Set <=

  Basis Set: 
    Number of shells: 186
    Number of basis function: 574
    Number of Cartesian functions: 574
    Spherical Harmonics?: false
    Max angular momentum: 3

  ==> CPHF Iterations <==

  => Iterations <=

             Iter  Converged  Remaining    Residual
  CGR           1          0          1   7.279E-02
  CGR           2          0          1   8.776E-03
  CGR           3          0          1   2.763E-03
  CGR           4          0          1   3.773E-04
  CGR           5          0          1   6.641E-05
  CGR           6          0          1   1.588E-05
  CGR           7          0          1   3.040E-06
  CGR           8          1          0   5.909E-07

    CGRSolver converged.

  ==> DFCorrGrad: Density-Fitted Correlated Gradients <==

    OpenMP threads:              1
    Integrals threads:           1
    Memory (MB):               715
    Schwarz Cutoff:          0E+00
    Fitting Condition:       1E-12

   => Auxiliary Basis Set <=

  Basis Set: 
    Number of shells: 186
    Number of basis function: 510
    Number of Cartesian functions: 574
    Spherical Harmonics?: true
    Max angular momentum: 3

	-----------------------------------------------------------
	 ==================> DF-MP2 Energies <==================== 
	-----------------------------------------------------------
	 Reference Energy          =    -157.2909851530673677 [Eh]
	 Singles Energy            =      -0.0000000000000000 [Eh]
	 Same-Spin Energy          =      -0.1243866664766638 [Eh]
	 Opposite-Spin Energy      =      -0.4202717941039683 [Eh]
	 Correlation Energy        =      -0.5446584605806322 [Eh]
	 Total Energy              =    -157.8356436136479886 [Eh]
	-----------------------------------------------------------
	 ================> DF-SCS-MP2 Energies <================== 
	-----------------------------------------------------------
	 SCS Same-Spin Scale       =       0.3333333333333333 [-]
	 SCS Opposite-Spin Scale   =       1.2000000000000000 [-]
	 SCS Same-Spin Energy      =      -0.0414622221588879 [Eh]
	 SCS Opposite-Spin Energy  =      -0.5043261529247619 [Eh]
	 SCS Correlation Energy    =      -0.5457883750836499 [Eh]
	 SCS Total Energy          =    -157.8367735281510136 [Eh]
	-----------------------------------------------------------


  -Total Gradient:
     Atom            X                  Y                   Z
    ------   -----------------  -----------------  -----------------
       1        0.010359452555     0.009117855965    -0.009105347152
       2        0.010513910040    -0.013736353146     0.000857912720
       3        0.004401639867     0.005889302231     0.015593913012
       4       -0.027489319840    -0.008644436284    -0.007259170284
       5       -0.010051994861    -0.012742672252     0.007106227519
       6       -0.002237712246    -0.008318770276    -0.015385185051
       7        0.023124969688     0.029554032549     0.013409656324
       8        0.011927446618     0.013102891779    -0.001687016523
       9       -0.003262384915     0.006299328282     0.017037234312
      10       -0.016411894348    -0.026625149545    -0.024945750081
      11       -0.009843873551     0.014868910018    -0.002530719147
      12        0.003594372781    -0.002166777193    -0.015749485190
      13       -0.013228851530    -0.010057081196     0.000942208986
      14        0.018604239742     0.003458919067     0.021715520555


			-----------------------------------------
			 OPTKING 2.0: for geometry optimizations 
			  - R.A. King,  Bethel University        
			-----------------------------------------

	Internal coordinates to be generated automatically.
	Detected frag 1 with atoms:  1 2 3 4 5 6 7 8 9 10 11 12 13 14
	---Fragment 1 Bond Connectivity---
	 1 : 4
	 2 : 4
	 3 : 4
	 4 : 1 2 3 7
	 5 : 7
	 6 : 7
	 7 : 4 5 6 10
	 8 : 10
	 9 : 10
	 10 : 7 8 9 14
	 11 : 14
	 12 : 14
	 13 : 14
	 14 : 10 11 12 13

	Assuming in current code that numbering for constraints corresponds to unified fragment.
	Fixed dihedral atom list: 
	     4     7    10    14
	---Fragment 1 Geometry and Gradient---
	 H          -4.1964906656        0.1956049865        0.2829028759
	 H          -3.9300392809        3.2720791308       -0.8887273265
	 H          -3.3669008933        0.6944926856       -2.8729397660
	 C          -3.1798180061        1.3955810809       -0.9869930854
	 H           0.6506568652        2.6352414241       -1.5123369504
	 H          -0.1770431810        2.1382434511        1.6453954177
	 C          -0.3660157943        1.4352653297       -0.2405512629
	 H          -0.7496301992       -2.5974102379        0.0183412173
	 H           1.4443418410       -1.6015245659       -2.2361020593
	 C           0.7149075538       -1.2632635881       -0.3822807229
	 H           3.6042988109       -3.4307794625        1.4696508873
	 H           2.1246432489       -1.2197998870        3.4236277087
	 H           4.3205050153       -0.2220244889        1.1691844322
	 C           2.8540775362       -1.5561711387        1.5679166462
	             0.0103594526        0.0091178560       -0.0091053472
	             0.0105139100       -0.0137363531        0.0008579127
	             0.0044016399        0.0058893022        0.0155939130
	            -0.0274893198       -0.0086444363       -0.0072591703
	            -0.0100519949       -0.0127426723        0.0071062275
	            -0.0022377122       -0.0083187703       -0.0153851851
	             0.0231249697        0.0295540325        0.0134096563
	             0.0119274466        0.0131028918       -0.0016870165
	            -0.0032623849        0.0062993283        0.0170372343
	            -0.0164118943       -0.0266251495       -0.0249457501
	            -0.0098438736        0.0148689100       -0.0025307191
	             0.0035943728       -0.0021667772       -0.0157494852
	            -0.0132288515       -0.0100570812        0.0009422090
	             0.0186042397        0.0034589191        0.0217155206

	Previous optimization step data not found.  Starting new optimization.

	---Fragment 1 Intrafragment Coordinates---
	 - Coordinate -           - BOHR/RAD -       - ANG/DEG -
	 R(1,4)           =         2.021436	       1.069698
	 R(2,4)           =         2.023298	       1.070683
	 R(3,4)           =         2.020723	       1.069320
	 R(4,7)           =         2.911397	       1.540645
	 R(5,7)           =         2.022623	       1.070326
	 R(6,7)           =         2.021555	       1.069761
	 R(7,10)          =         2.910419	       1.540128
	 R(8,10)          =         2.021216	       1.069582
	 R(9,10)          =         2.020680	       1.069298
	 R(10,14)         =         2.909487	       1.539634
	 R(11,14)         =         2.021545	       1.069756
	 R(12,14)         =         2.022099	       1.070049
	 R(13,14)         =         2.022213	       1.070109
	 B(1,4,2)         =         1.910870	     109.484805
	 B(1,4,3)         =         1.911121	     109.499161
	 B(1,4,7)         =         1.910399	     109.457783
	 B(2,4,3)         =         1.910042	     109.437340
	 B(2,4,7)         =         1.910564	     109.467262
	 B(3,4,7)         =         1.910803	     109.480971
	 B(4,7,5)         =         1.909937	     109.431343
	 B(4,7,6)         =         1.911630	     109.528316
	 B(4,7,10)        =         1.911154	     109.501062
	 B(5,7,6)         =         1.910605	     109.469614
	 B(5,7,10)        =         1.910047	     109.437654
	 B(6,7,10)        =         1.910425	     109.459295
	 B(7,10,8)        =         1.910550	     109.466446
	 B(7,10,9)        =         1.911295	     109.509133
	 B(7,10,14)       =         1.911095	     109.497698
	 B(8,10,9)        =         1.910183	     109.445408
	 B(8,10,14)       =         1.910739	     109.477293
	 B(9,10,14)       =         1.909937	     109.431329
	 B(10,14,11)      =         1.910948	     109.489275
	 B(10,14,12)      =         1.910454	     109.460926
	 B(10,14,13)      =         1.911958	     109.547148
	 B(11,14,12)      =         1.910002	     109.435045
	 B(11,14,13)      =         1.910377	     109.456517
	 B(12,14,13)      =         1.910059	     109.438346
	 D(1,4,7,5)       =         3.140997	     179.965873
	 D(1,4,7,6)       =        -1.047644	     -60.025575
	 D(1,4,7,10)      =         1.047427	      60.013132
	 D(2,4,7,5)       =        -1.047689	     -60.028143
	 D(2,4,7,6)       =         1.046856	      59.980409
	 D(2,4,7,10)      =        -3.141259	    -179.980883
	 D(3,4,7,5)       =         1.046044	      59.933911
	 D(3,4,7,6)       =         3.140588	     179.942463
	 D(3,4,7,10)      =        -1.047526	     -60.018830
	 D(4,7,10,8)      =        -0.523509	     -29.994864
	 D(4,7,10,9)      =         1.570688	      89.993813
	 D(4,7,10,14)     =        -2.618266	    -150.015596
	 D(5,7,10,8)      =        -2.617012	    -149.943739
	 D(5,7,10,9)      =        -0.522814	     -29.955062
	 D(5,7,10,14)     =         1.571416	      90.035529
	 D(6,7,10,8)      =         1.572298	      90.086062
	 D(6,7,10,9)      =        -2.616689	    -149.925261
	 D(6,7,10,14)     =        -0.522459	     -29.934670
	 D(7,10,14,11)    =         3.141290	     179.982653
	 D(7,10,14,12)    =         1.047585	      60.022208
	 D(7,10,14,13)    =        -1.046809	     -59.977723
	 D(8,10,14,11)    =         1.046649	      59.968559
	 D(8,10,14,12)    =        -1.047056	     -59.991886
	 D(8,10,14,13)    =        -3.141450	    -179.991818
	 D(9,10,14,11)    =        -1.046833	     -59.979141
	 D(9,10,14,12)    =        -3.140538	    -179.939586
	 D(9,10,14,13)    =         1.048253	      60.060482

	Current energy   :      -157.8356436136

	Generating empirical Hessian (Schlegel '84) for each fragment.
	Adding user-defined constraint: Fragment 1; Coordinate 49:
		Value =    -2.618266; Fixed value    =    -2.617994
		Force =     0.000136; Force constant =     0.500000
	Removing off-diagonal coupling between coordinate 49 and others.
	Taking RFO optimization step.
	Going to follow RFO solution 1.
	Using RFO vector 1.

	Determining step-restricting scale parameter for RS-RFO.
	Maximum step size allowed    0.10000

	 Iter      |step|        alpha        rfo_root  
	------------------------------------------------
	    0     0.23986       1.00000           1
	    1     0.18101       4.93519           1
	    2     0.13813      15.49367           1
	    3     0.11264      31.58795           1
	    4     0.10206      43.10413           1
	    5     0.10007      45.77354           1
	    6     0.10000      45.87069           1
	------------------------------------------------
	Norm of target step-size    0.10000
	Projected energy change by RFO approximation:        -0.0061467500

	Back-transformation to cartesian coordinates...
	Successfully converged to displaced geometry.

	--- Internal Coordinate Step in ANG or DEG, aJ/ANG or AJ/DEG ---
	 ---------------------------------------------------------------------------
	   Coordinate                Previous        Force       Change         New 
	   ----------                --------       ------       ------       ------
	    1 R(1,4)          =      1.069698     0.134646     0.013606     1.083304
	    2 R(2,4)          =      1.070683     0.136733     0.013844     1.084527
	    3 R(3,4)          =      1.069320     0.140098     0.014146     1.083467
	    4 R(4,7)          =      1.540645    -0.018273    -0.002143     1.538502
	    5 R(5,7)          =      1.070326     0.140724     0.014238     1.084564
	    6 R(6,7)          =      1.069761     0.143807     0.014534     1.084294
	    7 R(7,10)         =      1.540128     0.015734     0.001844     1.541972
	    8 R(8,10)         =      1.069582     0.145212     0.014670     1.084252
	    9 R(9,10)         =      1.069298     0.147164     0.014859     1.084157
	   10 R(10,14)        =      1.539634    -0.013815    -0.001618     1.538016
	   11 R(11,14)        =      1.069756     0.142680     0.014419     1.084175
	   12 R(12,14)        =      1.070049     0.132731     0.013422     1.083470
	   13 R(13,14)        =      1.070109     0.135231     0.013676     1.083785
	   14 B(1,4,2)        =    109.484805    -0.000285    -0.505926   108.978878
	   15 B(1,4,3)        =    109.499161    -0.000206    -0.389474   109.109687
	   16 B(1,4,7)        =    109.457783     0.000139     0.243351   109.701134
	   17 B(2,4,3)        =    109.437340    -0.000299    -0.525551   108.911789
	   18 B(2,4,7)        =    109.467262     0.000470     0.847868   110.315130
	   19 B(3,4,7)        =    109.480971     0.000182     0.317759   109.798730
	   20 B(4,7,5)        =    109.431343    -0.000203    -0.271004   109.160338
	   21 B(4,7,6)        =    109.528316    -0.000200    -0.316567   109.211750
	   22 B(4,7,10)       =    109.501062     0.000772     1.264654   110.765716
	   23 B(5,7,6)        =    109.469614    -0.000022    -0.217682   109.251931
	   24 B(5,7,10)       =    109.437654    -0.000178    -0.245075   109.192580
	   25 B(6,7,10)       =    109.459295    -0.000169    -0.222220   109.237075
	   26 B(7,10,8)       =    109.466446    -0.000171    -0.226592   109.239854
	   27 B(7,10,9)       =    109.509133    -0.000187    -0.263716   109.245416
	   28 B(7,10,14)      =    109.497698     0.000777     1.271782   110.769480
	   29 B(8,10,9)       =    109.445408    -0.000020    -0.213150   109.232258
	   30 B(8,10,14)      =    109.477293    -0.000198    -0.310145   109.167148
	   31 B(9,10,14)      =    109.431329    -0.000202    -0.266528   109.164801
	   32 B(10,14,11)     =    109.489275     0.000469     0.846337   110.335613
	   33 B(10,14,12)     =    109.460926     0.000139     0.243730   109.704656
	   34 B(10,14,13)     =    109.547148     0.000173     0.301274   109.848421
	   35 B(11,14,12)     =    109.435045    -0.000281    -0.497637   108.937408
	   36 B(11,14,13)     =    109.456517    -0.000299    -0.527269   108.929248
	   37 B(12,14,13)     =    109.438346    -0.000201    -0.379838   109.058508
	   38 D(1,4,7,5)      =    179.965873     0.000027     0.278869   180.244741
	   39 D(1,4,7,6)      =    -60.025575    -0.000036    -0.341536   -60.367111
	   40 D(1,4,7,10)     =     60.013132    -0.000002    -0.030245    59.982888
	   41 D(2,4,7,5)      =    -60.028143     0.000033     0.333506   -59.694637
	   42 D(2,4,7,6)      =     59.980409    -0.000030    -0.286899    59.693511
	   43 D(2,4,7,10)     =   -179.980883     0.000003     0.024393  -179.956490
	   44 D(3,4,7,5)      =     59.933911     0.000040     0.411032    60.344942
	   45 D(3,4,7,6)      =    179.942463    -0.000023    -0.209373   179.733089
	   46 D(3,4,7,10)     =    -60.018830     0.000011     0.101918   -59.916912
	   47 D(4,7,10,8)     =    -29.994864     0.000014     0.139735   -29.855129
	   48 D(4,7,10,9)     =     89.993813    -0.000042    -0.417182    89.576631
	   49 D(4,7,10,14)    =   -150.015596    -0.000016    -0.123319  -150.138914
	   50 D(5,7,10,8)     =   -149.943739    -0.000012    -0.154018  -150.097758
	   51 D(5,7,10,9)     =    -29.955062    -0.000068    -0.710935   -30.665998
	   52 D(5,7,10,14)    =     90.035529    -0.000042    -0.417072    89.618457
	   53 D(6,7,10,8)     =     90.086062     0.000042     0.393721    90.479783
	   54 D(6,7,10,9)     =   -149.925261    -0.000013    -0.163196  -150.088457
	   55 D(6,7,10,14)    =    -29.934670     0.000013     0.130667   -29.804003
	   56 D(7,10,14,11)   =    179.982653     0.000004     0.036578   180.019232
	   57 D(7,10,14,12)   =     60.022208    -0.000002    -0.027376    59.994833
	   58 D(7,10,14,13)   =    -59.977723     0.000011     0.102735   -59.874988
	   59 D(8,10,14,11)   =     59.968559    -0.000029    -0.276440    59.692119
	   60 D(8,10,14,12)   =    -59.991886    -0.000035    -0.340394   -60.332280
	   61 D(8,10,14,13)   =   -179.991818    -0.000023    -0.210283  -180.202101
	   62 D(9,10,14,11)   =    -59.979141     0.000032     0.330866   -59.648275
	   63 D(9,10,14,12)   =   -179.939586     0.000026     0.266912  -179.672674
	   64 D(9,10,14,13)   =     60.060482     0.000039     0.397023    60.457505
	 ---------------------------------------------------------------------------
	 Forces used to impose fixed constraints are not included.
	  Forces zeroed: 49 

  ==> Convergence Check <==

  Measures of convergence in internal coordinates in au.
  Criteria marked as inactive (o), active & met (*), and active & unmet ( ).
  --------------------------------------------------------------------------------------------- ~
   Step     Total Energy     Delta E     MAX Force     RMS Force      MAX Disp      RMS Disp    ~
  --------------------------------------------------------------------------------------------- ~
    Convergence Criteria    1.00e-06 *    3.00e-04 *             o    1.20e-03 *             o  ~
  --------------------------------------------------------------------------------------------- ~
      1    -157.83564361   -1.58e+02      1.79e-02      7.29e-03 o    2.81e-02      1.25e-02 o  ~
  ---------------------------------------------------------------------------------------------

	Writing optimization data to binary file.
	Structure for next step:
	Cartesian Geometry (in Angstrom)
	    H    -2.2466240285   0.1008431873   0.1474734805
	    H    -2.1061483620   1.7407811979  -0.4887638793
	    H    -1.7991544497   0.3582894132  -1.5405550812
	    C    -1.6937251114   0.7386454321  -0.5315388331
	    H     0.3364389948   1.3991394612  -0.8157248897
	    H    -0.1128032718   1.1414921140   0.8752130373
	    C    -0.2077059868   0.7551600416  -0.1334668495
	    H    -0.3882227643  -1.3891185458   0.0234194413
	    H     0.7819129165  -0.8473342486  -1.1859879781
	    C     0.3897168271  -0.6651776225  -0.1918060506
	    H     1.9389036490  -1.8228823948   0.7878004703
	    H     1.1399681215  -0.6477251867   1.8330256372
	    H     2.3099176981  -0.1055848831   0.6277605985
	    C     1.5239047394  -0.8223921553   0.8350314546
			--------------------------
			 OPTKING Finished Execution 
			--------------------------

    Structure for next step:
    Molecular point group: c1
    Full point group: C1

    Geometry (in Angstrom), charge = 0, multiplicity = 1:

    H           -2.246612546487     0.100805922331     0.147398398167
    H           -2.106136879964     1.740743932963    -0.488838961604
    H           -1.799142967695     0.358252148262    -1.540630163502
    C           -1.693713629348     0.738608167178    -0.531613915401
    H            0.336450476799     1.399102196242    -0.815799971961
    H           -0.112791789801     1.141454849047     0.875137954976
    C           -0.207694504754     0.755122776665    -0.133541931781
    H           -0.388211282287    -1.389155810748     0.023344359021
    H            0.781924398583    -0.847371513563    -1.186063060433
    C            0.389728309130    -0.665214887402    -0.191881132866
    H            1.938915131055    -1.822919659724     0.787725387985
    H            1.139979603515    -0.647762451632     1.832950554946
    H            2.309929180188    -0.105622148004     0.627685516178
    C            1.523916221411    -0.822429420213     0.834956372294

gradient() will perform analytic gradient computation.
    SCF Algorithm Type (re)set to DF.

*** tstart() called on lski1497
*** at Mon Feb 20 17:23:48 2017


         ---------------------------------------------------------
                                   SCF
            by Justin Turney, Rob Parrish, and Andy Simmonett
                              RHF Reference
                        1 Threads,   1000 MiB Core
         ---------------------------------------------------------

  ==> Geometry <==

    Molecular point group: c1
    Full point group: C1

    Geometry (in Angstrom), charge = 0, multiplicity = 1:

       Center              X                  Y                   Z               Mass       
    ------------   -----------------  -----------------  -----------------  -----------------
           H         -2.246612546487     0.100805922331     0.147398398167     1.007825032070
           H         -2.106136879964     1.740743932963    -0.488838961604     1.007825032070
           H         -1.799142967695     0.358252148262    -1.540630163502     1.007825032070
           C         -1.693713629348     0.738608167178    -0.531613915401    12.000000000000
           H          0.336450476799     1.399102196242    -0.815799971961     1.007825032070
           H         -0.112791789801     1.141454849047     0.875137954976     1.007825032070
           C         -0.207694504754     0.755122776665    -0.133541931781    12.000000000000
           H         -0.388211282287    -1.389155810748     0.023344359021     1.007825032070
           H          0.781924398583    -0.847371513563    -1.186063060433     1.007825032070
           C          0.389728309130    -0.665214887402    -0.191881132866    12.000000000000
           H          1.938915131055    -1.822919659724     0.787725387985     1.007825032070
           H          1.139979603515    -0.647762451632     1.832950554946     1.007825032070
           H          2.309929180188    -0.105622148004     0.627685516178     1.007825032070
           C          1.523916221411    -0.822429420213     0.834956372294    12.000000000000

  Running in c1 symmetry.

  Rotational constants: A =      0.71153  B =      0.12430  C =      0.11830 [cm^-1]
  Rotational constants: A =  21331.26219  B =   3726.36967  C =   3546.53534 [MHz]
  Nuclear repulsion =  131.153916604958681

  Charge       = 0
  Multiplicity = 1
  Electrons    = 34
  Nalpha       = 17
  Nbeta        = 17

  ==> Algorithm <==

  SCF Algorithm Type is DF.
  DIIS enabled.
  MOM disabled.
  Fractional occupation disabled.
  Guess Type is READ.
  Energy threshold   = 1.00e-10
  Density threshold  = 1.00e-10
  Integral threshold = 0.00e+00

  ==> Primary Basis <==

  Basis Set: 6-31G(D)
    Number of shells: 44
    Number of basis function: 80
    Number of Cartesian functions: 80
    Spherical Harmonics?: false
    Max angular momentum: 2

  ==> Pre-Iterations <==

   -------------------------------------------------------
    Irrep   Nso     Nmo     Nalpha   Nbeta   Ndocc  Nsocc
   -------------------------------------------------------
     A         80      80       0       0       0       0
   -------------------------------------------------------
    Total      80      80      17      17      17       0
   -------------------------------------------------------

  ==> Integral Setup <==

  ==> DFJK: Density-Fitted J/K Matrices <==

    J tasked:                  Yes
    K tasked:                  Yes
    wK tasked:                  No
    OpenMP threads:              1
    Integrals threads:           1
    Memory (MB):               715
    Algorithm:                Core
    Integral Cache:           NONE
    Schwarz Cutoff:          1E-12
    Fitting Condition:       1E-12

   => Auxiliary Basis Set <=

  Basis Set: 
    Number of shells: 186
    Number of basis function: 574
    Number of Cartesian functions: 574
    Spherical Harmonics?: false
    Max angular momentum: 3

  Minimum eigenvalue in the overlap matrix is 4.6332982135E-03.
  Using Symmetric Orthogonalization.
  SCF Guess was Projection but file not found.
  Switching over to SAD guess.

  SCF Guess: Superposition of Atomic Densities via on-the-fly atomic UHF.

  ==> Iterations <==

                           Total Energy        Delta E     RMS |[F,P]|

   @DF-RHF iter   0:  -158.88333432540276   -1.58883e+02   4.65882e-02 
   @DF-RHF iter   1:  -157.20442953939147    1.67890e+00   3.95477e-03 
   @DF-RHF iter   2:  -157.28555818112517   -8.11286e-02   1.10358e-03 DIIS
   @DF-RHF iter   3:  -157.29346511786406   -7.90694e-03   2.71536e-04 DIIS
   @DF-RHF iter   4:  -157.29387910734090   -4.13989e-04   7.77076e-05 DIIS
   @DF-RHF iter   5:  -157.29391764539389   -3.85381e-05   1.31882e-05 DIIS
   @DF-RHF iter   6:  -157.29391899101540   -1.34562e-06   2.17174e-06 DIIS
   @DF-RHF iter   7:  -157.29391901657249   -2.55571e-08   7.29231e-07 DIIS
   @DF-RHF iter   8:  -157.29391901907672   -2.50424e-09   1.19729e-07 DIIS
   @DF-RHF iter   9:  -157.29391901919269   -1.15961e-10   2.61881e-08 DIIS
   @DF-RHF iter  10:  -157.29391901919871   -6.02540e-12   4.62277e-09 DIIS
   @DF-RHF iter  11:  -157.29391901919905   -3.41061e-13   9.86910e-10 DIIS
   @DF-RHF iter  12:  -157.29391901919877    2.84217e-13   2.98533e-10 DIIS
   @DF-RHF iter  13:  -157.29391901919905   -2.84217e-13   6.96375e-11 DIIS

  ==> Post-Iterations <==

    Orbital Energies (a.u.)
    -----------------------

    Doubly Occupied:                                                      

       1A    -11.212314     2A    -11.211743     3A    -11.206313  
       4A    -11.206275     5A     -1.068178     6A     -0.978595  
       7A     -0.859256     8A     -0.788827     9A     -0.641093  
      10A     -0.585068    11A     -0.582964    12A     -0.560722  
      13A     -0.511051    14A     -0.503347    15A     -0.466719  
      16A     -0.465409    17A     -0.446469  

    Virtual:                                                              

      18A      0.232685    19A      0.264591    20A      0.287240  
      21A      0.296555    22A      0.323828    23A      0.332464  
      24A      0.332686    25A      0.343983    26A      0.348869  
      27A      0.353258    28A      0.417800    29A      0.438657  
      30A      0.439979    31A      0.704146    32A      0.714548  
      33A      0.746241    34A      0.761422    35A      0.779389  
      36A      0.847530    37A      0.850401    38A      0.931053  
      39A      0.946494    40A      1.009994    41A      1.076106  
      42A      1.083023    43A      1.151397    44A      1.177237  
      45A      1.185445    46A      1.194336    47A      1.202046  
      48A      1.209726    49A      1.238712    50A      1.240364  
      51A      1.247661    52A      1.276924    53A      1.280631  
      54A      1.538927    55A      1.652286    56A      1.727587  
      57A      1.745352    58A      1.925489    59A      1.940650  
      60A      2.128410    61A      2.199544    62A      2.215508  
      63A      2.288314    64A      2.313587    65A      2.321764  
      66A      2.421029    67A      2.511593    68A      2.615004  
      69A      2.637752    70A      2.662105    71A      2.710214  
      72A      2.734198    73A      2.765122    74A      2.883801  
      75A      3.013648    76A      3.097168    77A      4.566044  
      78A      4.666669    79A      4.794681    80A      4.955857  

    Final Occupation by Irrep:
              A 
    DOCC [    17 ]

  Energy converged.

  @DF-RHF Final Energy:  -157.29391901919905

   => Energetics <=

    Nuclear Repulsion Energy =            131.1539166049586811
    One-Electron Energy =                -470.3069881916709392
    Two-Electron Energy =                 181.8591525675133482
    DFT Exchange-Correlation Energy =       0.0000000000000000
    Empirical Dispersion Energy =           0.0000000000000000
    PCM Polarization Energy =               0.0000000000000000
    EFP Energy =                            0.0000000000000000
    Total Energy =                       -157.2939190191989098


  Saving occupied orbitals to File 180.

*** tstop() called on lski1497 at Mon Feb 20 17:23:55 2017
Module time:
	user time   =       4.93 seconds =       0.08 minutes
	system time =       0.15 seconds =       0.00 minutes
	total time  =          7 seconds =       0.12 minutes
Total time:
	user time   =      27.54 seconds =       0.46 minutes
	system time =       0.87 seconds =       0.01 minutes
	total time  =         39 seconds =       0.65 minutes


Properties will be evaluated at   0.000000,   0.000000,   0.000000 Bohr

Properties computed using the SCF density matrix

  Nuclear Dipole Moment: (a.u.)
     X:    -0.1366      Y:    -0.0679      Z:     0.2465

  Electronic Dipole Moment: (a.u.)
     X:     0.1457      Y:     0.0722      Z:    -0.2629

  Dipole Moment: (a.u.)
     X:     0.0091      Y:     0.0042      Z:    -0.0164     Total:     0.0192

  Dipole Moment: (Debye)
     X:     0.0231      Y:     0.0107      Z:    -0.0418     Total:     0.0489


  //>>>>>>>>>>>>>>>>>>>>>>>>>>>>>>>>>>>//
  //               DFMP2               //
  //<<<<<<<<<<<<<<<<<<<<<<<<<<<<<<<<<<<//


*** tstart() called on lski1497
*** at Mon Feb 20 17:23:55 2017


*** tstop() called on lski1497 at Mon Feb 20 17:23:56 2017
Module time:
	user time   =       0.57 seconds =       0.01 minutes
	system time =       0.00 seconds =       0.00 minutes
	total time  =          1 seconds =       0.02 minutes
Total time:
	user time   =      28.13 seconds =       0.47 minutes
	system time =       0.87 seconds =       0.01 minutes
	total time  =         40 seconds =       0.67 minutes
	 --------------------------------------------------------
	                          DF-MP2                         
	      2nd-Order Density-Fitted Moller-Plesset Theory     
	              RMP2 Wavefunction,   1 Threads             
	                                                         
	        Rob Parrish, Justin Turney, Andy Simmonett,      
	           Ed Hohenstein, and C. David Sherrill          
	 --------------------------------------------------------

   => Auxiliary Basis Set <=

  Basis Set: 
    Number of shells: 132
    Number of basis function: 364
    Number of Cartesian functions: 414
    Spherical Harmonics?: true
    Max angular momentum: 3

	 --------------------------------------------------------
	                 NBF =    80, NAUX =   364
	 --------------------------------------------------------
	   CLASS    FOCC     OCC    AOCC    AVIR     VIR    FVIR
	   PAIRS       0      17      17      63      63       0
	 --------------------------------------------------------

DGAS Warning! /src/lib/libfock/apps.cc:80 is not currently checking restricted

         ------------------------------------------------------------
                                     CPHF                           
                                  Rob Parrish                       
         ------------------------------------------------------------

  ==> Geometry <==

    Molecular point group: c1
    Full point group: C1

    Geometry (in Angstrom), charge = 0, multiplicity = 1:

       Center              X                  Y                   Z               Mass       
    ------------   -----------------  -----------------  -----------------  -----------------
           H         -2.246612546487     0.100805922331     0.147398398167     1.007825032070
           H         -2.106136879964     1.740743932963    -0.488838961604     1.007825032070
           H         -1.799142967695     0.358252148262    -1.540630163502     1.007825032070
           C         -1.693713629348     0.738608167178    -0.531613915401    12.000000000000
           H          0.336450476799     1.399102196242    -0.815799971961     1.007825032070
           H         -0.112791789801     1.141454849047     0.875137954976     1.007825032070
           C         -0.207694504754     0.755122776665    -0.133541931781    12.000000000000
           H         -0.388211282287    -1.389155810748     0.023344359021     1.007825032070
           H          0.781924398583    -0.847371513563    -1.186063060433     1.007825032070
           C          0.389728309130    -0.665214887402    -0.191881132866    12.000000000000
           H          1.938915131055    -1.822919659724     0.787725387985     1.007825032070
           H          1.139979603515    -0.647762451632     1.832950554946     1.007825032070
           H          2.309929180188    -0.105622148004     0.627685516178     1.007825032070
           C          1.523916221411    -0.822429420213     0.834956372294    12.000000000000

  Nuclear repulsion =  131.153916604958681
  Reference energy  = -157.293919019199052

  ==> Basis Set <==

  Basis Set: 6-31G(D)
    Number of shells: 44
    Number of basis function: 80
    Number of Cartesian functions: 80
    Spherical Harmonics?: false
    Max angular momentum: 2

  ==> CGRSolver (by Rob Parrish) <==

   Number of roots    =         1
   Preconditioning    =    JACOBI
   Convergence cutoff =     1E-06
   Maximum iterations =       100

  ==> CPHFRHamiltonian (by Rob Parrish) <== 

  ==> DFJK: Density-Fitted J/K Matrices <==

    J tasked:                  Yes
    K tasked:                  Yes
    wK tasked:                  No
    OpenMP threads:              1
    Integrals threads:           1
    Memory (MB):               715
    Algorithm:                Core
    Integral Cache:           NONE
    Schwarz Cutoff:          1E-12
    Fitting Condition:       1E-12

   => Auxiliary Basis Set <=

  Basis Set: 
    Number of shells: 186
    Number of basis function: 574
    Number of Cartesian functions: 574
    Spherical Harmonics?: false
    Max angular momentum: 3

  ==> CPHF Iterations <==

  => Iterations <=

             Iter  Converged  Remaining    Residual
  CGR           1          0          1   7.335E-02
  CGR           2          0          1   8.933E-03
  CGR           3          0          1   2.807E-03
  CGR           4          0          1   3.785E-04
  CGR           5          0          1   6.768E-05
  CGR           6          0          1   1.604E-05
  CGR           7          0          1   2.939E-06
  CGR           8          1          0   5.816E-07

    CGRSolver converged.

  ==> DFCorrGrad: Density-Fitted Correlated Gradients <==

    OpenMP threads:              1
    Integrals threads:           1
    Memory (MB):               715
    Schwarz Cutoff:          0E+00
    Fitting Condition:       1E-12

   => Auxiliary Basis Set <=

  Basis Set: 
    Number of shells: 186
    Number of basis function: 510
    Number of Cartesian functions: 574
    Spherical Harmonics?: true
    Max angular momentum: 3

	-----------------------------------------------------------
	 ==================> DF-MP2 Energies <==================== 
	-----------------------------------------------------------
	 Reference Energy          =    -157.2939190191990519 [Eh]
	 Singles Energy            =      -0.0000000000000000 [Eh]
	 Same-Spin Energy          =      -0.1242956506331110 [Eh]
	 Opposite-Spin Energy      =      -0.4215550827873592 [Eh]
	 Correlation Energy        =      -0.5458507334204702 [Eh]
	 Total Energy              =    -157.8397697526195316 [Eh]
	-----------------------------------------------------------
	 ================> DF-SCS-MP2 Energies <================== 
	-----------------------------------------------------------
	 SCS Same-Spin Scale       =       0.3333333333333333 [-]
	 SCS Opposite-Spin Scale   =       1.2000000000000000 [-]
	 SCS Same-Spin Energy      =      -0.0414318835443703 [Eh]
	 SCS Opposite-Spin Energy  =      -0.5058660993448311 [Eh]
	 SCS Correlation Energy    =      -0.5472979828892014 [Eh]
	 SCS Total Energy          =    -157.8412170020882570 [Eh]
	-----------------------------------------------------------


  -Total Gradient:
     Atom            X                  Y                   Z
    ------   -----------------  -----------------  -----------------
       1        0.005078786088     0.003544929921    -0.003040184768
       2        0.004958488264    -0.004788064469     0.000819969138
       3        0.002979740247     0.002559860604     0.006017089346
       4       -0.016455341366    -0.005210778127    -0.003573438063
       5       -0.005060670391    -0.006806809927     0.000369590792
       6       -0.001580780135    -0.004915690759    -0.005687224966
       7        0.013854636640     0.018234409371     0.007993635108
       8        0.004423819608     0.006298002656     0.000732427711
       9        0.000888669861     0.004746286346     0.007218351139
      10       -0.009753589566    -0.016285217462    -0.015093580218
      11       -0.004574661075     0.005257835611    -0.001655190112
      12        0.000446174789    -0.000811688084    -0.006738056677
      13       -0.005755842032    -0.003841644551    -0.000725738206
      14        0.010550569067     0.002018568870     0.013362349774


			-----------------------------------------
			 OPTKING 2.0: for geometry optimizations 
			  - R.A. King,  Bethel University        
			-----------------------------------------

	Previous internal coordinate definitions found.
	---Fragment 1 Geometry and Gradient---
	 H          -4.2454824396        0.1904955858        0.2785426050
	 H          -3.9800219015        3.2895293008       -0.9237717605
	 H          -3.3998874829        0.6769984467       -2.9113690811
	 C          -3.2006549070        1.3957671555       -1.0046047085
	 H           0.6357992584        2.6439199828       -1.5416385262
	 H          -0.2131455928        2.1570370578        1.6537710634
	 C          -0.3924857333        1.4269752446       -0.2523576783
	 H          -0.7336130052       -2.6251240382        0.0441144453
	 H           1.4776229699       -1.6013000934       -2.2413343606
	 C           0.7364797705       -1.2570739567       -0.3626027912
	 H           3.6640185926       -3.4448189191        1.4885852512
	 H           2.1542492477       -1.2240936328        3.4637745640
	 H           4.3651335369       -0.1995969333        1.1861537232
	 C           2.8797843079       -1.5541663678        1.5778388765
	             0.0050787861        0.0035449299       -0.0030401848
	             0.0049584883       -0.0047880645        0.0008199691
	             0.0029797402        0.0025598606        0.0060170893
	            -0.0164553414       -0.0052107781       -0.0035734381
	            -0.0050606704       -0.0068068099        0.0003695908
	            -0.0015807801       -0.0049156908       -0.0056872250
	             0.0138546366        0.0182344094        0.0079936351
	             0.0044238196        0.0062980027        0.0007324277
	             0.0008886699        0.0047462863        0.0072183511
	            -0.0097535896       -0.0162852175       -0.0150935802
	            -0.0045746611        0.0052578356       -0.0016551901
	             0.0004461748       -0.0008116881       -0.0067380567
	            -0.0057558420       -0.0038416446       -0.0007257382
	             0.0105505691        0.0020185689        0.0133623498

	---Fragment 1 Intrafragment Coordinates---
	 - Coordinate -           - BOHR/RAD -       - ANG/DEG -
	 R(1,4)           =         2.047147	       1.083304
	 R(2,4)           =         2.049459	       1.084527
	 R(3,4)           =         2.047455	       1.083467
	 R(4,7)           =         2.907346	       1.538502
	 R(5,7)           =         2.049529	       1.084564
	 R(6,7)           =         2.049019	       1.084294
	 R(7,10)          =         2.913904	       1.541972
	 R(8,10)          =         2.048939	       1.084252
	 R(9,10)          =         2.048760	       1.084157
	 R(10,14)         =         2.906429	       1.538016
	 R(11,14)         =         2.048794	       1.084175
	 R(12,14)         =         2.047462	       1.083470
	 R(13,14)         =         2.048057	       1.083785
	 B(1,4,2)         =         1.902040	     108.978878
	 B(1,4,3)         =         1.904323	     109.109687
	 B(1,4,7)         =         1.914646	     109.701134
	 B(2,4,3)         =         1.900869	     108.911789
	 B(2,4,7)         =         1.925362	     110.315130
	 B(3,4,7)         =         1.916349	     109.798730
	 B(4,7,5)         =         1.905207	     109.160338
	 B(4,7,6)         =         1.906105	     109.211750
	 B(4,7,10)        =         1.933226	     110.765716
	 B(5,7,6)         =         1.906806	     109.251931
	 B(5,7,10)        =         1.905770	     109.192580
	 B(6,7,10)        =         1.906547	     109.237075
	 B(7,10,8)        =         1.906595	     109.239854
	 B(7,10,9)        =         1.906692	     109.245416
	 B(7,10,14)       =         1.933292	     110.769480
	 B(8,10,9)        =         1.906463	     109.232258
	 B(8,10,14)       =         1.905326	     109.167148
	 B(9,10,14)       =         1.905285	     109.164801
	 B(10,14,11)      =         1.925720	     110.335613
	 B(10,14,12)      =         1.914707	     109.704656
	 B(10,14,13)      =         1.917217	     109.848421
	 B(11,14,12)      =         1.901316	     108.937408
	 B(11,14,13)      =         1.901174	     108.929248
	 B(12,14,13)      =         1.903430	     109.058508
	 D(1,4,7,5)       =        -3.137321	    -179.755259
	 D(1,4,7,6)       =        -1.053605	     -60.367111
	 D(1,4,7,10)      =         1.046899	      59.982888
	 D(2,4,7,5)       =        -1.041868	     -59.694637
	 D(2,4,7,6)       =         1.041848	      59.693511
	 D(2,4,7,10)      =        -3.140833	    -179.956490
	 D(3,4,7,5)       =         1.053218	      60.344942
	 D(3,4,7,6)       =         3.136934	     179.733089
	 D(3,4,7,10)      =        -1.045747	     -59.916912
	 D(4,7,10,8)      =        -0.521070	     -29.855129
	 D(4,7,10,9)      =         1.563407	      89.576631
	 D(4,7,10,14)     =        -2.620418	    -150.138914
	 D(5,7,10,8)      =        -2.619700	    -150.097758
	 D(5,7,10,9)      =        -0.535223	     -30.665998
	 D(5,7,10,14)     =         1.564137	      89.618457
	 D(6,7,10,8)      =         1.579170	      90.479783
	 D(6,7,10,9)      =        -2.619538	    -150.088457
	 D(6,7,10,14)     =        -0.520178	     -29.804003
	 D(7,10,14,11)    =        -3.141257	    -179.980768
	 D(7,10,14,12)    =         1.047107	      59.994833
	 D(7,10,14,13)    =        -1.045016	     -59.874988
	 D(8,10,14,11)    =         1.041824	      59.692119
	 D(8,10,14,12)    =        -1.052997	     -60.332280
	 D(8,10,14,13)    =         3.138065	     179.797899
	 D(9,10,14,11)    =        -1.041059	     -59.648275
	 D(9,10,14,12)    =        -3.135880	    -179.672674
	 D(9,10,14,13)    =         1.055183	      60.457505

	Current energy   :      -157.8397697526

	Energy change for the previous step:
		Projected    :        -0.0061467500
		Actual       :        -0.0041261390

	Performing BFGS update.
	Previous computed or guess Hessian on step 1.
	Steps to be used in Hessian update: 1
	Adding user-defined constraint: Fragment 1; Coordinate 49:
		Value =    -2.620418; Fixed value    =    -2.617990
		Force =     0.001275; Force constant =     0.525000
	Removing off-diagonal coupling between coordinate 49 and others.
	Taking RFO optimization step.
	Going to follow RFO solution 1.
	Using RFO vector 1.

	Determining step-restricting scale parameter for RS-RFO.
	Maximum step size allowed    0.10000

	 Iter      |step|        alpha        rfo_root  
	------------------------------------------------
	    0     0.21753       1.00000           1
	    1     0.16629       4.47099           1
	    2     0.12848      12.83769           1
	    3     0.10819      23.15275           1
	    4     0.10101      28.88574           1
	    5     0.10002      29.79978           1
	    6     0.10000      29.81720           1
	------------------------------------------------
	Norm of target step-size    0.10000
	Projected energy change by RFO approximation:        -0.0008043858

	Back-transformation to cartesian coordinates...
	Could not converge backtransformation.
	Using first guess instead.

	--- Internal Coordinate Step in ANG or DEG, aJ/ANG or AJ/DEG ---
	 ---------------------------------------------------------------------------
	   Coordinate                Previous        Force       Change         New 
	   ----------                --------       ------       ------       ------
	    1 R(1,4)          =      1.083304     0.054251     0.008354     1.091658
	    2 R(2,4)          =      1.084527     0.051718     0.007588     1.092115
	    3 R(3,4)          =      1.083467     0.055960     0.008522     1.091989
	    4 R(4,7)          =      1.538502    -0.027227    -0.007115     1.531387
	    5 R(5,7)          =      1.084564     0.056132     0.008535     1.093099
	    6 R(6,7)          =      1.084294     0.059157     0.009111     1.093405
	    7 R(7,10)         =      1.541972    -0.008724    -0.003265     1.538706
	    8 R(8,10)         =      1.084252     0.059597     0.009163     1.093415
	    9 R(9,10)         =      1.084157     0.058456     0.008848     1.093005
	   10 R(10,14)        =      1.538016    -0.025177    -0.006720     1.531297
	   11 R(11,14)        =      1.084175     0.053806     0.007867     1.092042
	   12 R(12,14)        =      1.083470     0.053515     0.008248     1.091718
	   13 R(13,14)        =      1.083785     0.054182     0.008272     1.092057
	   14 B(1,4,2)        =    108.978878    -0.000189    -0.655129   108.323750
	   15 B(1,4,3)        =    109.109687    -0.000179    -0.754746   108.354941
	   16 B(1,4,7)        =    109.701134     0.000133     0.531068   110.232201
	   17 B(2,4,3)        =    108.911789    -0.000201    -0.689655   108.222135
	   18 B(2,4,7)        =    110.315130     0.000262     0.856519   111.171649
	   19 B(3,4,7)        =    109.798730     0.000164     0.651156   110.449886
	   20 B(4,7,5)        =    109.160338    -0.000070     0.063755   109.224093
	   21 B(4,7,6)        =    109.211750    -0.000090    -0.211953   108.999797
	   22 B(4,7,10)       =    110.765716     0.000387     1.196343   111.962058
	   23 B(5,7,6)        =    109.251931    -0.000099    -1.028929   108.223002
	   24 B(5,7,10)       =    109.192580    -0.000068     0.002433   109.195013
	   25 B(6,7,10)       =    109.237075    -0.000065    -0.074877   109.162198
	   26 B(7,10,8)       =    109.239854    -0.000066    -0.077158   109.162696
	   27 B(7,10,9)       =    109.245416    -0.000073    -0.024878   109.220539
	   28 B(7,10,14)      =    110.769480     0.000388     1.195978   111.965458
	   29 B(8,10,9)       =    109.232258    -0.000097    -1.021436   108.210823
	   30 B(8,10,14)      =    109.167148    -0.000088    -0.193805   108.973343
	   31 B(9,10,14)      =    109.164801    -0.000069     0.067799   109.232600
	   32 B(10,14,11)     =    110.335613     0.000261     0.844766   111.180379
	   33 B(10,14,12)     =    109.704656     0.000131     0.524650   110.229306
	   34 B(10,14,13)     =    109.848421     0.000158     0.625419   110.473840
	   35 B(11,14,12)     =    108.937408    -0.000185    -0.634775   108.302633
	   36 B(11,14,13)     =    108.929248    -0.000200    -0.692672   108.236576
	   37 B(12,14,13)     =    109.058508    -0.000174    -0.728111   108.330397
	   38 D(1,4,7,5)      =   -179.755259     0.000023     0.722774  -179.032484
	   39 D(1,4,7,6)      =    -60.367111    -0.000026    -0.609336   -60.976447
	   40 D(1,4,7,10)     =     59.982888    -0.000002    -0.084047    59.898840
	   41 D(2,4,7,5)      =    -59.694637     0.000027     0.798533   -58.896104
	   42 D(2,4,7,6)      =     59.693511    -0.000023    -0.533578    59.159933
	   43 D(2,4,7,10)     =   -179.956490     0.000001    -0.008289  -179.964780
	   44 D(3,4,7,5)      =     60.344942     0.000032     0.912079    61.257021
	   45 D(3,4,7,6)      =    179.733089    -0.000018    -0.420031   179.313058
	   46 D(3,4,7,10)     =    -59.916912     0.000006     0.105257   -59.811655
	   47 D(4,7,10,8)     =    -29.855129     0.000012     0.290479   -29.564650
	   48 D(4,7,10,9)     =     89.576631    -0.000034    -1.007529    88.569102
	   49 D(4,7,10,14)    =   -150.138914    -0.000009    -0.176188  -150.315102
	   50 D(5,7,10,8)     =   -150.097758    -0.000013    -0.552379  -150.650137
	   51 D(5,7,10,9)     =    -30.665998    -0.000059    -1.850387   -32.516385
	   52 D(5,7,10,14)    =     89.618457    -0.000034    -1.019046    88.599410
	   53 D(6,7,10,8)     =     90.479783     0.000033     0.736723    91.216506
	   54 D(6,7,10,9)     =   -150.088457    -0.000014    -0.561284  -150.649742
	   55 D(6,7,10,14)    =    -29.804003     0.000012     0.270057   -29.533946
	   56 D(7,10,14,11)   =   -179.980768     0.000002     0.015998  -179.964770
	   57 D(7,10,14,12)   =     59.994833    -0.000002    -0.073259    59.921574
	   58 D(7,10,14,13)   =    -59.874988     0.000006     0.103168   -59.771820
	   59 D(8,10,14,11)   =     59.692119    -0.000022    -0.517114    59.175006
	   60 D(8,10,14,12)   =    -60.332280    -0.000026    -0.606371   -60.938651
	   61 D(8,10,14,13)   =    179.797899    -0.000018    -0.429944   179.367956
	   62 D(9,10,14,11)   =    -59.648275     0.000027     0.792330   -58.855945
	   63 D(9,10,14,12)   =   -179.672674     0.000023     0.703073  -178.969601
	   64 D(9,10,14,13)   =     60.457505     0.000030     0.879500    61.337005
	 ---------------------------------------------------------------------------
	 Forces used to impose fixed constraints are not included.
	  Forces zeroed: 49 

  ==> Convergence Check <==

  Measures of convergence in internal coordinates in au.
  Criteria marked as inactive (o), active & met (*), and active & unmet ( ).
  ---------------------------------------------------------------------------------------------
   Step     Total Energy     Delta E     MAX Force     RMS Force      MAX Disp      RMS Disp   
  ---------------------------------------------------------------------------------------------
    Convergence Criteria    1.00e-06 *    3.00e-04 *             o    1.20e-03 *             o
  ---------------------------------------------------------------------------------------------
      2    -157.83976975   -4.13e-03      7.23e-03      3.23e-03 o    3.23e-02      1.25e-02 o  ~
  ---------------------------------------------------------------------------------------------

	Writing optimization data to binary file.
	Structure for next step:
	Cartesian Geometry (in Angstrom)
	    H    -2.2672484253   0.1088677956   0.1425237966
	    H    -2.1166905047   1.7523543676  -0.4980588818
	    H    -1.8157254574   0.3622288274  -1.5506590192
	    C    -1.6953445763   0.7454784001  -0.5352439442
	    H     0.3368805616   1.4046165394  -0.8144499452
	    H    -0.1224175993   1.1482447185   0.8770694226
	    C    -0.2167333271   0.7496097003  -0.1367008551
	    H    -0.3833087143  -1.3980518681   0.0291494598
	    H     0.7818020433  -0.8524992062  -1.1882586523
	    C     0.3958864491  -0.6611003010  -0.1837212630
	    H     1.9550455808  -1.8321492921   0.7876027116
	    H     1.1571437113  -0.6575372276   1.8444055785
	    H     2.3278210052  -0.1089925964   0.6348820918
	    C     1.5294289731  -0.8274557561   0.8322889058
			--------------------------
			 OPTKING Finished Execution 
			--------------------------

    Structure for next step:
    Molecular point group: c1
    Full point group: C1

    Geometry (in Angstrom), charge = 0, multiplicity = 1:

    H           -2.267437902643     0.108783495693     0.142769187810
    H           -2.116879982021     1.752270067699    -0.497813490597
    H           -1.815914934716     0.362144527460    -1.550413627983
    C           -1.695534053640     0.745394100157    -0.534998553036
    H            0.336691084264     1.404532239430    -0.814204553963
    H           -0.122607076653     1.148160418589     0.877314813801
    C           -0.216922804408     0.749525400403    -0.136455463948
    H           -0.383498191660    -1.398136168036     0.029394850969
    H            0.781612565992    -0.852583506152    -1.188013261131
    C            0.395696971743    -0.661184600908    -0.183475871790
    H            1.954856103475    -1.832233592073     0.787848102835
    H            1.156954233941    -0.657621527495     1.844650969651
    H            2.327631527891    -0.109076896355     0.635127483002
    C            1.529239495786    -0.827540056071     0.832534297010

gradient() will perform analytic gradient computation.
    SCF Algorithm Type (re)set to DF.

*** tstart() called on lski1497
*** at Mon Feb 20 17:24:18 2017


         ---------------------------------------------------------
                                   SCF
            by Justin Turney, Rob Parrish, and Andy Simmonett
                              RHF Reference
                        1 Threads,   1000 MiB Core
         ---------------------------------------------------------

  ==> Geometry <==

    Molecular point group: c1
    Full point group: C1

    Geometry (in Angstrom), charge = 0, multiplicity = 1:

       Center              X                  Y                   Z               Mass       
    ------------   -----------------  -----------------  -----------------  -----------------
           H         -2.267437902643     0.108783495693     0.142769187810     1.007825032070
           H         -2.116879982021     1.752270067699    -0.497813490597     1.007825032070
           H         -1.815914934716     0.362144527460    -1.550413627983     1.007825032070
           C         -1.695534053640     0.745394100157    -0.534998553036    12.000000000000
           H          0.336691084264     1.404532239430    -0.814204553963     1.007825032070
           H         -0.122607076653     1.148160418589     0.877314813801     1.007825032070
           C         -0.216922804408     0.749525400403    -0.136455463948    12.000000000000
           H         -0.383498191660    -1.398136168036     0.029394850969     1.007825032070
           H          0.781612565992    -0.852583506152    -1.188013261131     1.007825032070
           C          0.395696971743    -0.661184600908    -0.183475871790    12.000000000000
           H          1.954856103475    -1.832233592073     0.787848102835     1.007825032070
           H          1.156954233941    -0.657621527495     1.844650969651     1.007825032070
           H          2.327631527891    -0.109076896355     0.635127483002     1.007825032070
           C          1.529239495786    -0.827540056071     0.832534297010    12.000000000000

  Running in c1 symmetry.

  Rotational constants: A =      0.71765  B =      0.12320  C =      0.11742 [cm^-1]
  Rotational constants: A =  21514.59720  B =   3693.48069  C =   3520.22166 [MHz]
  Nuclear repulsion =  130.801550625485021

  Charge       = 0
  Multiplicity = 1
  Electrons    = 34
  Nalpha       = 17
  Nbeta        = 17

  ==> Algorithm <==

  SCF Algorithm Type is DF.
  DIIS enabled.
  MOM disabled.
  Fractional occupation disabled.
  Guess Type is READ.
  Energy threshold   = 1.00e-10
  Density threshold  = 1.00e-10
  Integral threshold = 0.00e+00

  ==> Primary Basis <==

  Basis Set: 6-31G(D)
    Number of shells: 44
    Number of basis function: 80
    Number of Cartesian functions: 80
    Spherical Harmonics?: false
    Max angular momentum: 2

  ==> Pre-Iterations <==

   -------------------------------------------------------
    Irrep   Nso     Nmo     Nalpha   Nbeta   Ndocc  Nsocc
   -------------------------------------------------------
     A         80      80       0       0       0       0
   -------------------------------------------------------
    Total      80      80      17      17      17       0
   -------------------------------------------------------

  ==> Integral Setup <==

  ==> DFJK: Density-Fitted J/K Matrices <==

    J tasked:                  Yes
    K tasked:                  Yes
    wK tasked:                  No
    OpenMP threads:              1
    Integrals threads:           1
    Memory (MB):               715
    Algorithm:                Core
    Integral Cache:           NONE
    Schwarz Cutoff:          1E-12
    Fitting Condition:       1E-12

   => Auxiliary Basis Set <=

  Basis Set: 
    Number of shells: 186
    Number of basis function: 574
    Number of Cartesian functions: 574
    Spherical Harmonics?: false
    Max angular momentum: 3

  Minimum eigenvalue in the overlap matrix is 4.6532514664E-03.
  Using Symmetric Orthogonalization.
  SCF Guess was Projection but file not found.
  Switching over to SAD guess.

  SCF Guess: Superposition of Atomic Densities via on-the-fly atomic UHF.

  ==> Iterations <==

                           Total Energy        Delta E     RMS |[F,P]|

   @DF-RHF iter   0:  -158.85090273007731   -1.58851e+02   4.62856e-02 
   @DF-RHF iter   1:  -157.20474919829687    1.64615e+00   3.94634e-03 
   @DF-RHF iter   2:  -157.28623410036184   -8.14849e-02   1.11467e-03 DIIS
   @DF-RHF iter   3:  -157.29426238928292   -8.02829e-03   2.88255e-04 DIIS
   @DF-RHF iter   4:  -157.29471923487731   -4.56846e-04   7.90161e-05 DIIS
   @DF-RHF iter   5:  -157.29476067759495   -4.14427e-05   1.31158e-05 DIIS
   @DF-RHF iter   6:  -157.29476204081342   -1.36322e-06   1.95903e-06 DIIS
   @DF-RHF iter   7:  -157.29476206412389   -2.33105e-08   6.81169e-07 DIIS
   @DF-RHF iter   8:  -157.29476206622027   -2.09639e-09   1.24088e-07 DIIS
   @DF-RHF iter   9:  -157.29476206633856   -1.18291e-10   2.66822e-08 DIIS
   @DF-RHF iter  10:  -157.29476206634499   -6.42331e-12   4.68778e-09 DIIS
   @DF-RHF iter  11:  -157.29476206634510   -1.13687e-13   8.21238e-10 DIIS
   @DF-RHF iter  12:  -157.29476206634487    2.27374e-13   2.21820e-10 DIIS
   @DF-RHF iter  13:  -157.29476206634510   -2.27374e-13   6.64741e-11 DIIS

  ==> Post-Iterations <==

    Orbital Energies (a.u.)
    -----------------------

    Doubly Occupied:                                                      

       1A    -11.215040     2A    -11.214470     3A    -11.209521  
       4A    -11.209512     5A     -1.068028     6A     -0.978568  
       7A     -0.858337     8A     -0.786093     9A     -0.637973  
      10A     -0.583778    11A     -0.581655    12A     -0.560121  
      13A     -0.510575    14A     -0.500417    15A     -0.464760  
      16A     -0.462217    17A     -0.451471  

    Virtual:                                                              

      18A      0.232107    19A      0.263168    20A      0.284671  
      21A      0.294148    22A      0.322230    23A      0.329805  
      24A      0.330015    25A      0.340401    26A      0.346861  
      27A      0.351386    28A      0.418977    29A      0.441688  
      30A      0.442080    31A      0.704640    32A      0.710673  
      33A      0.746611    34A      0.763552    35A      0.781828  
      36A      0.850225    37A      0.853082    38A      0.933434  
      39A      0.949757    40A      1.009376    41A      1.074751  
      42A      1.088882    43A      1.142814    44A      1.168377  
      45A      1.176277    46A      1.185789    47A      1.194493  
      48A      1.202207    49A      1.231544    50A      1.233402  
      51A      1.239636    52A      1.268038    53A      1.275111  
      54A      1.538834    55A      1.653213    56A      1.733073  
      57A      1.741508    58A      1.923418    59A      1.933684  
      60A      2.122513    61A      2.206656    62A      2.209732  
      63A      2.283173    64A      2.313280    65A      2.313803  
      66A      2.415210    67A      2.494742    68A      2.604125  
      69A      2.630196    70A      2.655919    71A      2.705520  
      72A      2.729640    73A      2.765292    74A      2.887109  
      75A      3.022990    76A      3.093842    77A      4.561313  
      78A      4.662544    79A      4.791716    80A      4.952893  

    Final Occupation by Irrep:
              A 
    DOCC [    17 ]

  Energy converged.

  @DF-RHF Final Energy:  -157.29476206634510

   => Energetics <=

    Nuclear Repulsion Energy =            130.8015506254850209
    One-Electron Energy =                -469.6075530899604473
    Two-Electron Energy =                 181.5112403981306102
    DFT Exchange-Correlation Energy =       0.0000000000000000
    Empirical Dispersion Energy =           0.0000000000000000
    PCM Polarization Energy =               0.0000000000000000
    EFP Energy =                            0.0000000000000000
    Total Energy =                       -157.2947620663448447


  Saving occupied orbitals to File 180.

*** tstop() called on lski1497 at Mon Feb 20 17:24:25 2017
Module time:
	user time   =       4.87 seconds =       0.08 minutes
	system time =       0.14 seconds =       0.00 minutes
	total time  =          7 seconds =       0.12 minutes
Total time:
	user time   =      49.99 seconds =       0.83 minutes
	system time =       1.51 seconds =       0.03 minutes
	total time  =         69 seconds =       1.15 minutes


Properties will be evaluated at   0.000000,   0.000000,   0.000000 Bohr

Properties computed using the SCF density matrix

  Nuclear Dipole Moment: (a.u.)
     X:    -0.1393      Y:    -0.0691      Z:     0.2500

  Electronic Dipole Moment: (a.u.)
     X:     0.1471      Y:     0.0730      Z:    -0.2641

  Dipole Moment: (a.u.)
     X:     0.0078      Y:     0.0038      Z:    -0.0141     Total:     0.0165

  Dipole Moment: (Debye)
     X:     0.0198      Y:     0.0097      Z:    -0.0358     Total:     0.0420


  //>>>>>>>>>>>>>>>>>>>>>>>>>>>>>>>>>>>//
  //               DFMP2               //
  //<<<<<<<<<<<<<<<<<<<<<<<<<<<<<<<<<<<//


*** tstart() called on lski1497
*** at Mon Feb 20 17:24:25 2017


*** tstop() called on lski1497 at Mon Feb 20 17:24:26 2017
Module time:
	user time   =       0.54 seconds =       0.01 minutes
	system time =       0.00 seconds =       0.00 minutes
	total time  =          1 seconds =       0.02 minutes
Total time:
	user time   =      50.55 seconds =       0.84 minutes
	system time =       1.51 seconds =       0.03 minutes
	total time  =         70 seconds =       1.17 minutes
	 --------------------------------------------------------
	                          DF-MP2                         
	      2nd-Order Density-Fitted Moller-Plesset Theory     
	              RMP2 Wavefunction,   1 Threads             
	                                                         
	        Rob Parrish, Justin Turney, Andy Simmonett,      
	           Ed Hohenstein, and C. David Sherrill          
	 --------------------------------------------------------

   => Auxiliary Basis Set <=

  Basis Set: 
    Number of shells: 132
    Number of basis function: 364
    Number of Cartesian functions: 414
    Spherical Harmonics?: true
    Max angular momentum: 3

	 --------------------------------------------------------
	                 NBF =    80, NAUX =   364
	 --------------------------------------------------------
	   CLASS    FOCC     OCC    AOCC    AVIR     VIR    FVIR
	   PAIRS       0      17      17      63      63       0
	 --------------------------------------------------------

DGAS Warning! /src/lib/libfock/apps.cc:80 is not currently checking restricted

         ------------------------------------------------------------
                                     CPHF                           
                                  Rob Parrish                       
         ------------------------------------------------------------

  ==> Geometry <==

    Molecular point group: c1
    Full point group: C1

    Geometry (in Angstrom), charge = 0, multiplicity = 1:

       Center              X                  Y                   Z               Mass       
    ------------   -----------------  -----------------  -----------------  -----------------
           H         -2.267437902643     0.108783495693     0.142769187810     1.007825032070
           H         -2.116879982021     1.752270067699    -0.497813490597     1.007825032070
           H         -1.815914934716     0.362144527460    -1.550413627983     1.007825032070
           C         -1.695534053640     0.745394100157    -0.534998553036    12.000000000000
           H          0.336691084264     1.404532239430    -0.814204553963     1.007825032070
           H         -0.122607076653     1.148160418589     0.877314813801     1.007825032070
           C         -0.216922804408     0.749525400403    -0.136455463948    12.000000000000
           H         -0.383498191660    -1.398136168036     0.029394850969     1.007825032070
           H          0.781612565992    -0.852583506152    -1.188013261131     1.007825032070
           C          0.395696971743    -0.661184600908    -0.183475871790    12.000000000000
           H          1.954856103475    -1.832233592073     0.787848102835     1.007825032070
           H          1.156954233941    -0.657621527495     1.844650969651     1.007825032070
           H          2.327631527891    -0.109076896355     0.635127483002     1.007825032070
           C          1.529239495786    -0.827540056071     0.832534297010    12.000000000000

  Nuclear repulsion =  130.801550625485021
  Reference energy  = -157.294762066345100

  ==> Basis Set <==

  Basis Set: 6-31G(D)
    Number of shells: 44
[...]
    Max angular momentum: 3

  ==> CPHF Iterations <==

  => Iterations <=

             Iter  Converged  Remaining    Residual
  CGR           1          0          1   7.496E-02
  CGR           2          0          1   9.324E-03
  CGR           3          0          1   2.909E-03
  CGR           4          0          1   3.792E-04
  CGR           5          0          1   7.045E-05
  CGR           6          0          1   1.647E-05
  CGR           7          0          1   2.703E-06
  CGR           8          1          0   5.082E-07

    CGRSolver converged.

  ==> DFCorrGrad: Density-Fitted Correlated Gradients <==

    OpenMP threads:              1
    Integrals threads:           1
    Memory (MB):               715
    Schwarz Cutoff:          0E+00
    Fitting Condition:       1E-12

   => Auxiliary Basis Set <=

  Basis Set: 
    Number of shells: 186
    Number of basis function: 510
    Number of Cartesian functions: 574
    Spherical Harmonics?: true
    Max angular momentum: 3

	-----------------------------------------------------------
	 ==================> DF-MP2 Energies <==================== 
	-----------------------------------------------------------
	 Reference Energy          =    -157.2951735579672174 [Eh]
	 Singles Energy            =      -0.0000000000000000 [Eh]
	 Same-Spin Energy          =      -0.1243733954997444 [Eh]
	 Opposite-Spin Energy      =      -0.4222990011710187 [Eh]
	 Correlation Energy        =      -0.5466723966707631 [Eh]
	 Total Energy              =    -157.8418459546379893 [Eh]
	-----------------------------------------------------------
	 ================> DF-SCS-MP2 Energies <================== 
	-----------------------------------------------------------
	 SCS Same-Spin Scale       =       0.3333333333333333 [-]
	 SCS Opposite-Spin Scale   =       1.2000000000000000 [-]
	 SCS Same-Spin Energy      =      -0.0414577984999148 [Eh]
	 SCS Opposite-Spin Energy  =      -0.5067588014052223 [Eh]
	 SCS Correlation Energy    =      -0.5482165999051372 [Eh]
	 SCS Total Energy          =    -157.8433901578723635 [Eh]
	-----------------------------------------------------------


  -Total Gradient:
     Atom            X                  Y                   Z
    ------   -----------------  -----------------  -----------------
       1       -0.000003780266    -0.000001666928     0.000010315094
       2       -0.000006152334     0.000012012055    -0.000004166567
       3       -0.000009941418    -0.000008810198    -0.000012525288
       4       -0.000797121746    -0.000446982109     0.003079582223
       5       -0.000013118544     0.000002779983    -0.000000745179
       6        0.000008273149     0.000002470118    -0.000014332235
       7        0.000297417473     0.000253932556    -0.003400673872
       8        0.000007874222     0.000005398839    -0.000013888366
       9        0.000008577860    -0.000005162188     0.000009357331
      10        0.002619196548     0.001198713022    -0.001850411546
      11        0.000009360214    -0.000009909119    -0.000001517398
      12       -0.000006659764    -0.000003524249     0.000007677106
      13        0.000013232692     0.000010407014     0.000005536479
      14       -0.002127158084    -0.001009658796     0.002185792217


			-----------------------------------------
			 OPTKING 2.0: for geometry optimizations 
			  - R.A. King,  Bethel University        
			-----------------------------------------

	Previous internal coordinate definitions found.
	---Fragment 1 Geometry and Gradient---
	 H          -4.3089135192        0.2567287896        0.2971402906
	 H          -3.9902849180        3.3314811454       -0.9775401452
	 H          -3.4706899065        0.6562000271       -2.9102040096
	 C          -3.2049808431        1.4199279157       -1.0065950102
	 H           0.6575432822        2.6923053383       -1.4710345889
	 H          -0.2553511510        2.1563785449        1.6654523648
	 C          -0.4216046292        1.4051444170       -0.2598672013
	 H          -0.7157963347       -2.6400007482        0.0833170808
	 H           1.4122171372       -1.6615988728       -2.2560048021
	 C           0.7538960359       -1.2396696670       -0.3384917447
	 H           3.7359679521       -3.4581253994        1.4354911362
	 H           2.2084489298       -1.3027022416        3.4851891957
	 H           4.4044468142       -0.1912182493        1.2287635216
	 C           2.8997673194       -1.5719186667        1.5561945376
	            -0.0000037803       -0.0000016669        0.0000103151
	            -0.0000061523        0.0000120121       -0.0000041666
	            -0.0000099414       -0.0000088102       -0.0000125253
	            -0.0007971217       -0.0004469821        0.0030795822
	            -0.0000131185        0.0000027800       -0.0000007452
	             0.0000082731        0.0000024701       -0.0000143322
	             0.0002974175        0.0002539326       -0.0034006739
	             0.0000078742        0.0000053988       -0.0000138884
	             0.0000085779       -0.0000051622        0.0000093573
	             0.0026191965        0.0011987130       -0.0018504115
	             0.0000093602       -0.0000099091       -0.0000015174
	            -0.0000066598       -0.0000035242        0.0000076771
	             0.0000132327        0.0000104070        0.0000055365
	            -0.0021271581       -0.0010096588        0.0021857922

	---Fragment 1 Intrafragment Coordinates---
	 - Coordinate -           - BOHR/RAD -       - ANG/DEG -
	 R(1,4)           =         2.066743	       1.093673
	 R(2,4)           =         2.066781	       1.093693
	 R(3,4)           =         2.068238	       1.094464
	 R(4,7)           =         2.881840	       1.525004
	 R(5,7)           =         2.070814	       1.095827
	 R(6,7)           =         2.073366	       1.097178
	 R(7,10)          =         2.895345	       1.532151
	 R(8,10)          =         2.073366	       1.097178
	 R(9,10)          =         2.070813	       1.095827
	 R(10,14)         =         2.881838	       1.525003
	 R(11,14)         =         2.066779	       1.093692
	 R(12,14)         =         2.066741	       1.093672
	 R(13,14)         =         2.068237	       1.094464
	 B(1,4,2)         =         1.884647	     107.982330
	 B(1,4,3)         =         1.879846	     107.707254
	 B(1,4,7)         =         1.927887	     110.459801
	 B(2,4,3)         =         1.881423	     107.797603
	 B(2,4,7)         =         1.947744	     111.597533
	 B(3,4,7)         =         1.939790	     111.141787
	 B(4,7,5)         =         1.926851	     110.400420
	 B(4,7,6)         =         1.892518	     108.433268
	 B(4,7,10)        =         1.971183	     112.940472
	 B(5,7,6)         =         1.850545	     106.028441
	 B(5,7,10)        =         1.918066	     109.897092
	 B(6,7,10)        =         1.900366	     108.882935
	 B(7,10,8)        =         1.900367	     108.882998
	 B(7,10,9)        =         1.918068	     109.897200
	 B(7,10,14)       =         1.971182	     112.940435
	 B(8,10,9)        =         1.850546	     106.028450
	 B(8,10,14)       =         1.892516	     108.433159
	 B(9,10,14)       =         1.926850	     110.400387
	 B(10,14,11)      =         1.947748	     111.597715
	 B(10,14,12)      =         1.927885	     110.459673
	 B(10,14,13)      =         1.939787	     111.141586
	 B(11,14,12)      =         1.884648	     107.982364
	 B(11,14,13)      =         1.881423	     107.797584
	 B(12,14,13)      =         1.879849	     107.707393
	 D(1,4,7,5)       =        -3.060785	    -175.370043
	 D(1,4,7,6)       =        -1.040528	     -59.617846
	 D(1,4,7,10)      =         1.067205	      61.146319
	 D(2,4,7,5)       =        -0.963978	     -55.231860
	 D(2,4,7,6)       =         1.056279	      60.520338
	 D(2,4,7,10)      =        -3.119174	    -178.715498
	 D(3,4,7,5)       =         1.136835	      65.135840
	 D(3,4,7,6)       =        -3.126093	    -179.111962
	 D(3,4,7,10)      =        -1.018361	     -58.347798
	 D(4,7,10,8)      =        -0.523643	     -30.002523
	 D(4,7,10,9)      =         1.496243	      85.728431
	 D(4,7,10,14)     =        -2.626898	    -150.510192
	 D(5,7,10,8)      =        -2.683686	    -153.763888
	 D(5,7,10,9)      =        -0.663800	     -38.032934
	 D(5,7,10,14)     =         1.496244	      85.728443
	 D(6,7,10,8)      =         1.579615	      90.505265
	 D(6,7,10,9)      =        -2.683684	    -153.763781
	 D(6,7,10,14)     =        -0.523641	     -30.002405
	 D(7,10,14,11)    =        -3.119187	    -178.716245
	 D(7,10,14,12)    =         1.067190	      61.145494
	 D(7,10,14,13)    =        -1.018375	     -58.348583
	 D(8,10,14,11)    =         1.056266	      60.519611
	 D(8,10,14,12)    =        -1.040542	     -59.618650
	 D(8,10,14,13)    =        -3.126107	    -179.112727
	 D(9,10,14,11)    =        -0.963989	     -55.232517
	 D(9,10,14,12)    =        -3.060797	    -175.370778
	 D(9,10,14,13)    =         1.136823	      65.135145

	Current energy   :      -157.8418459546

	Energy change for the previous step:
		Projected    :        -0.0000001470
		Actual       :        -0.0000005692

	Performing BFGS update.
	Previous computed or guess Hessian on step 1.
	Steps to be used in Hessian update: 7 6
	Adding user-defined constraint: Fragment 1; Coordinate 49:
		Value =    -2.626898; Fixed value    =    -2.617990
		Force =     0.006013; Force constant =     0.675000
	Removing off-diagonal coupling between coordinate 49 and others.
	Taking RFO optimization step.
	Going to follow RFO solution 1.
	Rejecting RFO root 1 because normalization gives large value.
	Rejecting RFO root 2 because normalization gives large value.
	Using RFO vector 3.
	Norm of target step-size    0.00061
	Projected energy change by RFO approximation:        -0.0000000524

	Back-transformation to cartesian coordinates...
	Successfully converged to displaced geometry.

	--- Internal Coordinate Step in ANG or DEG, aJ/ANG or AJ/DEG ---
	 ---------------------------------------------------------------------------
	   Coordinate                Previous        Force       Change         New 
	   ----------                --------       ------       ------       ------
	    1 R(1,4)          =      1.093673    -0.000077    -0.000012     1.093661
	    2 R(2,4)          =      1.093693    -0.000111    -0.000018     1.093676
	    3 R(3,4)          =      1.094464    -0.000131    -0.000023     1.094442
	    4 R(4,7)          =      1.525004     0.000080     0.000027     1.525031
	    5 R(5,7)          =      1.095827     0.000038     0.000007     1.095835
	    6 R(6,7)          =      1.097178     0.000096     0.000015     1.097193
	    7 R(7,10)         =      1.532151    -0.000279    -0.000052     1.532098
	    8 R(8,10)         =      1.097178     0.000099     0.000015     1.097193
	    9 R(9,10)         =      1.095827     0.000040     0.000008     1.095835
	   10 R(10,14)        =      1.525003     0.000089     0.000029     1.525032
	   11 R(11,14)        =      1.093692    -0.000107    -0.000017     1.093676
	   12 R(12,14)        =      1.093672    -0.000073    -0.000011     1.093661
	   13 R(13,14)        =      1.094464    -0.000128    -0.000022     1.094442
	   14 B(1,4,2)        =    107.982330    -0.000000     0.001372   107.983702
	   15 B(1,4,3)        =    107.707254     0.000000     0.000794   107.708049
	   16 B(1,4,7)        =    110.459801     0.000000     0.003271   110.463072
	   17 B(2,4,3)        =    107.797603     0.000000     0.001036   107.798639
	   18 B(2,4,7)        =    111.597533    -0.000000    -0.000226   111.597308
	   19 B(3,4,7)        =    111.141787    -0.000001    -0.006071   111.135716
	   20 B(4,7,5)        =    110.400420     0.000005     0.003062   110.403482
	   21 B(4,7,6)        =    108.433268    -0.000004     0.000920   108.434188
	   22 B(4,7,10)       =    112.940472    -0.000002    -0.007627   112.932845
	   23 B(5,7,6)        =    106.028441    -0.000000     0.005586   106.034027
	   24 B(5,7,10)       =    109.897092     0.000000    -0.001287   109.895804
	   25 B(6,7,10)       =    108.882935     0.000000     0.000190   108.883126
	   26 B(7,10,8)       =    108.882998     0.000000     0.000119   108.883117
	   27 B(7,10,9)       =    109.897200     0.000000    -0.001465   109.895735
	   28 B(7,10,14)      =    112.940435    -0.000002    -0.007583   112.932852
	   29 B(8,10,9)       =    106.028450    -0.000000     0.005561   106.034011
	   30 B(8,10,14)      =    108.433159    -0.000004     0.001066   108.434226
	   31 B(9,10,14)      =    110.400387     0.000005     0.003143   110.403530
	   32 B(10,14,11)     =    111.597715    -0.000000    -0.000446   111.597269
	   33 B(10,14,12)     =    110.459673     0.000001     0.003432   110.463105
	   34 B(10,14,13)     =    111.141586    -0.000001    -0.005798   111.135788
	   35 B(11,14,12)     =    107.982364    -0.000000     0.001328   107.983692
	   36 B(11,14,13)     =    107.797584     0.000000     0.001023   107.798608
	   37 B(12,14,13)     =    107.707393     0.000000     0.000625   107.708018
	   38 D(1,4,7,5)      =   -175.370043     0.000000    -0.011212  -175.381255
	   39 D(1,4,7,6)      =    -59.617846     0.000000    -0.002297   -59.620143
	   40 D(1,4,7,10)     =     61.146319    -0.000001    -0.006301    61.140017
	   41 D(2,4,7,5)      =    -55.231860     0.000000    -0.007423   -55.239283
	   42 D(2,4,7,6)      =     60.520338     0.000000     0.001491    60.521829
	   43 D(2,4,7,10)     =   -178.715498    -0.000000    -0.002513  -178.718010
	   44 D(3,4,7,5)      =     65.135840     0.000000    -0.010420    65.125421
	   45 D(3,4,7,6)      =   -179.111962     0.000000    -0.001505  -179.113467
	   46 D(3,4,7,10)     =    -58.347798    -0.000001    -0.005509   -58.353307
	   47 D(4,7,10,8)     =    -30.002523     0.000001     0.000057   -30.002466
	   48 D(4,7,10,9)     =     85.728431     0.000001     0.005981    85.734412
	   49 D(4,7,10,14)    =   -150.510192     0.000002     0.003527  -150.506665
	   50 D(5,7,10,8)     =   -153.763888    -0.000000     0.002515  -153.761373
	   51 D(5,7,10,9)     =    -38.032934    -0.000000     0.008439   -38.024495
	   52 D(5,7,10,14)    =     85.728443     0.000001     0.005985    85.734428
	   53 D(6,7,10,8)     =     90.505265    -0.000000    -0.003578    90.501687
	   54 D(6,7,10,9)     =   -153.763781    -0.000000     0.002346  -153.761435
	   55 D(6,7,10,14)    =    -30.002405     0.000001    -0.000108   -30.002512
	   56 D(7,10,14,11)   =   -178.716245    -0.000000    -0.001121  -178.717366
	   57 D(7,10,14,12)   =     61.145494    -0.000001    -0.004817    61.140677
	   58 D(7,10,14,13)   =    -58.348583    -0.000001    -0.004096   -58.352679
	   59 D(8,10,14,11)   =     60.519611     0.000000     0.002842    60.522453
	   60 D(8,10,14,12)   =    -59.618650     0.000000    -0.000853   -59.619504
	   61 D(8,10,14,13)   =   -179.112727     0.000000    -0.000132  -179.112859
	   62 D(9,10,14,11)   =    -55.232517     0.000000    -0.006170   -55.238687
	   63 D(9,10,14,12)   =   -175.370778     0.000000    -0.009866  -175.380644
	   64 D(9,10,14,13)   =     65.135145     0.000000    -0.009145    65.126000
	 ---------------------------------------------------------------------------
	 Forces used to impose fixed constraints are not included.
	  Forces zeroed: 49 

  ==> Convergence Check <==

  Measures of convergence in internal coordinates in au.
  Criteria marked as inactive (o), active & met (*), and active & unmet ( ).
  ---------------------------------------------------------------------------------------------
   Step     Total Energy     Delta E     MAX Force     RMS Force      MAX Disp      RMS Disp   
  ---------------------------------------------------------------------------------------------
    Convergence Criteria    1.00e-06 *    3.00e-04 *             o    1.20e-03 *             o
  ---------------------------------------------------------------------------------------------
      8    -157.84184595   -5.69e-07 *    6.69e-05 *    2.52e-05 o    1.96e-04 *    7.58e-05 o  ~
  ---------------------------------------------------------------------------------------------


  **** Optimization is complete! (in 8 steps) ****

  ==> Optimization Summary <==

  Measures of convergence in internal coordinates in au.
  --------------------------------------------------------------------------------------------------------------- ~
   Step         Total Energy             Delta E       MAX Force       RMS Force        MAX Disp        RMS Disp  ~
  --------------------------------------------------------------------------------------------------------------- ~
      1    -157.835643613648   -157.835643613648      0.01786253      0.00728589      0.02807973      0.01251074  ~
      2    -157.839769752620     -0.004126138972      0.00723371      0.00322744      0.03229535      0.01249920  ~
      3    -157.841284812597     -0.001515059977      0.00238918      0.00100218      0.04818673      0.01249445  ~
      4    -157.841722872232     -0.000438059636      0.00107299      0.00032523      0.03665938      0.01249448  ~
      5    -157.841836433332     -0.000113561100      0.00019896      0.00007693      0.01945726      0.00946212  ~
      6    -157.841854830276     -0.000018396943      0.00024721      0.00005823      0.00687573      0.00336052  ~
      7    -157.841845385413      0.000009444862      0.00007379      0.00002732      0.00453266      0.00231660  ~
      8    -157.841845954638     -0.000000569225      0.00013547      0.00003038      0.00019568      0.00007578  ~
  --------------------------------------------------------------------------------------------------------------- ~

	Writing optimization data to binary file.
	Final energy is   -157.8418459546380
	Final (previous) structure:
	Cartesian Geometry (in Angstrom)
	    H    -2.2801788281   0.1358550242   0.1572398695
	    H    -2.1115678344   1.7629438930  -0.5172919653
	    H    -1.8366099966   0.3472460986  -1.5400136342
	    C    -1.6960028162   0.7513934908  -0.5326671377
	    H     0.3479569186   1.4247066236  -0.7784379775
	    H    -0.1351260093   1.1411063791   0.8813194334
	    C    -0.2231035608   0.7435704002  -0.1375158002
	    H    -0.3787831063  -1.3970282266   0.0440895003
	    H     0.7473131226  -0.8792802533  -1.1938263238
	    C     0.3989445998  -0.6560049339  -0.1791221166
	    H     1.9769890923  -1.8299611458   0.7596291924
	    H     1.1686608400  -0.6893603358   1.8442826900
	    H     2.3307328705  -0.1011883394   0.6502336504
	    C     1.5344907757  -0.8318235322   0.8235026814
	Saving final (previous) structure.
			--------------------------
			 OPTKING Finished Execution 
			--------------------------

    Final optimized geometry and variables:
    Molecular point group: c1
    Full point group: C1

    Geometry (in Angstrom), charge = 0, multiplicity = 1:

    H           -2.280178828121     0.135855024221     0.157239869526
    H           -2.111567834391     1.762943892975    -0.517291965297
    H           -1.836609996615     0.347246098604    -1.540013634207
    C           -1.696002816162     0.751393490840    -0.532667137653
    H            0.347956918605     1.424706623586    -0.778437977473
    H           -0.135126009302     1.141106379064     0.881319433421
    C           -0.223103560787     0.743570400235    -0.137515800191
    H           -0.378783106314    -1.397028226629     0.044089500260
    H            0.747313122566    -0.879280253312    -1.193826323767
    C            0.398944599820    -0.656004933949    -0.179122116598
    H            1.976989092296    -1.829961145826     0.759629192405
    H            1.168660839960    -0.689360335842     1.844282689989
    H            2.330732870530    -0.101188339417     0.650233650357
    C            1.534490775666    -0.831823532167     0.823502681419

	Cleaning optimization helper files.

*** Psi4 exiting successfully. Buy a developer a beer!
