    -----------------------------------------------------------------------
          Psi4: An Open-Source Ab Initio Electronic Structure Package
                              Psi4 1.0.0 Driver

                          Git: Rev {master} 6a9a71b 

    J. M. Turney, A. C. Simmonett, R. M. Parrish, E. G. Hohenstein,
    F. A. Evangelista, J. T. Fermann, B. J. Mintz, L. A. Burns, J. J. Wilke,
    M. L. Abrams, N. J. Russ, M. L. Leininger, C. L. Janssen, E. T. Seidl,
    W. D. Allen, H. F. Schaefer, R. A. King, E. F. Valeev, C. D. Sherrill,
    and T. D. Crawford, WIREs Comput. Mol. Sci. 2, 556-565 (2012)
    (doi: 10.1002/wcms.93)

                         Additional Contributions by
    A. E. DePrince, U. Bozkaya, A. Yu. Sokolov, D. G. A. Smith, R. Di Remigio,
    R. M. Richard, J. F. Gonthier, H. R. McAlexander, M. Saitow, and
    B. P. Pritchard
    -----------------------------------------------------------------------


    Psi4 started on: Tue Feb 21 18:38:34 2017

    Process ID:  39564
    PSI4DATADIR: /Users/sternc1/anaconda/share/psi4
    Memory level set to 256.000 MB

  ==> Input File <==

--------------------------------------------------------------------------

memory 1000 mb

molecule butane {
  symmetry C1
  0 1 
  H      1.604   0.760   -8.260
  H      1.745   2.388   -8.880
  H      2.043   1.024   -9.930
  C      2.142   1.395   -8.932
  H      4.169   2.051   -9.210
  H      3.731   1.788   -7.539
  C      3.631   1.416   -8.537
  H      4.429   -0.252   -9.630
  H      5.096   -0.070   -8.026
  C      4.203   -0.012   -8.612
  H      3.563   -2.002   -8.119
  H      2.273   -0.953   -8.653
  H      2.939   -0.771   -7.049
  C      3.166   -1.010   -8.067
  units Angstrom
}

dih_string = "4 7 10 14 320"
set optking fixed_dihedral = $dih_string

optimize('B3LYP/cc-PVDZ')
--------------------------------------------------------------------------

  Memory set to 1000.000 MiB by Python script.
gradient() will perform analytic gradient computation.

*** tstart() called on lski1497
*** at Tue Feb 21 18:38:35 2017


         ---------------------------------------------------------
                                   SCF
            by Justin Turney, Rob Parrish, and Andy Simmonett
                              RKS Reference
                        1 Threads,   1000 MiB Core
         ---------------------------------------------------------

  ==> Geometry <==

    Molecular point group: c1
    Full point group: C1

    Geometry (in Angstrom), charge = 0, multiplicity = 1:

       Center              X                  Y                   Z               Mass       
    ------------   -----------------  -----------------  -----------------  -----------------
           H         -1.659583309871     0.321591293445     0.275715886722     1.007825032070
           H         -1.518583309871     1.949591293445    -0.344284113278     1.007825032070
           H         -1.220583309871     0.585591293445    -1.394284113278     1.007825032070
           C         -1.121583309871     0.956591293445    -0.396284113278    12.000000000000
           H          0.905416690129     1.612591293445    -0.674284113278     1.007825032070
           H          0.467416690129     1.349591293445     0.996715886722     1.007825032070
           C          0.367416690129     0.977591293445    -0.001284113278    12.000000000000
           H          1.165416690129    -0.690408706555    -1.094284113278     1.007825032070
           H          1.832416690129    -0.508408706555     0.509715886722     1.007825032070
           C          0.939416690129    -0.450408706555    -0.076284113278    12.000000000000
           H          0.299416690129    -2.440408706555     0.416715886722     1.007825032070
           H         -0.990583309871    -1.391408706555    -0.117284113278     1.007825032070
           H         -0.324583309871    -1.209408706555     1.486715886722     1.007825032070
           C         -0.097583309871    -1.448408706555     0.468715886722    12.000000000000

  Running in c1 symmetry.

  Rotational constants: A =      0.39417  B =      0.19303  C =      0.14785 [cm^-1]
  Rotational constants: A =  11816.92153  B =   5786.96044  C =   4432.31786 [MHz]
  Nuclear repulsion =  135.634122936721496

  Charge       = 0
  Multiplicity = 1
  Electrons    = 34
  Nalpha       = 17
  Nbeta        = 17

  ==> Algorithm <==

  SCF Algorithm Type is DF.
  DIIS enabled.
  MOM disabled.
  Fractional occupation disabled.
  Guess Type is SAD.
  Energy threshold   = 1.00e-08
  Density threshold  = 1.00e-08
  Integral threshold = 0.00e+00

  ==> Primary Basis <==

  Basis Set: CC-PVDZ
    Number of shells: 54
    Number of basis function: 106
    Number of Cartesian functions: 110
    Spherical Harmonics?: true
    Max angular momentum: 2

  ==> DFT Potential <==

   => B3LYP Composite Functional <= 

    B3LYP Hybrid-GGA Exchange-Correlation Functional (VWN1-RPA)

    P.J. Stephens et. al., J. Phys. Chem., 98, 11623-11627, 1994

    Points   =           5000
    Deriv    =              1
    GGA      =           TRUE
    Meta     =          FALSE

    X_LRC        =          FALSE
    X_Hybrid     =           TRUE
    X_Alpha      =   2.000000E-01
    X_Omega      =   0.000000E+00
    C_LRC        =          FALSE
    C_Hybrid     =          FALSE
    C_Alpha      =   0.000000E+00
    C_Omega      =   0.000000E+00

   => Exchange Functionals <=

    0.8000    B3_X
    0.2000      HF 

   => Correlation Functionals <=

    0.1900 VWN3RPA_C
    0.8100   LYP_C

   => Molecular Quadrature <=

    Radial Scheme    =       TREUTLER
    Pruning Scheme   =           FLAT
    Nuclear Scheme   =       TREUTLER

    BS radius alpha  =              1
    Pruning alpha    =              1
    Radial Points    =             75
    Spherical Points =            302
    Total Points     =         312718
    Total Blocks     =            256
    Max Points       =           4980
    Max Functions    =            106

  ==> Pre-Iterations <==

   -------------------------------------------------------
    Irrep   Nso     Nmo     Nalpha   Nbeta   Ndocc  Nsocc
   -------------------------------------------------------
     A        106     106       0       0       0       0
   -------------------------------------------------------
    Total     106     106      17      17      17       0
   -------------------------------------------------------

  ==> Integral Setup <==

  ==> DFJK: Density-Fitted J/K Matrices <==

    J tasked:                  Yes
    K tasked:                  Yes
    wK tasked:                  No
    OpenMP threads:              1
    Integrals threads:           1
    Memory (MB):               715
    Algorithm:                Core
    Integral Cache:           NONE
    Schwarz Cutoff:          1E-12
    Fitting Condition:       1E-12

   => Auxiliary Basis Set <=

  Basis Set: 
    Number of shells: 186
    Number of basis function: 510
    Number of Cartesian functions: 574
    Spherical Harmonics?: true
    Max angular momentum: 3

  Minimum eigenvalue in the overlap matrix is 4.1693935994E-03.
  Using Symmetric Orthogonalization.
  SCF Guess: Superposition of Atomic Densities via on-the-fly atomic UHF.

  ==> Iterations <==

                           Total Energy        Delta E     RMS |[F,P]|

   @DF-RKS iter   0:  -159.02111937353288   -1.59021e+02   3.36217e-02 
   @DF-RKS iter   1:  -158.25234795438544    7.68771e-01   5.46082e-03 
   @DF-RKS iter   2:  -158.17291197127128    7.94360e-02   6.61220e-03 DIIS
   @DF-RKS iter   3:  -158.44030723461492   -2.67395e-01   4.02132e-04 DIIS
   @DF-RKS iter   4:  -158.44121540238297   -9.08168e-04   1.19207e-04 DIIS
   @DF-RKS iter   5:  -158.44128559119349   -7.01888e-05   4.65687e-05 DIIS
   @DF-RKS iter   6:  -158.44129724274813   -1.16516e-05   7.72020e-06 DIIS
   @DF-RKS iter   7:  -158.44129761123858   -3.68490e-07   1.06659e-06 DIIS
   @DF-RKS iter   8:  -158.44129761891000   -7.67142e-09   1.61262e-07 DIIS
   @DF-RKS iter   9:  -158.44129761903122   -1.21219e-10   8.72509e-08 DIIS
   @DF-RKS iter  10:  -158.44129761907266   -4.14389e-11   1.40135e-08 DIIS
   @DF-RKS iter  11:  -158.44129761907413   -1.47793e-12   1.93218e-09 DIIS

  ==> Post-Iterations <==

    Orbital Energies (a.u.)
    -----------------------

    Doubly Occupied:                                                      

       1A    -10.170040     2A    -10.169845     3A    -10.162554  
       4A    -10.162409     5A     -0.798565     6A     -0.714293  
       7A     -0.648169     8A     -0.564204     9A     -0.467359  
      10A     -0.459193    11A     -0.414077    12A     -0.388699  
      13A     -0.374690    14A     -0.358620    15A     -0.325306  
      16A     -0.319202    17A     -0.318361  

    Virtual:                                                              

      18A      0.063269    19A      0.098381    20A      0.102243  
      21A      0.110089    22A      0.135446    23A      0.139502  
      24A      0.165367    25A      0.166633    26A      0.171744  
      27A      0.180500    28A      0.209101    29A      0.237351  
      30A      0.260943    31A      0.416547    32A      0.426571  
      33A      0.440833    34A      0.448204    35A      0.451862  
      36A      0.482372    37A      0.500229    38A      0.595524  
      39A      0.602533    40A      0.626596    41A      0.632795  
      42A      0.649835    43A      0.668768    44A      0.674421  
      45A      0.682722    46A      0.685746    47A      0.700432  
      48A      0.707737    49A      0.736562    50A      0.737892  
      51A      0.779910    52A      0.828384    53A      0.883813  
      54A      0.919011    55A      0.973251    56A      1.082983  
      57A      1.159952    58A      1.198057    59A      1.216388  
      60A      1.300559    61A      1.313684    62A      1.378500  
      63A      1.419635    64A      1.422858    65A      1.497345  
      66A      1.573215    67A      1.575025    68A      1.586776  
      69A      1.595305    70A      1.635543    71A      1.652230  
      72A      1.675746    73A      1.689906    74A      1.695659  
      75A      1.701120    76A      1.704241    77A      1.716724  
      78A      1.771624    79A      1.781132    80A      1.786365  
      81A      1.822261    82A      1.825447    83A      1.891568  
      84A      1.907521    85A      1.979946    86A      1.996676  
      87A      2.018939    88A      2.114108    89A      2.130746  
      90A      2.141203    91A      2.231085    92A      2.269340  
      93A      2.284617    94A      2.327768    95A      2.354902  
      96A      2.375126    97A      2.501983    98A      2.503662  
      99A      2.527261   100A      2.552712   101A      2.560142  
     102A      2.584741   103A      2.652431   104A      2.680915  
     105A      2.746522   106A      2.765688  

    Final Occupation by Irrep:
              A 
    DOCC [    17 ]

  Energy converged.

  @DF-RKS Final Energy:  -158.44129761907413

   => Energetics <=

    Nuclear Repulsion Energy =            135.6341229367214964
    One-Electron Energy =                -479.6488457202813152
    Two-Electron Energy =                 206.2623483612628661
    DFT Exchange-Correlation Energy =     -20.6889231967771927
    Empirical Dispersion Energy =           0.0000000000000000
    PCM Polarization Energy =               0.0000000000000000
    EFP Energy =                            0.0000000000000000
    Total Energy =                       -158.4412976190741347


  Saving occupied orbitals to File 180.

*** tstop() called on lski1497 at Tue Feb 21 18:41:09 2017
Module time:
	user time   =     130.87 seconds =       2.18 minutes
	system time =       1.82 seconds =       0.03 minutes
	total time  =        154 seconds =       2.57 minutes
Total time:
	user time   =     130.87 seconds =       2.18 minutes
	system time =       1.82 seconds =       0.03 minutes
	total time  =        154 seconds =       2.57 minutes


Properties will be evaluated at   0.000000,   0.000000,   0.000000 Bohr

Properties computed using the SCF density matrix

  Nuclear Dipole Moment: (a.u.)
     X:    -0.9786      Y:    -0.3948      Z:     0.0573

  Electronic Dipole Moment: (a.u.)
     X:     0.9967      Y:     0.4015      Z:    -0.0585

  Dipole Moment: (a.u.)
     X:     0.0182      Y:     0.0067      Z:    -0.0012     Total:     0.0194

  Dipole Moment: (Debye)
     X:     0.0461      Y:     0.0171      Z:    -0.0030     Total:     0.0493


*** tstart() called on lski1497
*** at Tue Feb 21 18:41:09 2017


         ------------------------------------------------------------
                                   SCF GRAD                          
                          Rob Parrish, Justin Turney,                
                       Andy Simmonett, and Alex Sokolov              
         ------------------------------------------------------------

  ==> Geometry <==

    Molecular point group: c1
    Full point group: C1

    Geometry (in Angstrom), charge = 0, multiplicity = 1:

       Center              X                  Y                   Z               Mass       
    ------------   -----------------  -----------------  -----------------  -----------------
           H         -1.659583309871     0.321591293445     0.275715886722     1.007825032070
           H         -1.518583309871     1.949591293445    -0.344284113278     1.007825032070
           H         -1.220583309871     0.585591293445    -1.394284113278     1.007825032070
           C         -1.121583309871     0.956591293445    -0.396284113278    12.000000000000
           H          0.905416690129     1.612591293445    -0.674284113278     1.007825032070
           H          0.467416690129     1.349591293445     0.996715886722     1.007825032070
           C          0.367416690129     0.977591293445    -0.001284113278    12.000000000000
           H          1.165416690129    -0.690408706555    -1.094284113278     1.007825032070
           H          1.832416690129    -0.508408706555     0.509715886722     1.007825032070
           C          0.939416690129    -0.450408706555    -0.076284113278    12.000000000000
           H          0.299416690129    -2.440408706555     0.416715886722     1.007825032070
           H         -0.990583309871    -1.391408706555    -0.117284113278     1.007825032070
           H         -0.324583309871    -1.209408706555     1.486715886722     1.007825032070
           C         -0.097583309871    -1.448408706555     0.468715886722    12.000000000000

  Nuclear repulsion =  135.634122936721496

  ==> Basis Set <==

  Basis Set: CC-PVDZ
    Number of shells: 54
    Number of basis function: 106
    Number of Cartesian functions: 110
    Spherical Harmonics?: true
    Max angular momentum: 2

  ==> DFJKGrad: Density-Fitted SCF Gradients <==

    Gradient:                    1
    J tasked:                  Yes
    K tasked:                  Yes
    wK tasked:                  No
    OpenMP threads:              1
    Integrals threads:           1
    Memory (MB):               715
    Schwarz Cutoff:          0E+00
    Fitting Condition:       1E-12

   => Auxiliary Basis Set <=

  Basis Set: 
    Number of shells: 186
    Number of basis function: 510
    Number of Cartesian functions: 574
    Spherical Harmonics?: true
    Max angular momentum: 3

  ==> DFT Potential <==

   => B3LYP Composite Functional <= 

    B3LYP Hybrid-GGA Exchange-Correlation Functional (VWN1-RPA)

    P.J. Stephens et. al., J. Phys. Chem., 98, 11623-11627, 1994

    Points   =           5000
    Deriv    =              1
    GGA      =           TRUE
    Meta     =          FALSE

    X_LRC        =          FALSE
    X_Hybrid     =           TRUE
    X_Alpha      =   2.000000E-01
    X_Omega      =   0.000000E+00
    C_LRC        =          FALSE
    C_Hybrid     =          FALSE
    C_Alpha      =   0.000000E+00
    C_Omega      =   0.000000E+00

   => Exchange Functionals <=

    0.8000    B3_X
    0.2000      HF 

   => Correlation Functionals <=

    0.1900 VWN3RPA_C
    0.8100   LYP_C

   => Molecular Quadrature <=

    Radial Scheme    =       TREUTLER
    Pruning Scheme   =           FLAT
    Nuclear Scheme   =       TREUTLER

    BS radius alpha  =              1
    Pruning alpha    =              1
    Radial Points    =             75
    Spherical Points =            302
    Total Points     =         312718
    Total Blocks     =            256
    Max Points       =           4980
    Max Functions    =            106


  -Total Gradient:
     Atom            X                  Y                   Z
    ------   -----------------  -----------------  -----------------
       1        0.014872104559     0.006173672640    -0.010087714804
       2        0.011288743788    -0.019334275236     0.000865098187
       3        0.005826000544     0.007814831343     0.021747570643
       4       -0.026883013589    -0.013678156200    -0.009755090163
       5       -0.012479074397    -0.016235553513     0.010633618628
       6       -0.002879878311    -0.010343466427    -0.021207356195
       7        0.018048923610     0.026797011292     0.012778167720
       8       -0.007006610087     0.006257903283     0.021636419116
       9       -0.021632128770     0.002574919960    -0.008924534427
      10        0.030197720679    -0.007714604365    -0.014912831481
      11       -0.005708937457     0.022382284721    -0.001186890425
      12        0.015964345934     0.006198734833     0.008358183272
      13        0.007148706255    -0.002440761182    -0.022061724865
      14       -0.026749247434    -0.008448991853     0.012116829861


*** tstop() called on lski1497 at Tue Feb 21 18:41:55 2017
Module time:
	user time   =      39.37 seconds =       0.66 minutes
	system time =       0.67 seconds =       0.01 minutes
	total time  =         46 seconds =       0.77 minutes
Total time:
	user time   =     170.27 seconds =       2.84 minutes
	system time =       2.49 seconds =       0.04 minutes
	total time  =        200 seconds =       3.33 minutes

			-----------------------------------------
			 OPTKING 2.0: for geometry optimizations 
			  - R.A. King,  Bethel University        
			-----------------------------------------

	Internal coordinates to be generated automatically.
	Detected frag 1 with atoms:  1 2 3 4 5 6 7 8 9 10 11 12 13 14
	---Fragment 1 Bond Connectivity---
	 1 : 4
	 2 : 4
	 3 : 4
	 4 : 1 2 3 7
	 5 : 7
	 6 : 7
	 7 : 4 5 6 10
	 8 : 10
	 9 : 10
	 10 : 7 8 9 14
	 11 : 14
	 12 : 14
	 13 : 14
	 14 : 10 11 12 13

	Assuming in current code that numbering for constraints corresponds to unified fragment.
	Fixed dihedral atom list: 
	     4     7    10    14
	---Fragment 1 Geometry and Gradient---
	 H          -3.1361579504        0.6077194713        0.5210275164
	 H          -2.8697065656        3.6841936157       -0.6506026860
	 H          -2.3065681780        1.1066071704       -2.6348151255
	 C          -2.1194852909        1.8076955657       -0.7488684449
	 H           1.7109895805        3.0473559089       -1.2742123099
	 H           0.8832895343        2.5503579359        1.8835200582
	 C           0.6943169210        1.8473798145       -0.0024266224
	 H           2.2023183750       -1.3046833751       -2.0678972857
	 H           3.4627657057       -0.9607532190        0.9632234315
	 C           1.7752402690       -0.8511491033       -0.1441560824
	 H           0.5658155440       -4.6117041077        0.7874789011
	 H          -1.8719311675       -2.6293813943       -0.2216348538
	 H          -0.6133735630       -2.2854512381        2.8094858633
	 C          -0.1844057308       -2.7370957839        0.8857446600
	             0.0148721046        0.0061736726       -0.0100877148
	             0.0112887438       -0.0193342752        0.0008650982
	             0.0058260005        0.0078148313        0.0217475706
	            -0.0268830136       -0.0136781562       -0.0097550902
	            -0.0124790744       -0.0162355535        0.0106336186
	            -0.0028798783       -0.0103434664       -0.0212073562
	             0.0180489236        0.0267970113        0.0127781677
	            -0.0070066101        0.0062579033        0.0216364191
	            -0.0216321288        0.0025749200       -0.0089245344
	             0.0301977207       -0.0077146044       -0.0149128315
	            -0.0057089375        0.0223822847       -0.0011868904
	             0.0159643459        0.0061987348        0.0083581833
	             0.0071487063       -0.0024407612       -0.0220617249
	            -0.0267492474       -0.0084489919        0.0121168299

	Previous optimization step data not found.  Starting new optimization.

	---Fragment 1 Intrafragment Coordinates---
	 - Coordinate -           - BOHR/RAD -       - ANG/DEG -
	 R(1,4)           =         2.021436	       1.069698
	 R(2,4)           =         2.023298	       1.070683
	 R(3,4)           =         2.020723	       1.069320
	 R(4,7)           =         2.911397	       1.540645
	 R(5,7)           =         2.022623	       1.070326
	 R(6,7)           =         2.021555	       1.069761
	 R(7,10)          =         2.910419	       1.540128
	 R(8,10)          =         2.022095	       1.070047
	 R(9,10)          =         2.021397	       1.069677
	 R(10,14)         =         2.908213	       1.538960
	 R(11,14)         =         2.021545	       1.069756
	 R(12,14)         =         2.021295	       1.069623
	 R(13,14)         =         2.022072	       1.070035
	 B(1,4,2)         =         1.910870	     109.484805
	 B(1,4,3)         =         1.911121	     109.499161
	 B(1,4,7)         =         1.910399	     109.457783
	 B(2,4,3)         =         1.910042	     109.437340
	 B(2,4,7)         =         1.910564	     109.467262
	 B(3,4,7)         =         1.910803	     109.480971
	 B(4,7,5)         =         1.909937	     109.431343
	 B(4,7,6)         =         1.911630	     109.528316
	 B(4,7,10)        =         1.911154	     109.501062
	 B(5,7,6)         =         1.910605	     109.469614
	 B(5,7,10)        =         1.910047	     109.437654
	 B(6,7,10)        =         1.910425	     109.459295
	 B(7,10,8)        =         1.909993	     109.434564
	 B(7,10,9)        =         1.910970	     109.490537
	 B(7,10,14)       =         1.911099	     109.497890
	 B(8,10,9)        =         1.909962	     109.432742
	 B(8,10,14)       =         1.911105	     109.498247
	 B(9,10,14)       =         1.910670	     109.473322
	 B(10,14,11)      =         1.911417	     109.516137
	 B(10,14,12)      =         1.911331	     109.511189
	 B(10,14,13)      =         1.912420	     109.573607
	 B(11,14,12)      =         1.909874	     109.427738
	 B(11,14,13)      =         1.909322	     109.396089
	 B(12,14,13)      =         1.909431	     109.402352
	 D(1,4,7,5)       =         3.140997	     179.965873
	 D(1,4,7,6)       =        -1.047644	     -60.025575
	 D(1,4,7,10)      =         1.047427	      60.013132
	 D(2,4,7,5)       =        -1.047689	     -60.028143
	 D(2,4,7,6)       =         1.046856	      59.980409
	 D(2,4,7,10)      =        -3.141259	    -179.980883
	 D(3,4,7,5)       =         1.046044	      59.933911
	 D(3,4,7,6)       =         3.140588	     179.942463
	 D(3,4,7,10)      =        -1.047526	     -60.018830
	 D(4,7,10,8)      =         1.396766	      80.028792
	 D(4,7,10,9)      =        -2.793032	    -160.028942
	 D(4,7,10,14)     =        -0.698100	     -39.998181
	 D(5,7,10,8)      =        -0.696737	     -39.920084
	 D(5,7,10,9)      =         1.396651	      80.022182
	 D(5,7,10,14)     =        -2.791603	    -159.947056
	 D(6,7,10,8)      =        -2.790612	    -159.890282
	 D(6,7,10,9)      =        -0.697224	     -39.948016
	 D(6,7,10,14)     =         1.397708	      80.082745
	 D(7,10,14,11)    =         3.141550	     179.997543
	 D(7,10,14,12)    =         1.047176	      59.998778
	 D(7,10,14,13)    =        -1.047270	     -60.004158
	 D(8,10,14,11)    =         1.047364	      60.009546
	 D(8,10,14,12)    =        -1.047009	     -59.989220
	 D(8,10,14,13)    =        -3.141456	    -179.992156
	 D(9,10,14,11)    =        -1.046520	     -59.961162
	 D(9,10,14,12)    =        -3.140893	    -179.959928
	 D(9,10,14,13)    =         1.047846	      60.037136

	Current energy   :      -158.4412976191

	Generating empirical Hessian (Schlegel '84) for each fragment.
	Adding user-defined constraint: Fragment 1; Coordinate 49:
		Value =    -0.698100; Fixed value    =    -0.698132
		Force =    -0.000016; Force constant =     0.500000
	Removing off-diagonal coupling between coordinate 49 and others.
	Taking RFO optimization step.
	Going to follow RFO solution 1.
	Using RFO vector 1.

	Determining step-restricting scale parameter for RS-RFO.
	Maximum step size allowed    0.10000

	 Iter      |step|        alpha        rfo_root  
	------------------------------------------------
	    0     0.40550       1.00000           1
	    1     0.28069       4.27739           1
	    2     0.19248      13.87193           1
	    3     0.13945      32.69938           1
	    4     0.11198      56.05707           1
	    5     0.10171      70.42079           1
	    6     0.10004      73.20990           1
	    7     0.10000      73.28603           1
	------------------------------------------------
	Norm of target step-size    0.10000
	Projected energy change by RFO approximation:        -0.0099296019

	Back-transformation to cartesian coordinates...
	Could not converge backtransformation.
	Using first guess instead.

	--- Internal Coordinate Step in ANG or DEG, aJ/ANG or AJ/DEG ---
	 ---------------------------------------------------------------------------
	   Coordinate                Previous        Force       Change         New 
	   ----------                --------       ------       ------       ------
	    1 R(1,4)          =      1.069698     0.144030     0.009178     1.078876
	    2 R(2,4)          =      1.070683     0.181876     0.011249     1.081932
	    3 R(3,4)          =      1.069320     0.193993     0.011328     1.080648
	    4 R(4,7)          =      1.540645     0.044329     0.003871     1.544516
	    5 R(5,7)          =      1.070326     0.186121     0.010965     1.081291
	    6 R(6,7)          =      1.069761     0.194859     0.011248     1.081008
	    7 R(7,10)         =      1.540128     0.165526     0.010495     1.550622
	    8 R(8,10)         =      1.070047     0.193348     0.011164     1.081211
	    9 R(9,10)         =      1.069677     0.190215     0.011196     1.080873
	   10 R(10,14)        =      1.538960     0.050707     0.004270     1.543230
	   11 R(11,14)        =      1.069756     0.187981     0.011595     1.081350
	   12 R(12,14)        =      1.069623     0.144813     0.009223     1.078847
	   13 R(13,14)        =      1.070035     0.189896     0.011097     1.081132
	   14 B(1,4,2)        =    109.484805    -0.000451    -0.366572   109.118233
	   15 B(1,4,3)        =    109.499161    -0.000312    -0.300748   109.198413
	   16 B(1,4,7)        =    109.457783     0.000605     0.523328   109.981111
	   17 B(2,4,3)        =    109.437340    -0.000299    -0.235020   109.202320
	   18 B(2,4,7)        =    109.467262     0.000198     0.178459   109.645721
	   19 B(3,4,7)        =    109.480971     0.000259     0.195561   109.676532
	   20 B(4,7,5)        =    109.431343    -0.000930    -0.695302   108.736041
	   21 B(4,7,6)        =    109.528316    -0.000800    -0.647618   108.880698
	   22 B(4,7,10)       =    109.501062     0.003045     2.403608   111.904671
	   23 B(5,7,6)        =    109.469614     0.000337     0.183477   109.653091
	   24 B(5,7,10)       =    109.437654    -0.000894    -0.689387   108.748267
	   25 B(6,7,10)       =    109.459295    -0.000758    -0.562384   108.896911
	   26 B(7,10,8)       =    109.434564    -0.000759    -0.562835   108.871729
	   27 B(7,10,9)       =    109.490537    -0.000903    -0.697181   108.793356
	   28 B(7,10,14)      =    109.497890     0.003053     2.409090   111.906979
	   29 B(8,10,9)       =    109.432742     0.000340     0.185791   109.618533
	   30 B(8,10,14)      =    109.498247    -0.000798    -0.645648   108.852599
	   31 B(9,10,14)      =    109.473322    -0.000933    -0.697856   108.775466
	   32 B(10,14,11)     =    109.516137     0.000196     0.176501   109.692638
	   33 B(10,14,12)     =    109.511189     0.000596     0.516540   110.027730
	   34 B(10,14,13)     =    109.573607     0.000245     0.184512   109.758119
	   35 B(11,14,12)     =    109.427738    -0.000444    -0.361724   109.066014
	   36 B(11,14,13)     =    109.396089    -0.000293    -0.230796   109.165293
	   37 B(12,14,13)     =    109.402352    -0.000302    -0.291823   109.110529
	   38 D(1,4,7,5)      =    179.965873     0.000098     0.366734   180.332607
	   39 D(1,4,7,6)      =    -60.025575    -0.000051    -0.213134   -60.238710
	   40 D(1,4,7,10)     =     60.013132     0.000053     0.174640    60.187773
	   41 D(2,4,7,5)      =    -60.028143     0.000084     0.349786   -59.678356
	   42 D(2,4,7,6)      =     59.980409    -0.000064    -0.230082    59.750327
	   43 D(2,4,7,10)     =   -179.980883     0.000039     0.157692  -179.823191
	   44 D(3,4,7,5)      =     59.933911     0.000064     0.291483    60.225393
	   45 D(3,4,7,6)      =    179.942463    -0.000084    -0.288386   179.654076
	   46 D(3,4,7,10)     =    -60.018830     0.000019     0.099388   -59.919441
	   47 D(4,7,10,8)     =     80.028792     0.000037     0.179808    80.208600
	   48 D(4,7,10,9)     =   -160.028942    -0.000101    -0.347230  -160.376172
	   49 D(4,7,10,14)    =    -39.998181    -0.000061    -0.159810   -40.157991
	   50 D(5,7,10,8)     =    -39.920084    -0.000003    -0.009006   -39.929090
	   51 D(5,7,10,9)     =     80.022182    -0.000141    -0.536044    79.486138
	   52 D(5,7,10,14)    =   -159.947056    -0.000101    -0.348624  -160.295680
	   53 D(6,7,10,8)     =   -159.890282     0.000134     0.515917  -159.374365
	   54 D(6,7,10,9)     =    -39.948016    -0.000004    -0.011120   -39.959137
	   55 D(6,7,10,14)    =     80.082745     0.000036     0.176300    80.259045
	   56 D(7,10,14,11)   =    179.997543     0.000040     0.160918   180.158461
	   57 D(7,10,14,12)   =     59.998778     0.000053     0.176606    60.175383
	   58 D(7,10,14,13)   =    -60.004158     0.000019     0.100379   -59.903779
	   59 D(8,10,14,11)   =     60.009546    -0.000064    -0.228827    59.780719
	   60 D(8,10,14,12)   =    -59.989220    -0.000051    -0.213139   -60.202359
	   61 D(8,10,14,13)   =   -179.992156    -0.000084    -0.289366  -180.281522
	   62 D(9,10,14,11)   =    -59.961162     0.000084     0.348250   -59.612912
	   63 D(9,10,14,12)   =   -179.959928     0.000097     0.363938  -179.595990
	   64 D(9,10,14,13)   =     60.037136     0.000063     0.287711    60.324847
	 ---------------------------------------------------------------------------
	 Forces used to impose fixed constraints are not included.
	  Forces zeroed: 49 

  ==> Convergence Check <==

  Measures of convergence in internal coordinates in au.
  Criteria marked as inactive (o), active & met (*), and active & unmet ( ).
  --------------------------------------------------------------------------------------------- ~
   Step     Total Energy     Delta E     MAX Force     RMS Force      MAX Disp      RMS Disp    ~
  --------------------------------------------------------------------------------------------- ~
    Convergence Criteria    1.00e-06 *    3.00e-04 *             o    1.20e-03 *             o  ~
  --------------------------------------------------------------------------------------------- ~
      1    -158.44129762   -1.58e+02      4.01e-02      1.27e-02 o    4.20e-02      1.27e-02 o  ~
  ---------------------------------------------------------------------------------------------

	Writing optimization data to binary file.
	Structure for next step:
	Cartesian Geometry (in Angstrom)
	    H    -1.7158781333   0.4022307955   0.2681081230
	    H    -1.5032660292   2.0329622706  -0.3601165798
	    H    -1.2579302828   0.6417798620  -1.4145844946
	    C    -1.1395988111   1.0150779749  -0.4073869608
	    H     0.9097203113   1.6021025515  -0.6959978830
	    H     0.4569834274   1.3592306858   0.9951735868
	    C     0.3527098228   0.9778909386  -0.0109507744
	    H     1.1646784953  -0.7043129334  -1.0921098626
	    H     1.8305935665  -0.4966942578   0.5313180443
	    C     0.9300243382  -0.4602276943  -0.0652813053
	    H     0.3696756342  -2.4896836942   0.4275305716
	    H    -0.9744657468  -1.4883355302  -0.1072393523
	    H    -0.3103166361  -1.2750341848   1.5082754263
	    C    -0.0690962947  -1.5027086760   0.4792838748
			--------------------------
			 OPTKING Finished Execution 
			--------------------------

    Structure for next step:
    Molecular point group: c1
    Full point group: C1

    Geometry (in Angstrom), charge = 0, multiplicity = 1:

    H           -1.713298886788     0.403240075376     0.267956467426
    H           -1.500686782694     2.033971550456    -0.360268235423
    H           -1.255351036287     0.642789141904    -1.414736150243
    C           -1.137019564678     1.016087254779    -0.407538616438
    H            0.912299557783     1.603111831391    -0.696149538570
    H            0.459562673875     1.360239965676     0.995021931244
    C            0.355289069287     0.978900218427    -0.011102429962
    H            1.167257741777    -0.703303653537    -1.092261518218
    H            1.833172812950    -0.495684977928     0.531166388742
    C            0.932603584656    -0.459218414452    -0.065432960883
    H            0.372254880693    -2.488674414286     0.427378916050
    H           -0.971886500298    -1.487326250348    -0.107391007914
    H           -0.307737389633    -1.274024904943     1.508123770702
    C           -0.066517048265    -1.501699396125     0.479132219224

gradient() will perform analytic gradient computation.

*** tstart() called on lski1497
*** at Tue Feb 21 18:41:55 2017


         ---------------------------------------------------------
                                   SCF
            by Justin Turney, Rob Parrish, and Andy Simmonett
                              RKS Reference
                        1 Threads,   1000 MiB Core
         ---------------------------------------------------------

  ==> Geometry <==

    Molecular point group: c1
    Full point group: C1

    Geometry (in Angstrom), charge = 0, multiplicity = 1:

       Center              X                  Y                   Z               Mass       
    ------------   -----------------  -----------------  -----------------  -----------------
           H         -1.713298886788     0.403240075376     0.267956467426     1.007825032070
           H         -1.500686782694     2.033971550456    -0.360268235423     1.007825032070
           H         -1.255351036287     0.642789141904    -1.414736150243     1.007825032070
           C         -1.137019564678     1.016087254779    -0.407538616438    12.000000000000
           H          0.912299557783     1.603111831391    -0.696149538570     1.007825032070
           H          0.459562673875     1.360239965676     0.995021931244     1.007825032070
           C          0.355289069287     0.978900218427    -0.011102429962    12.000000000000
           H          1.167257741777    -0.703303653537    -1.092261518218     1.007825032070
           H          1.833172812950    -0.495684977928     0.531166388742     1.007825032070
           C          0.932603584656    -0.459218414452    -0.065432960883    12.000000000000
           H          0.372254880693    -2.488674414286     0.427378916050     1.007825032070
           H         -0.971886500298    -1.487326250348    -0.107391007914     1.007825032070
           H         -0.307737389633    -1.274024904943     1.508123770702     1.007825032070
           C         -0.066517048265    -1.501699396125     0.479132219224    12.000000000000

  Running in c1 symmetry.

  Rotational constants: A =      0.39979  B =      0.18088  C =      0.14126 [cm^-1]
  Rotational constants: A =  11985.38405  B =   5422.50909  C =   4234.77674 [MHz]
  Nuclear repulsion =  133.850211357767307

  Charge       = 0
  Multiplicity = 1
  Electrons    = 34
  Nalpha       = 17
  Nbeta        = 17

  ==> Algorithm <==

  SCF Algorithm Type is DF.
  DIIS enabled.
  MOM disabled.
  Fractional occupation disabled.
  Guess Type is READ.
  Energy threshold   = 1.00e-08
  Density threshold  = 1.00e-08
  Integral threshold = 0.00e+00

  ==> Primary Basis <==

  Basis Set: CC-PVDZ
    Number of shells: 54
    Number of basis function: 106
    Number of Cartesian functions: 110
    Spherical Harmonics?: true
    Max angular momentum: 2

  ==> DFT Potential <==

   => B3LYP Composite Functional <= 

    B3LYP Hybrid-GGA Exchange-Correlation Functional (VWN1-RPA)

    P.J. Stephens et. al., J. Phys. Chem., 98, 11623-11627, 1994

    Points   =           5000
    Deriv    =              1
    GGA      =           TRUE
    Meta     =          FALSE

    X_LRC        =          FALSE
    X_Hybrid     =           TRUE
    X_Alpha      =   2.000000E-01
    X_Omega      =   0.000000E+00
    C_LRC        =          FALSE
    C_Hybrid     =          FALSE
    C_Alpha      =   0.000000E+00
    C_Omega      =   0.000000E+00

   => Exchange Functionals <=

    0.8000    B3_X
    0.2000      HF 

   => Correlation Functionals <=

    0.1900 VWN3RPA_C
    0.8100   LYP_C

   => Molecular Quadrature <=

    Radial Scheme    =       TREUTLER
    Pruning Scheme   =           FLAT
    Nuclear Scheme   =       TREUTLER

    BS radius alpha  =              1
    Pruning alpha    =              1
    Radial Points    =             75
    Spherical Points =            302
    Total Points     =         312742
    Total Blocks     =            258
    Max Points       =           4985
    Max Functions    =            106

  ==> Pre-Iterations <==

   -------------------------------------------------------
    Irrep   Nso     Nmo     Nalpha   Nbeta   Ndocc  Nsocc
   -------------------------------------------------------
     A        106     106       0       0       0       0
   -------------------------------------------------------
    Total     106     106      17      17      17       0
   -------------------------------------------------------

  ==> Integral Setup <==

  ==> DFJK: Density-Fitted J/K Matrices <==

    J tasked:                  Yes
    K tasked:                  Yes
    wK tasked:                  No
    OpenMP threads:              1
    Integrals threads:           1
    Memory (MB):               715
    Algorithm:                Core
    Integral Cache:           NONE
    Schwarz Cutoff:          1E-12
    Fitting Condition:       1E-12

   => Auxiliary Basis Set <=

  Basis Set: 
    Number of shells: 186
    Number of basis function: 510
    Number of Cartesian functions: 574
    Spherical Harmonics?: true
    Max angular momentum: 3

  Minimum eigenvalue in the overlap matrix is 4.3182101546E-03.
  Using Symmetric Orthogonalization.
  SCF Guess was Projection but file not found.
  Switching over to SAD guess.

  SCF Guess: Superposition of Atomic Densities via on-the-fly atomic UHF.

  ==> Iterations <==

                           Total Energy        Delta E     RMS |[F,P]|

   @DF-RKS iter   0:  -158.93891825500867   -1.58939e+02   3.27786e-02 
   @DF-RKS iter   1:  -158.26327678066264    6.75641e-01   5.39813e-03 
   @DF-RKS iter   2:  -158.18317175797156    8.01050e-02   6.54994e-03 DIIS
   @DF-RKS iter   3:  -158.44817568258014   -2.65004e-01   3.90912e-04 DIIS
   @DF-RKS iter   4:  -158.44904389543436   -8.68213e-04   1.21717e-04 DIIS
   @DF-RKS iter   5:  -158.44911754068767   -7.36453e-05   4.79753e-05 DIIS
   @DF-RKS iter   6:  -158.44912999068367   -1.24500e-05   7.61938e-06 DIIS
   @DF-RKS iter   7:  -158.44913035222697   -3.61543e-07   1.04225e-06 DIIS
   @DF-RKS iter   8:  -158.44913035953897   -7.31200e-09   1.69660e-07 DIIS
   @DF-RKS iter   9:  -158.44913035966857   -1.29603e-10   9.46219e-08 DIIS
   @DF-RKS iter  10:  -158.44913035971760   -4.90274e-11   1.37496e-08 DIIS
   @DF-RKS iter  11:  -158.44913035971805   -4.54747e-13   2.21144e-09 DIIS

  ==> Post-Iterations <==

    Orbital Energies (a.u.)
    -----------------------

    Doubly Occupied:                                                      

       1A    -10.174087     2A    -10.173919     3A    -10.167438  
       4A    -10.167336     5A     -0.792446     6A     -0.714920  
       7A     -0.643901     8A     -0.561591     9A     -0.464538  
      10A     -0.452805    11A     -0.413453    12A     -0.384297  
      13A     -0.375593    14A     -0.360239    15A     -0.323652  
      16A     -0.319431    17A     -0.318280  

    Virtual:                                                              

      18A      0.060041    19A      0.097386    20A      0.101313  
      21A      0.107896    22A      0.134031    23A      0.137310  
      24A      0.161162    25A      0.162688    26A      0.166314  
      27A      0.178695    28A      0.205247    29A      0.231369  
      30A      0.264363    31A      0.411314    32A      0.421023  
      33A      0.436615    34A      0.448255    35A      0.451901  
      36A      0.489060    37A      0.501731    38A      0.587161  
      39A      0.599624    40A      0.622282    41A      0.625463  
      42A      0.646122    43A      0.662330    44A      0.668487  
      45A      0.677625    46A      0.680743    47A      0.687313  
      48A      0.702933    49A      0.721755    50A      0.725857  
      51A      0.767444    52A      0.821846    53A      0.887851  
      54A      0.904935    55A      0.970206    56A      1.085294  
      57A      1.155885    58A      1.196871    59A      1.213819  
      60A      1.285149    61A      1.297521    62A      1.369191  
      63A      1.412434    64A      1.424020    65A      1.468041  
      66A      1.555211    67A      1.566798    68A      1.585453  
      69A      1.590081    70A      1.633294    71A      1.646163  
      72A      1.650097    73A      1.679374    74A      1.681975  
      75A      1.693142    76A      1.698513    77A      1.703071  
      78A      1.753225    79A      1.769116    80A      1.770447  
      81A      1.802040    82A      1.810239    83A      1.870783  
      84A      1.899891    85A      1.967700    86A      1.971628  
      87A      2.021168    88A      2.084458    89A      2.117075  
      90A      2.130897    91A      2.213114    92A      2.258263  
      93A      2.265485    94A      2.294780    95A      2.332777  
      96A      2.343834    97A      2.471606    98A      2.475879  
      99A      2.502003   100A      2.518540   101A      2.530695  
     102A      2.556042   103A      2.630602   104A      2.655765  
     105A      2.711535   106A      2.742885  

    Final Occupation by Irrep:
              A 
    DOCC [    17 ]

  Energy converged.

  @DF-RKS Final Energy:  -158.44913035971805

   => Energetics <=

    Nuclear Repulsion Energy =            133.8502113577673072
    One-Electron Energy =                -476.1414488827920195
    Two-Electron Energy =                 204.4881515562839525
    DFT Exchange-Correlation Energy =     -20.6460443909772877
    Empirical Dispersion Energy =           0.0000000000000000
    PCM Polarization Energy =               0.0000000000000000
    EFP Energy =                            0.0000000000000000
    Total Energy =                       -158.4491303597180547


  Saving occupied orbitals to File 180.

*** tstop() called on lski1497 at Tue Feb 21 18:44:22 2017
Module time:
	user time   =     124.64 seconds =       2.08 minutes
	system time =       1.65 seconds =       0.03 minutes
	total time  =        147 seconds =       2.45 minutes
Total time:
	user time   =     295.62 seconds =       4.93 minutes
	system time =       4.16 seconds =       0.07 minutes
	total time  =        347 seconds =       5.78 minutes


Properties will be evaluated at   0.000000,   0.000000,   0.000000 Bohr

Properties computed using the SCF density matrix

  Nuclear Dipole Moment: (a.u.)
     X:    -0.9416      Y:    -0.3803      Z:     0.0552

  Electronic Dipole Moment: (a.u.)
     X:     0.9594      Y:     0.3871      Z:    -0.0563

  Dipole Moment: (a.u.)
     X:     0.0178      Y:     0.0068      Z:    -0.0012     Total:     0.0191

  Dipole Moment: (Debye)
     X:     0.0453      Y:     0.0173      Z:    -0.0030     Total:     0.0486


*** tstart() called on lski1497
*** at Tue Feb 21 18:44:22 2017


         ------------------------------------------------------------
                                   SCF GRAD                          
                          Rob Parrish, Justin Turney,                
                       Andy Simmonett, and Alex Sokolov              
         ------------------------------------------------------------

  ==> Geometry <==

    Molecular point group: c1
    Full point group: C1

    Geometry (in Angstrom), charge = 0, multiplicity = 1:

       Center              X                  Y                   Z               Mass       
    ------------   -----------------  -----------------  -----------------  -----------------
           H         -1.713298886788     0.403240075376     0.267956467426     1.007825032070
           H         -1.500686782694     2.033971550456    -0.360268235423     1.007825032070
           H         -1.255351036287     0.642789141904    -1.414736150243     1.007825032070
           C         -1.137019564678     1.016087254779    -0.407538616438    12.000000000000
           H          0.912299557783     1.603111831391    -0.696149538570     1.007825032070
           H          0.459562673875     1.360239965676     0.995021931244     1.007825032070
           C          0.355289069287     0.978900218427    -0.011102429962    12.000000000000
           H          1.167257741777    -0.703303653537    -1.092261518218     1.007825032070
           H          1.833172812950    -0.495684977928     0.531166388742     1.007825032070
           C          0.932603584656    -0.459218414452    -0.065432960883    12.000000000000
           H          0.372254880693    -2.488674414286     0.427378916050     1.007825032070
           H         -0.971886500298    -1.487326250348    -0.107391007914     1.007825032070
           H         -0.307737389633    -1.274024904943     1.508123770702     1.007825032070
           C         -0.066517048265    -1.501699396125     0.479132219224    12.000000000000

  Nuclear repulsion =  133.850211357767307

  ==> Basis Set <==

  Basis Set: CC-PVDZ
    Number of shells: 54
    Number of basis function: 106
    Number of Cartesian functions: 110
    Spherical Harmonics?: true
    Max angular momentum: 2

  ==> DFJKGrad: Density-Fitted SCF Gradients <==

    Gradient:                    1
    J tasked:                  Yes
    K tasked:                  Yes
    wK tasked:                  No
    OpenMP threads:              1
    Integrals threads:           1
    Memory (MB):               715
    Schwarz Cutoff:          0E+00
    Fitting Condition:       1E-12

   => Auxiliary Basis Set <=

  Basis Set: 
    Number of shells: 186
    Number of basis function: 510
    Number of Cartesian functions: 574
    Spherical Harmonics?: true
    Max angular momentum: 3

  ==> DFT Potential <==

   => B3LYP Composite Functional <= 

    B3LYP Hybrid-GGA Exchange-Correlation Functional (VWN1-RPA)

    P.J. Stephens et. al., J. Phys. Chem., 98, 11623-11627, 1994

    Points   =           5000
    Deriv    =              1
    GGA      =           TRUE
    Meta     =          FALSE

    X_LRC        =          FALSE
    X_Hybrid     =           TRUE
    X_Alpha      =   2.000000E-01
    X_Omega      =   0.000000E+00
    C_LRC        =          FALSE
    C_Hybrid     =          FALSE
    C_Alpha      =   0.000000E+00
    C_Omega      =   0.000000E+00

   => Exchange Functionals <=

    0.8000    B3_X
    0.2000      HF 

   => Correlation Functionals <=

    0.1900 VWN3RPA_C
    0.8100   LYP_C

   => Molecular Quadrature <=

    Radial Scheme    =       TREUTLER
    Pruning Scheme   =           FLAT
    Nuclear Scheme   =       TREUTLER

    BS radius alpha  =              1
    Pruning alpha    =              1
    Radial Points    =             75
    Spherical Points =            302
    Total Points     =         312742
    Total Blocks     =            258
    Max Points       =           4985
    Max Functions    =            106


  -Total Gradient:
     Atom            X                  Y                   Z
    ------   -----------------  -----------------  -----------------
       1        0.010964938489     0.004959543609    -0.007027798758
       2        0.006984318792    -0.011847606790     0.000875172784
       3        0.005032961806     0.004773642275     0.014040938208
       4       -0.023385728283    -0.006380648812    -0.006168184867
       5       -0.009328091122    -0.011188254182     0.005005794845
       6       -0.002858916643    -0.008146160589    -0.013203924231
       7        0.014826763826     0.022329422396     0.007916263786
       8       -0.006306795000     0.004383913496     0.013651498803
       9       -0.015139915635     0.001350291036    -0.003763961304
      10        0.025235819539    -0.006413388061    -0.009790825860
      11       -0.003522765887     0.013717589010    -0.001072124041
      12        0.011990496889     0.004248484926     0.005749369214
      13        0.005300862378    -0.000531815533    -0.014380050860
      14       -0.019795253538    -0.011254849258     0.008167904158


*** tstop() called on lski1497 at Tue Feb 21 18:45:08 2017
Module time:
	user time   =      39.90 seconds =       0.66 minutes
	system time =       0.73 seconds =       0.01 minutes
	total time  =         46 seconds =       0.77 minutes
Total time:
	user time   =     335.54 seconds =       5.59 minutes
	system time =       4.89 seconds =       0.08 minutes
	total time  =        393 seconds =       6.55 minutes

			-----------------------------------------
			 OPTKING 2.0: for geometry optimizations 
			  - R.A. King,  Bethel University        
			-----------------------------------------

	Previous internal coordinate definitions found.
	---Fragment 1 Geometry and Gradient---
	 H          -3.2376656798        0.7620133083        0.5063643390
	 H          -2.8358870305        3.8436491924       -0.6808082993
	 H          -2.3722696592        1.2146954394       -2.6734638743
	 C          -2.1486555850        1.9201266386       -0.7701363736
	 H           1.7239963154        3.0294423217       -1.3155319754
	 H           0.8684475945        2.5704810101        1.8803189463
	 C           0.6713990390        1.8498533242       -0.0209805520
	 H           2.2057974584       -1.3290512934       -2.0640751349
	 H           3.4641945707       -0.9367088565        1.0037590057
	 C           1.7623653655       -0.8677970385       -0.1236503761
	 H           0.7034597761       -4.7029130769        0.8076291063
	 H          -1.8365993178       -2.8106392834       -0.2029395941
	 H          -0.5815393873       -2.4075581568        2.8499409011
	 C          -0.1256990044       -2.8378005926        0.9054286758
	             0.0109649385        0.0049595436       -0.0070277988
	             0.0069843188       -0.0118476068        0.0008751728
	             0.0050329618        0.0047736423        0.0140409382
	            -0.0233857283       -0.0063806488       -0.0061681849
	            -0.0093280911       -0.0111882542        0.0050057948
	            -0.0028589166       -0.0081461606       -0.0132039242
	             0.0148267638        0.0223294224        0.0079162638
	            -0.0063067950        0.0043839135        0.0136514988
	            -0.0151399156        0.0013502910       -0.0037639613
	             0.0252358195       -0.0064133881       -0.0097908259
	            -0.0035227659        0.0137175890       -0.0010721240
	             0.0119904969        0.0042484849        0.0057493692
	             0.0053008624       -0.0005318155       -0.0143800509
	            -0.0197952535       -0.0112548493        0.0081679042

	---Fragment 1 Intrafragment Coordinates---
	 - Coordinate -           - BOHR/RAD -       - ANG/DEG -
	 R(1,4)           =         2.038780	       1.078876
	 R(2,4)           =         2.044555	       1.081932
	 R(3,4)           =         2.042129	       1.080648
	 R(4,7)           =         2.918712	       1.544516
	 R(5,7)           =         2.043344	       1.081291
	 R(6,7)           =         2.042810	       1.081008
	 R(7,10)          =         2.930251	       1.550622
	 R(8,10)          =         2.043193	       1.081211
	 R(9,10)          =         2.042553	       1.080873
	 R(10,14)         =         2.916283	       1.543230
	 R(11,14)         =         2.043456	       1.081350
	 R(12,14)         =         2.038725	       1.078847
	 R(13,14)         =         2.043044	       1.081132
	 B(1,4,2)         =         1.904472	     109.118233
	 B(1,4,3)         =         1.905872	     109.198413
	 B(1,4,7)         =         1.919533	     109.981111
	 B(2,4,3)         =         1.905940	     109.202320
	 B(2,4,7)         =         1.913679	     109.645721
	 B(3,4,7)         =         1.914217	     109.676532
	 B(4,7,5)         =         1.897802	     108.736041
	 B(4,7,6)         =         1.900327	     108.880698
	 B(4,7,10)        =         1.953105	     111.904671
	 B(5,7,6)         =         1.913807	     109.653091
	 B(5,7,10)        =         1.898015	     108.748267
	 B(6,7,10)        =         1.900610	     108.896911
	 B(7,10,8)        =         1.900170	     108.871729
	 B(7,10,9)        =         1.898802	     108.793356
	 B(7,10,14)       =         1.953145	     111.906979
	 B(8,10,9)        =         1.913204	     109.618533
	 B(8,10,14)       =         1.899836	     108.852599
	 B(9,10,14)       =         1.898490	     108.775466
	 B(10,14,11)      =         1.914498	     109.692638
	 B(10,14,12)      =         1.920346	     110.027730
	 B(10,14,13)      =         1.915641	     109.758119
	 B(11,14,12)      =         1.903561	     109.066014
	 B(11,14,13)      =         1.905294	     109.165293
	 B(12,14,13)      =         1.904338	     109.110529
	 D(1,4,7,5)       =        -3.135788	    -179.667393
	 D(1,4,7,6)       =        -1.051364	     -60.238710
	 D(1,4,7,10)      =         1.050475	      60.187773
	 D(2,4,7,5)       =        -1.041584	     -59.678356
	 D(2,4,7,6)       =         1.042840	      59.750327
	 D(2,4,7,10)      =        -3.138507	    -179.823191
	 D(3,4,7,5)       =         1.051131	      60.225393
	 D(3,4,7,6)       =         3.135555	     179.654076
	 D(3,4,7,10)      =        -1.045792	     -59.919441
	 D(4,7,10,8)      =         1.399904	      80.208600
	 D(4,7,10,9)      =        -2.799092	    -160.376172
	 D(4,7,10,14)     =        -0.700889	     -40.157991
	 D(5,7,10,8)      =        -0.696894	     -39.929090
	 D(5,7,10,9)      =         1.387295	      79.486138
	 D(5,7,10,14)     =        -2.797687	    -160.295680
	 D(6,7,10,8)      =        -2.781607	    -159.374365
	 D(6,7,10,9)      =        -0.697418	     -39.959137
	 D(6,7,10,14)     =         1.400785	      80.259045
	 D(7,10,14,11)    =        -3.138827	    -179.841539
	 D(7,10,14,12)    =         1.050259	      60.175383
	 D(7,10,14,13)    =        -1.045518	     -59.903779
	 D(8,10,14,11)    =         1.043370	      59.780719
	 D(8,10,14,12)    =        -1.050729	     -60.202359
	 D(8,10,14,13)    =         3.136679	     179.718478
	 D(9,10,14,11)    =        -1.040442	     -59.612912
	 D(9,10,14,12)    =        -3.134541	    -179.595990
	 D(9,10,14,13)    =         1.052867	      60.324847

	Current energy   :      -158.4491303597

	Energy change for the previous step:
		Projected    :        -0.0099296019
		Actual       :        -0.0078327406

	Performing BFGS update.
	Previous computed or guess Hessian on step 1.
	Steps to be used in Hessian update: 1
	Adding user-defined constraint: Fragment 1; Coordinate 49:
		Value =    -0.700889; Fixed value    =    -0.698130
		Force =     0.001449; Force constant =     0.525000
	Removing off-diagonal coupling between coordinate 49 and others.
	Taking RFO optimization step.
	Going to follow RFO solution 1.
	Using RFO vector 1.

	Determining step-restricting scale parameter for RS-RFO.
	Maximum step size allowed    0.10000

	 Iter      |step|        alpha        rfo_root  
	------------------------------------------------
	    0     0.21222       1.00000           1
	    1     0.16325       6.08583           1
	    2     0.12712      18.42942           1
	    3     0.10743      33.40058           1
	    4     0.10080      41.02306           1
	    5     0.10001      42.05379           1
	    6     0.10000      42.06837           1
	------------------------------------------------
	Norm of target step-size    0.10000
	Projected energy change by RFO approximation:        -0.0056831668

	Back-transformation to cartesian coordinates...
	Successfully converged to displaced geometry.

	--- Internal Coordinate Step in ANG or DEG, aJ/ANG or AJ/DEG ---
	 ---------------------------------------------------------------------------
	   Coordinate                Previous        Force       Change         New 
	   ----------                --------       ------       ------       ------
	    1 R(1,4)          =      1.078876     0.107718     0.013800     1.092676
	    2 R(2,4)          =      1.081932     0.110859     0.012578     1.094510
	    3 R(3,4)          =      1.080648     0.125939     0.014451     1.095099
	    4 R(4,7)          =      1.544516     0.002110    -0.001667     1.542849
	    5 R(5,7)          =      1.081291     0.118928     0.013575     1.094866
	    6 R(6,7)          =      1.081008     0.127197     0.014573     1.095581
	    7 R(7,10)         =      1.550622     0.048478     0.000562     1.551184
	    8 R(8,10)         =      1.081211     0.126246     0.014471     1.095682
	    9 R(9,10)         =      1.080873     0.121416     0.013839     1.094712
	   10 R(10,14)        =      1.543230     0.006707    -0.001043     1.542188
	   11 R(11,14)        =      1.081350     0.114507     0.012964     1.094315
	   12 R(12,14)        =      1.078847     0.108190     0.013851     1.092697
	   13 R(13,14)        =      1.081132     0.123423     0.014183     1.095315
	   14 B(1,4,2)        =    109.118233    -0.000311    -0.533590   108.584643
	   15 B(1,4,3)        =    109.198413    -0.000271    -0.593033   108.605380
	   16 B(1,4,7)        =    109.981111     0.000400     0.693928   110.675040
	   17 B(2,4,3)        =    109.202320    -0.000256    -0.521238   108.681083
	   18 B(2,4,7)        =    109.645721     0.000165     0.323540   109.969261
	   19 B(3,4,7)        =    109.676532     0.000263     0.596682   110.273214
	   20 B(4,7,5)        =    108.736041    -0.000363    -0.214742   108.521299
	   21 B(4,7,6)        =    108.880698    -0.000347    -0.257234   108.623464
	   22 B(4,7,10)       =    111.904671     0.001364     1.275817   113.180488
	   23 B(5,7,6)        =    109.653091     0.000031    -0.287667   109.365424
	   24 B(5,7,10)       =    108.748267    -0.000392    -0.342286   108.405981
	   25 B(6,7,10)       =    108.896911    -0.000304    -0.203268   108.693643
	   26 B(7,10,8)       =    108.871729    -0.000305    -0.198925   108.672804
	   27 B(7,10,9)       =    108.793356    -0.000398    -0.368311   108.425045
	   28 B(7,10,14)      =    111.906979     0.001369     1.290735   113.197715
	   29 B(8,10,9)       =    109.618533     0.000033    -0.280669   109.337864
	   30 B(8,10,14)      =    108.852599    -0.000346    -0.258355   108.594244
	   31 B(9,10,14)      =    108.775466    -0.000365    -0.214405   108.561060
	   32 B(10,14,11)     =    109.692638     0.000162     0.330393   110.023031
	   33 B(10,14,12)     =    110.027730     0.000392     0.682953   110.710683
	   34 B(10,14,13)     =    109.758119     0.000250     0.574208   110.332327
	   35 B(11,14,12)     =    109.066014    -0.000304    -0.532589   108.533425
	   36 B(11,14,13)     =    109.165293    -0.000250    -0.516070   108.649224
	   37 B(12,14,13)     =    109.110529    -0.000261    -0.575055   108.535475
	   38 D(1,4,7,5)      =   -179.667393     0.000056     0.360877  -179.306516
	   39 D(1,4,7,6)      =    -60.238710    -0.000030    -0.256710   -60.495420
	   40 D(1,4,7,10)     =     60.187773     0.000027     0.128608    60.316381
	   41 D(2,4,7,5)      =    -59.678356     0.000049     0.342530   -59.335826
	   42 D(2,4,7,6)      =     59.750327    -0.000037    -0.275057    59.475270
	   43 D(2,4,7,10)     =   -179.823191     0.000020     0.110262  -179.712929
	   44 D(3,4,7,5)      =     60.225393     0.000038     0.274482    60.499875
	   45 D(3,4,7,6)      =    179.654076    -0.000049    -0.343105   179.310971
	   46 D(3,4,7,10)     =    -59.919441     0.000009     0.042214   -59.877228
	   47 D(4,7,10,8)     =     80.208600     0.000024     0.152573    80.361173
	   48 D(4,7,10,9)     =   -160.376172    -0.000060    -0.511345  -160.887516
	   49 D(4,7,10,14)    =    -40.157991    -0.000028    -0.212455   -40.370446
	   50 D(5,7,10,8)     =    -39.929090    -0.000008    -0.152442   -40.081532
	   51 D(5,7,10,9)     =     79.486138    -0.000093    -0.816359    78.669779
	   52 D(5,7,10,14)    =   -160.295680    -0.000061    -0.517470  -160.813150
	   53 D(6,7,10,8)     =   -159.374365     0.000076     0.507572  -158.866793
	   54 D(6,7,10,9)     =    -39.959137    -0.000008    -0.156345   -40.115482
	   55 D(6,7,10,14)    =     80.259045     0.000024     0.142544    80.401589
	   56 D(7,10,14,11)   =   -179.841539     0.000021     0.121829  -179.719710
	   57 D(7,10,14,12)   =     60.175383     0.000028     0.140512    60.315895
	   58 D(7,10,14,13)   =    -59.903779     0.000009     0.051804   -59.851976
	   59 D(8,10,14,11)   =     59.780719    -0.000037    -0.276565    59.504154
	   60 D(8,10,14,12)   =    -60.202359    -0.000030    -0.257882   -60.460241
	   61 D(8,10,14,13)   =    179.718478    -0.000049    -0.346590   179.371888
	   62 D(9,10,14,11)   =    -59.612912     0.000049     0.332977   -59.279935
	   63 D(9,10,14,12)   =   -179.595990     0.000055     0.351660  -179.244330
	   64 D(9,10,14,13)   =     60.324847     0.000037     0.262952    60.587799
	 ---------------------------------------------------------------------------
	 Forces used to impose fixed constraints are not included.
	  Forces zeroed: 49 

  ==> Convergence Check <==

  Measures of convergence in internal coordinates in au.
  Criteria marked as inactive (o), active & met (*), and active & unmet ( ).
  ---------------------------------------------------------------------------------------------
   Step     Total Energy     Delta E     MAX Force     RMS Force      MAX Disp      RMS Disp   
  ---------------------------------------------------------------------------------------------
    Convergence Criteria    1.00e-06 *    3.00e-04 *             o    1.20e-03 *             o
  ---------------------------------------------------------------------------------------------
      2    -158.44913036   -7.83e-03      1.80e-02      7.13e-03 o    2.75e-02      1.25e-02 o  ~
  ---------------------------------------------------------------------------------------------

	Writing optimization data to binary file.
	Structure for next step:
	Cartesian Geometry (in Angstrom)
	    H    -1.7447251230   0.4402110439   0.3001672650
	    H    -1.5066448724   2.0739789743  -0.3542955832
	    H    -1.3151640136   0.6551680820  -1.4103857921
	    C    -1.1539197014   1.0387602135  -0.3974204696
	    H     0.9002534452   1.5966535692  -0.7458791530
	    H     0.4763126365   1.3775696386   0.9765624434
	    C     0.3443988761   0.9770761308  -0.0346261069
	    H     1.1442466594  -0.7180431856  -1.1217356180
	    H     1.8527118422  -0.4775684962   0.5010806409
	    C     0.9248209605  -0.4607222425  -0.0795468583
	    H     0.4269955427  -2.5122428875   0.4448471901
	    H    -0.9701778476  -1.5437940653  -0.0667048053
	    H    -0.2645842577  -1.2972120935   1.5444972461
	    C    -0.0345810347  -1.5214266553   0.4973388365
			--------------------------
			 OPTKING Finished Execution 
			--------------------------

    Structure for next step:
    Molecular point group: c1
    Full point group: C1

    Geometry (in Angstrom), charge = 0, multiplicity = 1:

    H           -1.744036777815     0.440283383966     0.301929853214
    H           -1.505956527191     2.074051314394    -0.352532994936
    H           -1.314475668428     0.655240422055    -1.408623203881
    C           -1.153231356150     1.038832553609    -0.395657881386
    H            0.900941790385     1.596725909287    -0.744116564781
    H            0.477000981736     1.377641978714     0.978325031672
    C            0.345087221304     0.977148470859    -0.032863518655
    H            1.144935004629    -0.717970845465    -1.119973029727
    H            1.853400187438    -0.477496156074     0.502843229140
    C            0.925509305725    -0.460649902394    -0.077784270112
    H            0.427683887918    -2.512170547448     0.446609778372
    H           -0.969489502385    -1.543721725208    -0.064942217047
    H           -0.263895912483    -1.297139753403     1.546259834319
    C           -0.033892689449    -1.521354315156     0.499101424705

gradient() will perform analytic gradient computation.

*** tstart() called on lski1497
*** at Tue Feb 21 18:45:09 2017


         ---------------------------------------------------------
                                   SCF
            by Justin Turney, Rob Parrish, and Andy Simmonett
                              RKS Reference
                        1 Threads,   1000 MiB Core
         ---------------------------------------------------------

  ==> Geometry <==

    Molecular point group: c1
    Full point group: C1

    Geometry (in Angstrom), charge = 0, multiplicity = 1:

       Center              X                  Y                   Z               Mass       
    ------------   -----------------  -----------------  -----------------  -----------------
           H         -1.744036777815     0.440283383966     0.301929853214     1.007825032070
           H         -1.505956527191     2.074051314394    -0.352532994936     1.007825032070
           H         -1.314475668428     0.655240422055    -1.408623203881     1.007825032070
           C         -1.153231356150     1.038832553609    -0.395657881386    12.000000000000
           H          0.900941790385     1.596725909287    -0.744116564781     1.007825032070
           H          0.477000981736     1.377641978714     0.978325031672     1.007825032070
           C          0.345087221304     0.977148470859    -0.032863518655    12.000000000000
           H          1.144935004629    -0.717970845465    -1.119973029727     1.007825032070
           H          1.853400187438    -0.477496156074     0.502843229140     1.007825032070
           C          0.925509305725    -0.460649902394    -0.077784270112    12.000000000000
           H          0.427683887918    -2.512170547448     0.446609778372     1.007825032070
           H         -0.969489502385    -1.543721725208    -0.064942217047     1.007825032070
           H         -0.263895912483    -1.297139753403     1.546259834319     1.007825032070
           C         -0.033892689449    -1.521354315156     0.499101424705    12.000000000000

  Running in c1 symmetry.

  Rotational constants: A =      0.40225  B =      0.17526  C =      0.13825 [cm^-1]
  Rotational constants: A =  12059.26391  B =   5254.18339  C =   4144.71084 [MHz]
  Nuclear repulsion =  132.791948701101745

  Charge       = 0
  Multiplicity = 1
  Electrons    = 34
  Nalpha       = 17
  Nbeta        = 17

  ==> Algorithm <==

  SCF Algorithm Type is DF.
  DIIS enabled.
  MOM disabled.
  Fractional occupation disabled.
  Guess Type is READ.
  Energy threshold   = 1.00e-08
  Density threshold  = 1.00e-08
  Integral threshold = 0.00e+00

  ==> Primary Basis <==

  Basis Set: CC-PVDZ
    Number of shells: 54
    Number of basis function: 106
    Number of Cartesian functions: 110
    Spherical Harmonics?: true
    Max angular momentum: 2

  ==> DFT Potential <==

   => B3LYP Composite Functional <= 

    B3LYP Hybrid-GGA Exchange-Correlation Functional (VWN1-RPA)

    P.J. Stephens et. al., J. Phys. Chem., 98, 11623-11627, 1994

    Points   =           5000
    Deriv    =              1
    GGA      =           TRUE
    Meta     =          FALSE

    X_LRC        =          FALSE
    X_Hybrid     =           TRUE
    X_Alpha      =   2.000000E-01
    X_Omega      =   0.000000E+00
    C_LRC        =          FALSE
    C_Hybrid     =          FALSE
    C_Alpha      =   0.000000E+00
    C_Omega      =   0.000000E+00

   => Exchange Functionals <=

    0.8000    B3_X
    0.2000      HF 

   => Correlation Functionals <=

    0.1900 VWN3RPA_C
    0.8100   LYP_C

   => Molecular Quadrature <=

    Radial Scheme    =       TREUTLER
    Pruning Scheme   =           FLAT
    Nuclear Scheme   =       TREUTLER

    BS radius alpha  =              1
    Pruning alpha    =              1
    Radial Points    =             75
    Spherical Points =            302
    Total Points     =         312770
    Total Blocks     =            266
    Max Points       =           4991
    Max Functions    =            106

  ==> Pre-Iterations <==

   -------------------------------------------------------
    Irrep   Nso     Nmo     Nalpha   Nbeta   Ndocc  Nsocc
   -------------------------------------------------------
     A        106     106       0       0       0       0
   -------------------------------------------------------
    Total     106     106      17      17      17       0
   -------------------------------------------------------

  ==> Integral Setup <==

  ==> DFJK: Density-Fitted J/K Matrices <==

    J tasked:                  Yes
    K tasked:                  Yes
    wK tasked:                  No
    OpenMP threads:              1
    Integrals threads:           1
    Memory (MB):               715
    Algorithm:                Core
    Integral Cache:           NONE
    Schwarz Cutoff:          1E-12
    Fitting Condition:       1E-12

   => Auxiliary Basis Set <=

  Basis Set: 
    Number of shells: 186
    Number of basis function: 510
    Number of Cartesian functions: 574
    Spherical Harmonics?: true
    Max angular momentum: 3

  Minimum eigenvalue in the overlap matrix is 4.3546661175E-03.
  Using Symmetric Orthogonalization.
  SCF Guess was Projection but file not found.
  Switching over to SAD guess.

  SCF Guess: Superposition of Atomic Densities via on-the-fly atomic UHF.

  ==> Iterations <==

                           Total Energy        Delta E     RMS |[F,P]|

   @DF-RKS iter   0:  -158.87411745438209   -1.58874e+02   3.20992e-02 
   @DF-RKS iter   1:  -158.26979645061618    6.04321e-01   5.34634e-03 
   @DF-RKS iter   2:  -158.18303099315418    8.67655e-02   6.57365e-03 DIIS
   @DF-RKS iter   3:  -158.45217662638404   -2.69146e-01   3.85442e-04 DIIS
   @DF-RKS iter   4:  -158.45303233927211   -8.55713e-04   1.21042e-04 DIIS
   @DF-RKS iter   5:  -158.45310598780222   -7.36485e-05   4.79074e-05 DIIS
   @DF-RKS iter   6:  -158.45311843175568   -1.24440e-05   7.76747e-06 DIIS
   @DF-RKS iter   7:  -158.45311880715587   -3.75400e-07   1.05296e-06 DIIS
   @DF-RKS iter   8:  -158.45311881461055   -7.45467e-09   1.85875e-07 DIIS
   @DF-RKS iter   9:  -158.45311881476303   -1.52482e-10   1.05083e-07 DIIS
   @DF-RKS iter  10:  -158.45311881482408   -6.10498e-11   1.34226e-08 DIIS
   @DF-RKS iter  11:  -158.45311881482507   -9.94760e-13   2.42511e-09 DIIS

  ==> Post-Iterations <==

    Orbital Energies (a.u.)
    -----------------------

    Doubly Occupied:                                                      

       1A    -10.178106     2A    -10.177951     3A    -10.172230  
       4A    -10.172190     5A     -0.789791     6A     -0.713872  
       7A     -0.640719     8A     -0.558340     9A     -0.461686  
      10A     -0.449241    11A     -0.411366    12A     -0.383723  
      13A     -0.374535    14A     -0.358527    15A     -0.321956  
      16A     -0.320477    17A     -0.317272  

    Virtual:                                                              

      18A      0.057301    19A      0.094781    20A      0.098722  
      21A      0.105680    22A      0.132399    23A      0.135148  
      24A      0.155927    25A      0.158113    26A      0.162402  
      27A      0.176475    28A      0.204741    29A      0.228697  
      30A      0.267590    31A      0.406038    32A      0.414607  
      33A      0.436180    34A      0.447076    35A      0.451964  
      36A      0.494041    37A      0.504365    38A      0.583542  
      39A      0.597299    40A      0.613100    41A      0.625099  
      42A      0.640598    43A      0.653215    44A      0.660661  
      45A      0.671564    46A      0.674150    47A      0.677747  
      48A      0.696234    49A      0.709226    50A      0.714798  
      51A      0.760738    52A      0.816755    53A      0.888658  
      54A      0.899148    55A      0.968776    56A      1.085312  
      57A      1.150994    58A      1.193700    59A      1.209302  
      60A      1.269083    61A      1.294997    62A      1.362494  
      63A      1.407461    64A      1.420958    65A      1.449957  
      66A      1.545976    67A      1.561360    68A      1.583460  
      69A      1.585401    70A      1.630371    71A      1.634512  
      72A      1.637339    73A      1.666529    74A      1.673881  
      75A      1.683781    76A      1.688738    77A      1.691764  
      78A      1.735276    79A      1.753692    80A      1.762269  
      81A      1.782310    82A      1.798836    83A      1.854613  
      84A      1.889739    85A      1.950683    86A      1.964987  
      87A      2.020201    88A      2.071101    89A      2.105688  
      90A      2.114684    91A      2.192468    92A      2.237841  
      93A      2.246796    94A      2.263862    95A      2.304975  
      96A      2.313653    97A      2.434145    98A      2.437362  
      99A      2.473566   100A      2.490984   101A      2.506852  
     102A      2.531540   103A      2.611591   104A      2.631435  
     105A      2.682107   106A      2.719269  

    Final Occupation by Irrep:
              A 
    DOCC [    17 ]

  Energy converged.

  @DF-RKS Final Energy:  -158.45311881482507

   => Energetics <=

    Nuclear Repulsion Energy =            132.7919487011017452
    One-Electron Energy =                -474.0734509208573400
    Two-Electron Energy =                 203.4330769043759517
    DFT Exchange-Correlation Energy =     -20.6046934994454496
    Empirical Dispersion Energy =           0.0000000000000000
    PCM Polarization Energy =               0.0000000000000000
    EFP Energy =                            0.0000000000000000
    Total Energy =                       -158.4531188148250749


  Saving occupied orbitals to File 180.

*** tstop() called on lski1497 at Tue Feb 21 18:47:42 2017
Module time:
	user time   =     126.24 seconds =       2.10 minutes
	system time =       1.69 seconds =       0.03 minutes
	total time  =        153 seconds =       2.55 minutes
Total time:
	user time   =     462.47 seconds =       7.71 minutes
	system time =       6.60 seconds =       0.11 minutes
	total time  =        547 seconds =       9.12 minutes


Properties will be evaluated at   0.000000,   0.000000,   0.000000 Bohr

Properties computed using the SCF density matrix

  Nuclear Dipole Moment: (a.u.)
     X:    -0.9317      Y:    -0.3793      Z:     0.0804

  Electronic Dipole Moment: (a.u.)
     X:     0.9487      Y:     0.3860      Z:    -0.0820

  Dipole Moment: (a.u.)
     X:     0.0169      Y:     0.0067      Z:    -0.0016     Total:     0.0183

  Dipole Moment: (Debye)
     X:     0.0430      Y:     0.0171      Z:    -0.0040     Total:     0.0465


*** tstart() called on lski1497
*** at Tue Feb 21 18:47:42 2017


         ------------------------------------------------------------
                                   SCF GRAD                          
                          Rob Parrish, Justin Turney,                
                       Andy Simmonett, and Alex Sokolov              
         ------------------------------------------------------------

  ==> Geometry <==

    Molecular point group: c1
    Full point group: C1

    Geometry (in Angstrom), charge = 0, multiplicity = 1:

       Center              X                  Y                   Z               Mass       
    ------------   -----------------  -----------------  -----------------  -----------------
           H         -1.744036777815     0.440283383966     0.301929853214     1.007825032070
           H         -1.505956527191     2.074051314394    -0.352532994936     1.007825032070
           H         -1.314475668428     0.655240422055    -1.408623203881     1.007825032070
           C         -1.153231356150     1.038832553609    -0.395657881386    12.000000000000
           H          0.900941790385     1.596725909287    -0.744116564781     1.007825032070
           H          0.477000981736     1.377641978714     0.978325031672     1.007825032070
           C          0.345087221304     0.977148470859    -0.032863518655    12.000000000000
           H          1.144935004629    -0.717970845465    -1.119973029727     1.007825032070
           H          1.853400187438    -0.477496156074     0.502843229140     1.007825032070
           C          0.925509305725    -0.460649902394    -0.077784270112    12.000000000000
           H          0.427683887918    -2.512170547448     0.446609778372     1.007825032070
           H         -0.969489502385    -1.543721725208    -0.064942217047     1.007825032070
           H         -0.263895912483    -1.297139753403     1.546259834319     1.007825032070
           C         -0.033892689449    -1.521354315156     0.499101424705    12.000000000000

  Nuclear repulsion =  132.791948701101745

  ==> Basis Set <==

  Basis Set: CC-PVDZ
    Number of shells: 54
    Number of basis function: 106
    Number of Cartesian functions: 110
    Spherical Harmonics?: true
    Max angular momentum: 2

  ==> DFJKGrad: Density-Fitted SCF Gradients <==

    Gradient:                    1
    J tasked:                  Yes
    K tasked:                  Yes
    wK tasked:                  No
    OpenMP threads:              1
    Integrals threads:           1
    Memory (MB):               715
    Schwarz Cutoff:          0E+00
    Fitting Condition:       1E-12

   => Auxiliary Basis Set <=

  Basis Set: 
    Number of shells: 186
    Number of basis function: 510
    Number of Cartesian functions: 574
    Spherical Harmonics?: true
    Max angular momentum: 3

  ==> DFT Potential <==

   => B3LYP Composite Functional <= 

    B3LYP Hybrid-GGA Exchange-Correlation Functional (VWN1-RPA)

    P.J. Stephens et. al., J. Phys. Chem., 98, 11623-11627, 1994

    Points   =           5000
    Deriv    =              1
    GGA      =           TRUE
    Meta     =          FALSE

    X_LRC        =          FALSE
    X_Hybrid     =           TRUE
    X_Alpha      =   2.000000E-01
    X_Omega      =   0.000000E+00
    C_LRC        =          FALSE
    C_Hybrid     =          FALSE
    C_Alpha      =   0.000000E+00
    C_Omega      =   0.000000E+00

   => Exchange Functionals <=

    0.8000    B3_X
    0.2000      HF 

   => Correlation Functionals <=

    0.1900 VWN3RPA_C
    0.8100   LYP_C

   => Molecular Quadrature <=

    Radial Scheme    =       TREUTLER
    Pruning Scheme   =           FLAT
    Nuclear Scheme   =       TREUTLER

[...]
	 H           0.8795144882       -4.7833174750        0.8582722137
	 H          -1.8145612678       -3.0232663955       -0.1083905346
	 H          -0.4910362558       -2.5234685596        2.9428047870
	 C          -0.0298059483       -2.9160954337        0.9502539687
	             0.0013674906       -0.0005711048       -0.0002937378
	             0.0010845815       -0.0009443347        0.0005865195
	             0.0013149424        0.0002816342        0.0010867261
	            -0.0058648548       -0.0008117584        0.0005903145
	            -0.0022174745       -0.0029022554       -0.0022547423
	            -0.0012337440       -0.0023522040       -0.0006104848
	             0.0054834835        0.0071625330       -0.0003212955
	            -0.0024082940        0.0008644135        0.0009102184
	            -0.0032398531        0.0006767122        0.0026782123
	             0.0088373045       -0.0013643281       -0.0008044026
	            -0.0000253125        0.0014053559       -0.0006748874
	             0.0005953675        0.0013486418        0.0001458477
	             0.0009092898        0.0006228892       -0.0012536817
	            -0.0046200105       -0.0034230685        0.0002168646

	---Fragment 1 Intrafragment Coordinates---
	 - Coordinate -           - BOHR/RAD -       - ANG/DEG -
	 R(1,4)           =         2.077827	       1.099539
	 R(2,4)           =         2.078978	       1.100148
	 R(3,4)           =         2.082434	       1.101977
	 R(4,7)           =         2.907409	       1.538535
	 R(5,7)           =         2.080912	       1.101171
	 R(6,7)           =         2.083342	       1.102457
	 R(7,10)          =         2.927446	       1.549138
	 R(8,10)          =         2.083440	       1.102509
	 R(9,10)          =         2.080823	       1.101124
	 R(10,14)         =         2.906911	       1.538271
	 R(11,14)         =         2.078904	       1.100109
	 R(12,14)         =         2.077875	       1.099564
	 R(13,14)         =         2.082582	       1.102055
	 B(1,4,2)         =         1.883071	     107.891992
	 B(1,4,3)         =         1.883359	     107.908500
	 B(1,4,7)         =         1.946180	     111.507927
	 B(2,4,3)         =         1.884666	     107.983400
	 B(2,4,7)         =         1.926696	     110.391568
	 B(3,4,7)         =         1.937659	     111.019657
	 B(4,7,5)         =         1.896812	     108.679314
	 B(4,7,6)         =         1.890967	     108.344413
	 B(4,7,10)        =         1.998929	     114.530217
	 B(5,7,6)         =         1.888180	     108.184757
	 B(5,7,10)        =         1.888641	     108.211142
	 B(6,7,10)        =         1.897625	     108.725930
	 B(7,10,8)        =         1.897344	     108.709816
	 B(7,10,9)        =         1.888900	     108.226019
	 B(7,10,14)       =         1.999076	     114.538601
	 B(8,10,9)        =         1.887845	     108.165575
	 B(8,10,14)       =         1.890713	     108.329869
	 B(9,10,14)       =         1.897245	     108.704148
	 B(10,14,11)      =         1.927113	     110.415427
	 B(10,14,12)      =         1.946379	     111.519275
	 B(10,14,13)      =         1.938182	     111.049667
	 B(11,14,12)      =         1.882660	     107.868461
	 B(11,14,13)      =         1.884451	     107.971066
	 B(12,14,13)      =         1.882788	     107.875786
	 D(1,4,7,5)       =        -3.111593	    -178.281157
	 D(1,4,7,6)       =        -1.063734	     -60.947455
	 D(1,4,7,10)      =         1.057555	      60.593418
	 D(2,4,7,5)       =        -1.018604	     -58.361686
	 D(2,4,7,6)       =         1.029256	      58.972016
	 D(2,4,7,10)      =        -3.132641	    -179.487111
	 D(3,4,7,5)       =         1.070837	      61.354433
	 D(3,4,7,6)       =         3.118696	     178.688134
	 D(3,4,7,10)      =        -1.043201	     -59.770993
	 D(4,7,10,8)      =         1.410624	      80.822819
	 D(4,7,10,9)      =        -2.825948	    -161.914886
	 D(4,7,10,14)     =        -0.706575	     -40.483760
	 D(5,7,10,8)      =        -0.707904	     -40.559895
	 D(5,7,10,9)      =         1.338709	      76.702400
	 D(5,7,10,14)     =        -2.825103	    -161.866473
	 D(6,7,10,8)      =        -2.754925	    -157.845568
	 D(6,7,10,9)      =        -0.708312	     -40.583273
	 D(6,7,10,14)     =         1.411061	      80.847853
	 D(7,10,14,11)    =        -3.132553	    -179.482065
	 D(7,10,14,12)    =         1.057751	      60.604694
	 D(7,10,14,13)    =        -1.042770	     -59.746313
	 D(8,10,14,11)    =         1.029795	      59.002935
	 D(8,10,14,12)    =        -1.063085	     -60.910306
	 D(8,10,14,13)    =         3.119579	     178.738687
	 D(9,10,14,11)    =        -1.017763	     -58.313529
	 D(9,10,14,12)    =        -3.110644	    -178.226770
	 D(9,10,14,13)    =         1.072020	      61.422223

	Current energy   :      -158.4546761870

	Energy change for the previous step:
		Projected    :        -0.0028186251
		Actual       :        -0.0015573722

	Performing BFGS update.
	Previous computed or guess Hessian on step 1.
	Steps to be used in Hessian update: 3 2
	Adding user-defined constraint: Fragment 1; Coordinate 49:
		Value =    -0.706575; Fixed value    =    -0.698130
		Force =     0.004856; Force constant =     0.575000
	Removing off-diagonal coupling between coordinate 49 and others.
	Taking RFO optimization step.
	Going to follow RFO solution 1.
	Using RFO vector 1.

	Determining step-restricting scale parameter for RS-RFO.
	Maximum step size allowed    0.10000

	 Iter      |step|        alpha        rfo_root  
	------------------------------------------------
	    0     0.30490       1.00000           1
	    1     0.20313       3.56980           1
	    2     0.14913       8.69912           1
	    3     0.11943      17.29608           1
	    4     0.10471      26.17817           1
	    5     0.10038      29.86647           1
	    6     0.10000      30.21499           1
	------------------------------------------------
	Norm of target step-size    0.10000
	Projected energy change by RFO approximation:        -0.0010795431

	Back-transformation to cartesian coordinates...
	Successfully converged to displaced geometry.

	--- Internal Coordinate Step in ANG or DEG, aJ/ANG or AJ/DEG ---
	 ---------------------------------------------------------------------------
	   Coordinate                Previous        Force       Change         New 
	   ----------                --------       ------       ------       ------
	    1 R(1,4)          =      1.099539     0.005433     0.001334     1.100873
	    2 R(2,4)          =      1.100148     0.009986     0.001448     1.101595
	    3 R(3,4)          =      1.101977     0.010876     0.001843     1.103819
	    4 R(4,7)          =      1.538535    -0.011870    -0.004729     1.533806
	    5 R(5,7)          =      1.101171     0.011081     0.001821     1.102992
	    6 R(6,7)          =      1.102457     0.013163     0.002305     1.104762
	    7 R(7,10)         =      1.549138     0.001074    -0.002778     1.546360
	    8 R(8,10)         =      1.102509     0.012996     0.002275     1.104784
	    9 R(9,10)         =      1.101124     0.011335     0.001856     1.102980
	   10 R(10,14)        =      1.538271    -0.011107    -0.004519     1.533752
	   11 R(11,14)        =      1.100109     0.010246     0.001477     1.101585
	   12 R(12,14)        =      1.099564     0.005410     0.001322     1.100886
	   13 R(13,14)        =      1.102055     0.010570     0.001787     1.103842
	   14 B(1,4,2)        =    107.891992    -0.000086    -0.435040   107.456952
	   15 B(1,4,3)        =    107.908500    -0.000076    -0.339411   107.569089
	   16 B(1,4,7)        =    111.507927     0.000093     0.433553   111.941480
	   17 B(2,4,3)        =    107.983400    -0.000085    -0.467490   107.515911
	   18 B(2,4,7)        =    110.391568     0.000049     0.211477   110.603046
	   19 B(3,4,7)        =    111.019657     0.000092     0.523678   111.543335
	   20 B(4,7,5)        =    108.679314    -0.000025     0.399932   109.079246
	   21 B(4,7,6)        =    108.344413    -0.000080    -0.161947   108.182465
	   22 B(4,7,10)       =    114.530217     0.000284     0.886886   115.417104
	   23 B(5,7,6)        =    108.184757    -0.000087    -1.463441   106.721315
	   24 B(5,7,10)       =    108.211142    -0.000070     0.059641   108.270783
	   25 B(6,7,10)       =    108.725930    -0.000039     0.107482   108.833412
	   26 B(7,10,8)       =    108.709816    -0.000039     0.119494   108.829310
	   27 B(7,10,9)       =    108.226019    -0.000070     0.038703   108.264722
	   28 B(7,10,14)      =    114.538601     0.000283     0.892962   115.431562
	   29 B(8,10,9)       =    108.165575    -0.000086    -1.450501   106.715073
	   30 B(8,10,14)      =    108.329869    -0.000079    -0.161708   108.168161
	   31 B(9,10,14)      =    108.704148    -0.000026     0.389825   109.093974
	   32 B(10,14,11)     =    110.415427     0.000046     0.207388   110.622815
	   33 B(10,14,12)     =    111.519275     0.000091     0.427172   111.946447
	   34 B(10,14,13)     =    111.049667     0.000088     0.501361   111.551028
	   35 B(11,14,12)     =    107.868461    -0.000083    -0.426606   107.441856
	   36 B(11,14,13)     =    107.971066    -0.000083    -0.461629   107.509438
	   37 B(12,14,13)     =    107.875786    -0.000072    -0.319614   107.556172
	   38 D(1,4,7,5)      =   -178.281157     0.000027     1.494931  -176.786226
	   39 D(1,4,7,6)      =    -60.947455    -0.000011    -0.114438   -61.061893
	   40 D(1,4,7,10)     =     60.593418     0.000008     0.503919    61.097337
	   41 D(2,4,7,5)      =    -58.361686     0.000023     1.374259   -56.987427
	   42 D(2,4,7,6)      =     58.972016    -0.000014    -0.235110    58.736906
	   43 D(2,4,7,10)     =   -179.487111     0.000004     0.383246  -179.103865
	   44 D(3,4,7,5)      =     61.354433     0.000020     1.268495    62.622928
	   45 D(3,4,7,6)      =    178.688134    -0.000017    -0.340873   178.347260
	   46 D(3,4,7,10)     =    -59.770993     0.000001     0.277483   -59.493510
	   47 D(4,7,10,8)     =     80.822819     0.000015     0.417738    81.240556
	   48 D(4,7,10,9)     =   -161.914886    -0.000022    -1.215816  -163.130702
	   49 D(4,7,10,14)    =    -40.483760     0.000002    -0.074179   -40.557938
	   50 D(5,7,10,8)     =    -40.559895    -0.000009    -0.747702   -41.307597
	   51 D(5,7,10,9)     =     76.702400    -0.000046    -2.381256    74.321144
	   52 D(5,7,10,14)    =   -161.866473    -0.000022    -1.239619  -163.106092
	   53 D(6,7,10,8)     =   -157.845568     0.000029     0.896426  -156.949142
	   54 D(6,7,10,9)     =    -40.583273    -0.000009    -0.737128   -41.320401
	   55 D(6,7,10,14)    =     80.847853     0.000015     0.404510    81.252363
	   56 D(7,10,14,11)   =   -179.482065     0.000005     0.400089  -179.081975
	   57 D(7,10,14,12)   =     60.604694     0.000008     0.516912    61.121606
	   58 D(7,10,14,13)   =    -59.746313     0.000001     0.284797   -59.461516
	   59 D(8,10,14,11)   =     59.002935    -0.000014    -0.237739    58.765196
	   60 D(8,10,14,12)   =    -60.910306    -0.000011    -0.120916   -61.031222
	   61 D(8,10,14,13)   =    178.738687    -0.000017    -0.353031   178.385656
	   62 D(9,10,14,11)   =    -58.313529     0.000023     1.361718   -56.951811
	   63 D(9,10,14,12)   =   -178.226770     0.000026     1.478540  -176.748229
	   64 D(9,10,14,13)   =     61.422223     0.000019     1.246425    62.668648
	 ---------------------------------------------------------------------------
	 Forces used to impose fixed constraints are not included.
	  Forces zeroed: 49 

  ==> Convergence Check <==

  Measures of convergence in internal coordinates in au.
  Criteria marked as inactive (o), active & met (*), and active & unmet ( ).
  ---------------------------------------------------------------------------------------------
   Step     Total Energy     Delta E     MAX Force     RMS Force      MAX Disp      RMS Disp   
  ---------------------------------------------------------------------------------------------
    Convergence Criteria    1.00e-06 *    3.00e-04 *             o    1.20e-03 *             o
  ---------------------------------------------------------------------------------------------
      4    -158.45467619   -1.56e-03      3.73e-03      1.24e-03 o    4.16e-02      1.25e-02 o  ~
  ---------------------------------------------------------------------------------------------

	Writing optimization data to binary file.
	Structure for next step:
	Cartesian Geometry (in Angstrom)
	    H    -1.7973383365   0.5186989405   0.2986520537
	    H    -1.4930788353   2.1259034924  -0.3922586597
	    H    -1.3689237205   0.6796142300  -1.4202180773
	    C    -1.1643693878   1.0746434273  -0.4100069213
	    H     0.9074530885   1.5868524464  -0.7569151320
	    H     0.4702543397   1.4043868318   0.9500839008
	    C     0.3238567635   0.9684042726  -0.0543994681
	    H     1.1474827847  -0.7411922695  -1.1096073630
	    H     1.8637611562  -0.4511973117   0.4844140607
	    C     0.9088145150  -0.4629881505  -0.0674043188
	    H     0.5008848728  -2.5320317245   0.4882129492
	    H    -0.9445897125  -1.6420185400  -0.0322829183
	    H    -0.2485848640  -1.3416067136   1.5767097124
	    C     0.0020545721  -1.5504489187   0.5221803903
			--------------------------
			 OPTKING Finished Execution 
			--------------------------

    Structure for next step:
    Molecular point group: c1
    Full point group: C1

    Geometry (in Angstrom), charge = 0, multiplicity = 1:

    H           -1.795169974574     0.519393436061     0.299135782905
    H           -1.490910473305     2.126597987907    -0.391774930494
    H           -1.366755358513     0.680308725548    -1.419734348089
    C           -1.162201025795     1.075337922815    -0.409523192026
    H            0.909621450477     1.587546941895    -0.756431402780
    H            0.472422701650     1.405081327307     0.950567630065
    C            0.326025125435     0.969098768089    -0.053915738813
    H            1.149651146717    -0.740497773969    -1.109123633736
    H            1.865929518215    -0.450502816196     0.484897789957
    C            0.910982876958    -0.462293654952    -0.066920589535
    H            0.503053234763    -2.531337229017     0.488696678432
    H           -0.942421350499    -1.641324044524    -0.031799189058
    H           -0.246416501999    -1.340912218082     1.577193441602
    C            0.004222934058    -1.549754423222     0.522664119589

gradient() will perform analytic gradient computation.

*** tstart() called on lski1497
*** at Tue Feb 21 18:51:41 2017


         ---------------------------------------------------------
                                   SCF
            by Justin Turney, Rob Parrish, and Andy Simmonett
                              RKS Reference
                        1 Threads,   1000 MiB Core
         ---------------------------------------------------------

  ==> Geometry <==

    Molecular point group: c1
    Full point group: C1

    Geometry (in Angstrom), charge = 0, multiplicity = 1:

       Center              X                  Y                   Z               Mass       
    ------------   -----------------  -----------------  -----------------  -----------------
           H         -1.795169974574     0.519393436061     0.299135782905     1.007825032070
           H         -1.490910473305     2.126597987907    -0.391774930494     1.007825032070
           H         -1.366755358513     0.680308725548    -1.419734348089     1.007825032070
           C         -1.162201025795     1.075337922815    -0.409523192026    12.000000000000
           H          0.909621450477     1.587546941895    -0.756431402780     1.007825032070
           H          0.472422701650     1.405081327307     0.950567630065     1.007825032070
           C          0.326025125435     0.969098768089    -0.053915738813    12.000000000000
           H          1.149651146717    -0.740497773969    -1.109123633736     1.007825032070
           H          1.865929518215    -0.450502816196     0.484897789957     1.007825032070
           C          0.910982876958    -0.462293654952    -0.066920589535    12.000000000000
           H          0.503053234763    -2.531337229017     0.488696678432     1.007825032070
           H         -0.942421350499    -1.641324044524    -0.031799189058     1.007825032070
           H         -0.246416501999    -1.340912218082     1.577193441602     1.007825032070
           C          0.004222934058    -1.549754423222     0.522664119589    12.000000000000

  Running in c1 symmetry.

  Rotational constants: A =      0.41190  B =      0.16789  C =      0.13438 [cm^-1]
  Rotational constants: A =  12348.33244  B =   5033.21915  C =   4028.54352 [MHz]
  Nuclear repulsion =  131.939387319588121

  Charge       = 0
  Multiplicity = 1
  Electrons    = 34
  Nalpha       = 17
  Nbeta        = 17

  ==> Algorithm <==

  SCF Algorithm Type is DF.
  DIIS enabled.
  MOM disabled.
  Fractional occupation disabled.
  Guess Type is READ.
  Energy threshold   = 1.00e-08
  Density threshold  = 1.00e-08
  Integral threshold = 0.00e+00

  ==> Primary Basis <==

  Basis Set: CC-PVDZ
    Number of shells: 54
    Number of basis function: 106
    Number of Cartesian functions: 110
    Spherical Harmonics?: true
    Max angular momentum: 2

  ==> DFT Potential <==

   => B3LYP Composite Functional <= 

    B3LYP Hybrid-GGA Exchange-Correlation Functional (VWN1-RPA)

    P.J. Stephens et. al., J. Phys. Chem., 98, 11623-11627, 1994

    Points   =           5000
    Deriv    =              1
    GGA      =           TRUE
    Meta     =          FALSE

    X_LRC        =          FALSE
    X_Hybrid     =           TRUE
    X_Alpha      =   2.000000E-01
    X_Omega      =   0.000000E+00
    C_LRC        =          FALSE
    C_Hybrid     =          FALSE
    C_Alpha      =   0.000000E+00
    C_Omega      =   0.000000E+00

   => Exchange Functionals <=

    0.8000    B3_X
    0.2000      HF 

   => Correlation Functionals <=

    0.1900 VWN3RPA_C
    0.8100   LYP_C

   => Molecular Quadrature <=

    Radial Scheme    =       TREUTLER
    Pruning Scheme   =           FLAT
    Nuclear Scheme   =       TREUTLER

    BS radius alpha  =              1
    Pruning alpha    =              1
    Radial Points    =             75
    Spherical Points =            302
    Total Points     =         312779
    Total Blocks     =            268
    Max Points       =           4996
    Max Functions    =            106

  ==> Pre-Iterations <==

   -------------------------------------------------------
    Irrep   Nso     Nmo     Nalpha   Nbeta   Ndocc  Nsocc
   -------------------------------------------------------
     A        106     106       0       0       0       0
   -------------------------------------------------------
    Total     106     106      17      17      17       0
   -------------------------------------------------------

  ==> Integral Setup <==

  ==> DFJK: Density-Fitted J/K Matrices <==

    J tasked:                  Yes
    K tasked:                  Yes
    wK tasked:                  No
    OpenMP threads:              1
    Integrals threads:           1
    Memory (MB):               715
    Algorithm:                Core
    Integral Cache:           NONE
    Schwarz Cutoff:          1E-12
    Fitting Condition:       1E-12

   => Auxiliary Basis Set <=

  Basis Set: 
    Number of shells: 186
    Number of basis function: 510
    Number of Cartesian functions: 574
    Spherical Harmonics?: true
    Max angular momentum: 3

  Minimum eigenvalue in the overlap matrix is 4.3748186607E-03.
  Using Symmetric Orthogonalization.
  SCF Guess was Projection but file not found.
  Switching over to SAD guess.

  SCF Guess: Superposition of Atomic Densities via on-the-fly atomic UHF.

  ==> Iterations <==

                           Total Energy        Delta E     RMS |[F,P]|

