    -----------------------------------------------------------------------
          Psi4: An Open-Source Ab Initio Electronic Structure Package
                              Psi4 1.0.0 Driver

                          Git: Rev {master} 6a9a71b 

    J. M. Turney, A. C. Simmonett, R. M. Parrish, E. G. Hohenstein,
    F. A. Evangelista, J. T. Fermann, B. J. Mintz, L. A. Burns, J. J. Wilke,
    M. L. Abrams, N. J. Russ, M. L. Leininger, C. L. Janssen, E. T. Seidl,
    W. D. Allen, H. F. Schaefer, R. A. King, E. F. Valeev, C. D. Sherrill,
    and T. D. Crawford, WIREs Comput. Mol. Sci. 2, 556-565 (2012)
    (doi: 10.1002/wcms.93)

                         Additional Contributions by
    A. E. DePrince, U. Bozkaya, A. Yu. Sokolov, D. G. A. Smith, R. Di Remigio,
    R. M. Richard, J. F. Gonthier, H. R. McAlexander, M. Saitow, and
    B. P. Pritchard
    -----------------------------------------------------------------------


    Psi4 started on: Thu Feb 16 16:25:34 2017

    Process ID:   1488
    PSI4DATADIR: /Users/sternc1/anaconda/share/psi4
    Memory level set to 256.000 MB

  ==> Input File <==

--------------------------------------------------------------------------

memory 1000 mb

molecule butane {
  symmetry C1
  0 1 
  H      1.604   0.760   -8.260
  H      1.745   2.388   -8.880
  H      2.043   1.024   -9.930
  C      2.142   1.395   -8.932
  H      4.169   2.051   -9.210
  H      3.731   1.788   -7.539
  C      3.631   1.416   -8.537
  H      3.929   -0.552   -7.731
  H      3.808   -0.510   -9.472
  C      4.203   -0.012   -8.612
  H      6.134   -0.938   -8.769
  H      6.133   0.552   -7.857
  H      6.013   0.594   -9.599
  C      5.737   0.054   -8.717
  units Angstrom
}

dih_string = "4 7 10 14 160"
set optking fixed_dihedral = $dih_string

optimize('MP2/6-31G(d)')
--------------------------------------------------------------------------

  Memory set to 1000.000 MiB by Python script.
gradient() will perform analytic gradient computation.
    SCF Algorithm Type (re)set to DF.

*** tstart() called on lski1497
*** at Thu Feb 16 16:25:35 2017


         ---------------------------------------------------------
                                   SCF
            by Justin Turney, Rob Parrish, and Andy Simmonett
                              RHF Reference
                        1 Threads,   1000 MiB Core
         ---------------------------------------------------------

  ==> Geometry <==

    Molecular point group: c1
    Full point group: C1

    Geometry (in Angstrom), charge = 0, multiplicity = 1:

       Center              X                  Y                   Z               Mass       
    ------------   -----------------  -----------------  -----------------  -----------------
           H         -2.324709851376     0.046324854388     0.443872926296     1.007825032070
           H         -2.183709851376     1.674324854388    -0.176127073704     1.007825032070
           H         -1.885709851376     0.310324854388    -1.226127073704     1.007825032070
           C         -1.786709851376     0.681324854388    -0.228127073704    12.000000000000
           H          0.240290148624     1.337324854388    -0.506127073704     1.007825032070
           H         -0.197709851376     1.074324854388     1.164872926296     1.007825032070
           C         -0.297709851376     0.702324854388     0.166872926296    12.000000000000
           H          0.000290148624    -1.265675145612     0.972872926296     1.007825032070
           H         -0.120709851376    -1.223675145612    -0.768127073704     1.007825032070
           C          0.274290148624    -0.725675145612     0.091872926296    12.000000000000
           H          2.205290148624    -1.651675145612    -0.065127073704     1.007825032070
           H          2.204290148624    -0.161675145612     0.846872926296     1.007825032070
           H          2.084290148624    -0.119675145612    -0.895127073704     1.007825032070
           C          1.808290148624    -0.659675145612    -0.013127073704    12.000000000000

  Running in c1 symmetry.

  Rotational constants: A =      0.74159  B =      0.12545  C =      0.11800 [cm^-1]
  Rotational constants: A =  22232.31494  B =   3760.75927  C =   3537.48422 [MHz]
  Nuclear repulsion =  131.918953698964117

  Charge       = 0
  Multiplicity = 1
  Electrons    = 34
  Nalpha       = 17
  Nbeta        = 17

  ==> Algorithm <==

  SCF Algorithm Type is DF.
  DIIS enabled.
  MOM disabled.
  Fractional occupation disabled.
  Guess Type is SAD.
  Energy threshold   = 1.00e-10
  Density threshold  = 1.00e-10
  Integral threshold = 0.00e+00

  ==> Primary Basis <==

  Basis Set: 6-31G(D)
    Number of shells: 44
    Number of basis function: 80
    Number of Cartesian functions: 80
    Spherical Harmonics?: false
    Max angular momentum: 2

  ==> Pre-Iterations <==

   -------------------------------------------------------
    Irrep   Nso     Nmo     Nalpha   Nbeta   Ndocc  Nsocc
   -------------------------------------------------------
     A         80      80       0       0       0       0
   -------------------------------------------------------
    Total      80      80      17      17      17       0
   -------------------------------------------------------

  ==> Integral Setup <==

  ==> DFJK: Density-Fitted J/K Matrices <==

    J tasked:                  Yes
    K tasked:                  Yes
    wK tasked:                  No
    OpenMP threads:              1
    Integrals threads:           1
    Memory (MB):               715
    Algorithm:                Core
    Integral Cache:           NONE
    Schwarz Cutoff:          1E-12
    Fitting Condition:       1E-12

   => Auxiliary Basis Set <=

  Basis Set: 
    Number of shells: 186
    Number of basis function: 574
    Number of Cartesian functions: 574
    Spherical Harmonics?: false
    Max angular momentum: 3

  Minimum eigenvalue in the overlap matrix is 4.5106444697E-03.
  Using Symmetric Orthogonalization.
  SCF Guess: Superposition of Atomic Densities via on-the-fly atomic UHF.

  ==> Iterations <==

                           Total Energy        Delta E     RMS |[F,P]|

   @DF-RHF iter   0:  -158.96940520214520   -1.58969e+02   4.74462e-02 
   @DF-RHF iter   1:  -157.20595430857435    1.76345e+00   3.90236e-03 
   @DF-RHF iter   2:  -157.28418958615185   -7.82353e-02   1.09628e-03 DIIS
   @DF-RHF iter   3:  -157.29218784936177   -7.99826e-03   2.46049e-04 DIIS
   @DF-RHF iter   4:  -157.29252072853342   -3.32879e-04   7.61058e-05 DIIS
   @DF-RHF iter   5:  -157.29255503296190   -3.43044e-05   1.26890e-05 DIIS
   @DF-RHF iter   6:  -157.29255618692224   -1.15396e-06   2.61793e-06 DIIS
   @DF-RHF iter   7:  -157.29255621922556   -3.23033e-08   6.85386e-07 DIIS
   @DF-RHF iter   8:  -157.29255622170257   -2.47701e-09   9.92215e-08 DIIS
   @DF-RHF iter   9:  -157.29255622178903   -8.64588e-11   2.24525e-08 DIIS
   @DF-RHF iter  10:  -157.29255622179369   -4.66116e-12   4.29212e-09 DIIS
   @DF-RHF iter  11:  -157.29255622179363    5.68434e-14   1.22982e-09 DIIS
   @DF-RHF iter  12:  -157.29255622179375   -1.13687e-13   3.43069e-10 DIIS
   @DF-RHF iter  13:  -157.29255622179375    0.00000e+00   7.08635e-11 DIIS

  ==> Post-Iterations <==

    Orbital Energies (a.u.)
    -----------------------

    Doubly Occupied:                                                      

       1A    -11.207598     2A    -11.206961     3A    -11.200200  
       4A    -11.200084     5A     -1.071061     6A     -0.981177  
       7A     -0.861996     8A     -0.794802     9A     -0.646737  
      10A     -0.587267    11A     -0.582616    12A     -0.565409  
      13A     -0.514291    14A     -0.505235    15A     -0.473754  
      16A     -0.468728    17A     -0.441157  

    Virtual:                                                              

      18A      0.233800    19A      0.266055    20A      0.289943  
      21A      0.299577    22A      0.325842    23A      0.338993  
      24A      0.340747    25A      0.348012    26A      0.355328  
      27A      0.360736    28A      0.419264    29A      0.430964  
      30A      0.435757    31A      0.699866    32A      0.714127  
      33A      0.747618    34A      0.751679    35A      0.766222  
      36A      0.846044    37A      0.853497    38A      0.931745  
      39A      0.951738    40A      1.020738    41A      1.074010  
      42A      1.089069    43A      1.158515    44A      1.191627  
      45A      1.204687    46A      1.209167    47A      1.218012  
      48A      1.224690    49A      1.245258    50A      1.254962  
      51A      1.262104    52A      1.295329    53A      1.296428  
      54A      1.588159    55A      1.667493    56A      1.719949  
      57A      1.742693    58A      1.930132    59A      1.937314  
      60A      2.145333    61A      2.196262    62A      2.224170  
      63A      2.291897    64A      2.320164    65A      2.328810  
      66A      2.412831    67A      2.541146    68A      2.635432  
      69A      2.646825    70A      2.663395    71A      2.740432  
      72A      2.752189    73A      2.772204    74A      2.887041  
      75A      3.008409    76A      3.111575    77A      4.579577  
      78A      4.681302    79A      4.799751    80A      4.957047  

    Final Occupation by Irrep:
              A 
    DOCC [    17 ]

  Energy converged.

  @DF-RHF Final Energy:  -157.29255622179375

   => Energetics <=

    Nuclear Repulsion Energy =            131.9189536989641169
    One-Electron Energy =                -471.8048732186467760
    Two-Electron Energy =                 182.5933632978887431
    DFT Exchange-Correlation Energy =       0.0000000000000000
    Empirical Dispersion Energy =           0.0000000000000000
    PCM Polarization Energy =               0.0000000000000000
    EFP Energy =                            0.0000000000000000
    Total Energy =                       -157.2925562217939159


  Saving occupied orbitals to File 180.

*** tstop() called on lski1497 at Thu Feb 16 16:25:42 2017
Module time:
	user time   =       5.66 seconds =       0.09 minutes
	system time =       0.19 seconds =       0.00 minutes
	total time  =          7 seconds =       0.12 minutes
Total time:
	user time   =       5.66 seconds =       0.09 minutes
	system time =       0.19 seconds =       0.00 minutes
	total time  =          7 seconds =       0.12 minutes


Properties will be evaluated at   0.000000,   0.000000,   0.000000 Bohr

Properties computed using the SCF density matrix

  Nuclear Dipole Moment: (a.u.)
     X:     0.0205      Y:     0.0190      Z:    -0.1952

  Electronic Dipole Moment: (a.u.)
     X:    -0.0219      Y:    -0.0213      Z:     0.2105

  Dipole Moment: (a.u.)
     X:    -0.0014      Y:    -0.0023      Z:     0.0152     Total:     0.0155

  Dipole Moment: (Debye)
     X:    -0.0035      Y:    -0.0058      Z:     0.0387     Total:     0.0393


  //>>>>>>>>>>>>>>>>>>>>>>>>>>>>>>>>>>>//
  //               DFMP2               //
  //<<<<<<<<<<<<<<<<<<<<<<<<<<<<<<<<<<<//


*** tstart() called on lski1497
*** at Thu Feb 16 16:25:42 2017


*** tstop() called on lski1497 at Thu Feb 16 16:25:43 2017
Module time:
	user time   =       0.63 seconds =       0.01 minutes
	system time =       0.00 seconds =       0.00 minutes
	total time  =          1 seconds =       0.02 minutes
Total time:
	user time   =       6.31 seconds =       0.11 minutes
	system time =       0.19 seconds =       0.00 minutes
	total time  =          8 seconds =       0.13 minutes
	 --------------------------------------------------------
	                          DF-MP2                         
	      2nd-Order Density-Fitted Moller-Plesset Theory     
	              RMP2 Wavefunction,   1 Threads             
	                                                         
	        Rob Parrish, Justin Turney, Andy Simmonett,      
	           Ed Hohenstein, and C. David Sherrill          
	 --------------------------------------------------------

   => Auxiliary Basis Set <=

  Basis Set: 
    Number of shells: 132
    Number of basis function: 364
    Number of Cartesian functions: 414
    Spherical Harmonics?: true
    Max angular momentum: 3

	 --------------------------------------------------------
	                 NBF =    80, NAUX =   364
	 --------------------------------------------------------
	   CLASS    FOCC     OCC    AOCC    AVIR     VIR    FVIR
	   PAIRS       0      17      17      63      63       0
	 --------------------------------------------------------

DGAS Warning! /src/lib/libfock/apps.cc:80 is not currently checking restricted

         ------------------------------------------------------------
                                     CPHF                           
                                  Rob Parrish                       
         ------------------------------------------------------------

  ==> Geometry <==

    Molecular point group: c1
    Full point group: C1

    Geometry (in Angstrom), charge = 0, multiplicity = 1:

       Center              X                  Y                   Z               Mass       
    ------------   -----------------  -----------------  -----------------  -----------------
           H         -2.324709851376     0.046324854388     0.443872926296     1.007825032070
           H         -2.183709851376     1.674324854388    -0.176127073704     1.007825032070
           H         -1.885709851376     0.310324854388    -1.226127073704     1.007825032070
           C         -1.786709851376     0.681324854388    -0.228127073704    12.000000000000
           H          0.240290148624     1.337324854388    -0.506127073704     1.007825032070
           H         -0.197709851376     1.074324854388     1.164872926296     1.007825032070
           C         -0.297709851376     0.702324854388     0.166872926296    12.000000000000
           H          0.000290148624    -1.265675145612     0.972872926296     1.007825032070
           H         -0.120709851376    -1.223675145612    -0.768127073704     1.007825032070
           C          0.274290148624    -0.725675145612     0.091872926296    12.000000000000
           H          2.205290148624    -1.651675145612    -0.065127073704     1.007825032070
           H          2.204290148624    -0.161675145612     0.846872926296     1.007825032070
           H          2.084290148624    -0.119675145612    -0.895127073704     1.007825032070
           C          1.808290148624    -0.659675145612    -0.013127073704    12.000000000000

  Nuclear repulsion =  131.918953698964117
  Reference energy  = -157.292556221793745

  ==> Basis Set <==

  Basis Set: 6-31G(D)
    Number of shells: 44
    Number of basis function: 80
    Number of Cartesian functions: 80
    Spherical Harmonics?: false
    Max angular momentum: 2

  ==> CGRSolver (by Rob Parrish) <==

   Number of roots    =         1
   Preconditioning    =    JACOBI
   Convergence cutoff =     1E-06
   Maximum iterations =       100

  ==> CPHFRHamiltonian (by Rob Parrish) <== 

  ==> DFJK: Density-Fitted J/K Matrices <==

    J tasked:                  Yes
    K tasked:                  Yes
    wK tasked:                  No
    OpenMP threads:              1
    Integrals threads:           1
    Memory (MB):               715
    Algorithm:                Core
    Integral Cache:           NONE
    Schwarz Cutoff:          1E-12
    Fitting Condition:       1E-12

   => Auxiliary Basis Set <=

  Basis Set: 
    Number of shells: 186
    Number of basis function: 574
    Number of Cartesian functions: 574
    Spherical Harmonics?: false
    Max angular momentum: 3

  ==> CPHF Iterations <==

  => Iterations <=

             Iter  Converged  Remaining    Residual
  CGR           1          0          1   7.265E-02
  CGR           2          0          1   8.727E-03
  CGR           3          0          1   2.769E-03
  CGR           4          0          1   3.638E-04
  CGR           5          0          1   5.980E-05
  CGR           6          0          1   1.302E-05
  CGR           7          0          1   2.577E-06
  CGR           8          1          0   5.394E-07

    CGRSolver converged.

  ==> DFCorrGrad: Density-Fitted Correlated Gradients <==

    OpenMP threads:              1
    Integrals threads:           1
    Memory (MB):               715
    Schwarz Cutoff:          0E+00
    Fitting Condition:       1E-12

   => Auxiliary Basis Set <=

  Basis Set: 
    Number of shells: 186
    Number of basis function: 510
    Number of Cartesian functions: 574
    Spherical Harmonics?: true
    Max angular momentum: 3

	-----------------------------------------------------------
	 ==================> DF-MP2 Energies <==================== 
	-----------------------------------------------------------
	 Reference Energy          =    -157.2925562217937454 [Eh]
	 Singles Energy            =      -0.0000000000000000 [Eh]
	 Same-Spin Energy          =      -0.1243697764673533 [Eh]
	 Opposite-Spin Energy      =      -0.4201811811208419 [Eh]
	 Correlation Energy        =      -0.5445509575881953 [Eh]
	 Total Energy              =    -157.8371071793819453 [Eh]
	-----------------------------------------------------------
	 ================> DF-SCS-MP2 Energies <================== 
	-----------------------------------------------------------
	 SCS Same-Spin Scale       =       0.3333333333333333 [-]
	 SCS Opposite-Spin Scale   =       1.2000000000000000 [-]
	 SCS Same-Spin Energy      =      -0.0414565921557844 [Eh]
	 SCS Opposite-Spin Energy  =      -0.5042174173450102 [Eh]
	 SCS Correlation Energy    =      -0.5456740095007947 [Eh]
	 SCS Total Energy          =    -157.8382302312945455 [Eh]
	-----------------------------------------------------------


  -Total Gradient:
     Atom            X                  Y                   Z
    ------   -----------------  -----------------  -----------------
       1        0.010885429501     0.009501600443    -0.008918210778
       2        0.010573972478    -0.013614093393     0.000292890771
       3        0.004055140371     0.005435236089     0.015405958735
       4       -0.026770260861    -0.007760179834    -0.009946013247
       5       -0.009157357382    -0.011643263763     0.009074309788
       6       -0.004525339098    -0.008871881106    -0.015152054388
       7        0.024341865961     0.031777979068     0.010608435445
       8        0.007289070475     0.011601786391    -0.012749411705
       9        0.007426916007     0.009945421081     0.013110764429
      10       -0.025006302226    -0.033286102215    -0.000152282124
      11       -0.010962108135     0.014196568485     0.000760536672
      12       -0.008819303101    -0.007543267276    -0.012327214747
      13       -0.006422096421    -0.007590178460     0.012614786195
      14        0.027090372432     0.007850374489    -0.002622495045


			-----------------------------------------
			 OPTKING 2.0: for geometry optimizations 
			  - R.A. King,  Bethel University        
			-----------------------------------------

	Previous internal coordinate definitions found.
	---Fragment 1 Geometry and Gradient---
	 H          -4.3930649575        0.0875412879        0.8387982685
	 H          -4.1266135728        3.1640154323       -0.3328319339
	 H          -3.5634751852        0.5864289870       -2.3170443734
	 C          -3.3763922980        1.2875173823       -0.4310976928
	 H           0.4540825733        2.5271777255       -0.9564415577
	 H          -0.3736174729        2.0301797525        2.2012908103
	 C          -0.5625900862        1.3272016311        0.3153441297
	 H           0.0005483014       -2.3917793984        1.8384633928
	 H          -0.2281085606       -2.3124109008       -1.4515498046
	 C           0.5183332618       -1.3713272866        0.1736146697
	 H           4.1673944244       -3.1212136857       -0.1230723331
	 H           4.1655046983       -0.3055217477        1.6003579001
	 H           3.9387375624       -0.2261532501       -1.6915450234
	 C           3.4171731497       -1.2466053619       -0.0248065742
	             0.0108854295        0.0095016004       -0.0089182108
	             0.0105739725       -0.0136140934        0.0002928908
	             0.0040551404        0.0054352361        0.0154059587
	            -0.0267702609       -0.0077601798       -0.0099460132
	            -0.0091573574       -0.0116432638        0.0090743098
	            -0.0045253391       -0.0088718811       -0.0151520544
	             0.0243418660        0.0317779791        0.0106084354
	             0.0072890705        0.0116017864       -0.0127494117
	             0.0074269160        0.0099454211        0.0131107644
	            -0.0250063022       -0.0332861022       -0.0001522821
	            -0.0109621081        0.0141965685        0.0007605367
	            -0.0088193031       -0.0075432673       -0.0123272147
	            -0.0064220964       -0.0075901785        0.0126147862
	             0.0270903724        0.0078503745       -0.0026224950

	Previous optimization step data not found.  Starting new optimization.

	---Fragment 1 Intrafragment Coordinates---
	 - Coordinate -           - BOHR/RAD -       - ANG/DEG -
	 R(1,4)           =         2.021436	       1.069698
	 R(2,4)           =         2.023298	       1.070683
	 R(3,4)           =         2.020723	       1.069320
	 R(4,7)           =         2.911397	       1.540645
	 R(5,7)           =         2.022623	       1.070326
	 R(6,7)           =         2.021555	       1.069761
	 R(7,10)          =         2.910419	       1.540128
	 R(8,10)          =         2.020184	       1.069036
	 R(9,10)          =         2.020884	       1.069406
	 R(10,14)         =         2.908298	       1.539005
	 R(11,14)         =         2.021545	       1.069756
	 R(12,14)         =         2.021583	       1.069776
	 R(13,14)         =         2.022713	       1.070374
	 B(1,4,2)         =         1.910870	     109.484805
	 B(1,4,3)         =         1.911121	     109.499161
	 B(1,4,7)         =         1.910399	     109.457783
	 B(2,4,3)         =         1.910042	     109.437340
	 B(2,4,7)         =         1.910564	     109.467262
	 B(3,4,7)         =         1.910803	     109.480971
	 B(4,7,5)         =         1.909937	     109.431343
	 B(4,7,6)         =         1.911630	     109.528316
	 B(4,7,10)        =         1.911154	     109.501062
	 B(5,7,6)         =         1.910605	     109.469614
	 B(5,7,10)        =         1.910047	     109.437654
	 B(6,7,10)        =         1.910425	     109.459295
	 B(7,10,8)        =         1.910311	     109.452765
	 B(7,10,9)        =         1.911082	     109.496934
	 B(7,10,14)       =         1.911075	     109.496525
	 B(8,10,9)        =         1.910107	     109.441049
	 B(8,10,14)       =         1.910662	     109.472843
	 B(9,10,14)       =         1.910563	     109.467193
	 B(10,14,11)      =         1.910762	     109.478586
	 B(10,14,12)      =         1.911429	     109.516821
	 B(10,14,13)      =         1.912263	     109.564597
	 B(11,14,12)      =         1.910687	     109.474292
	 B(11,14,13)      =         1.909304	     109.395055
	 B(12,14,13)      =         1.909353	     109.397859
	 D(1,4,7,5)       =         3.140997	     179.965873
	 D(1,4,7,6)       =        -1.047644	     -60.025575
	 D(1,4,7,10)      =         1.047427	      60.013132
	 D(2,4,7,5)       =        -1.047689	     -60.028143
	 D(2,4,7,6)       =         1.046856	      59.980409
	 D(2,4,7,10)      =        -3.141259	    -179.980883
	 D(3,4,7,5)       =         1.046044	      59.933911
	 D(3,4,7,6)       =         3.140588	     179.942463
	 D(3,4,7,10)      =        -1.047526	     -60.018830
	 D(4,7,10,8)      =        -1.396104	     -79.990844
	 D(4,7,10,9)      =         0.697724	      39.976642
	 D(4,7,10,14)     =         2.792579	     160.002980
	 D(5,7,10,8)      =         2.793579	     160.060280
	 D(5,7,10,9)      =        -1.395779	     -79.972233
	 D(5,7,10,14)     =         0.699076	      40.054104
	 D(6,7,10,8)      =         0.699704	      40.090082
	 D(6,7,10,9)      =         2.793532	     160.057568
	 D(6,7,10,14)     =        -1.394799	     -79.916094
	 D(7,10,14,11)    =         3.141517	     179.995688
	 D(7,10,14,12)    =         1.046490	      59.959458
	 D(7,10,14,13)    =        -1.047824	     -60.035895
	 D(8,10,14,11)    =         1.047229	      60.001801
	 D(8,10,14,12)    =        -1.047798	     -60.034428
	 D(8,10,14,13)    =         3.141073	     179.970219
	 D(9,10,14,11)    =        -1.046496	     -59.959777
	 D(9,10,14,12)    =        -3.141523	    -179.996007
	 D(9,10,14,13)    =         1.047348	      60.008640

	Current energy   :      -157.8371071794

	Generating empirical Hessian (Schlegel '84) for each fragment.
	Adding user-defined constraint: Fragment 1; Coordinate 49:
		Value =     2.792579; Fixed value    =     2.792530
		Force =    -0.000024; Force constant =     0.500000
	Removing off-diagonal coupling between coordinate 49 and others.
	Taking RFO optimization step.
	Going to follow RFO solution 1.
	Using RFO vector 1.

	Determining step-restricting scale parameter for RS-RFO.
	Maximum step size allowed    0.10000

	 Iter      |step|        alpha        rfo_root  
	------------------------------------------------
	    0     0.23066       1.00000           1
	    1     0.17546       5.32860           1
	    2     0.13463      16.67802           1
	    3     0.11088      32.88859           1
	    4     0.10158      43.39842           1
	    5     0.10004      45.48455           1
	    6     0.10000      45.54263           1
	------------------------------------------------
	Norm of target step-size    0.10000
	Projected energy change by RFO approximation:        -0.0057907541

	Back-transformation to cartesian coordinates...
	Successfully converged to displaced geometry.

	--- Internal Coordinate Step in ANG or DEG, aJ/ANG or AJ/DEG ---
	 ---------------------------------------------------------------------------
	   Coordinate                Previous        Force       Change         New 
	   ----------                --------       ------       ------       ------
	    1 R(1,4)          =      1.069698     0.137733     0.013936     1.083634
	    2 R(2,4)          =      1.070683     0.136209     0.013809     1.084492
	    3 R(3,4)          =      1.069320     0.137090     0.013861     1.083181
	    4 R(4,7)          =      1.540645    -0.017406    -0.002045     1.538600
	    5 R(5,7)          =      1.070326     0.141841     0.014370     1.084696
	    6 R(6,7)          =      1.069761     0.145362     0.014710     1.084471
	    7 R(7,10)         =      1.540128    -0.008638    -0.001014     1.539114
	    8 R(8,10)         =      1.069036     0.150237     0.015181     1.084217
	    9 R(9,10)         =      1.069406     0.147622     0.014928     1.084334
	   10 R(10,14)        =      1.539005    -0.010609    -0.001243     1.537762
	   11 R(11,14)        =      1.069756     0.142281     0.014398     1.084154
	   12 R(12,14)        =      1.069776     0.137473     0.013912     1.083688
	   13 R(13,14)        =      1.070374     0.130831     0.013256     1.083629
	   14 B(1,4,2)        =    109.484805    -0.000306    -0.542050   108.942755
	   15 B(1,4,3)        =    109.499161    -0.000212    -0.398874   109.100288
	   16 B(1,4,7)        =    109.457783     0.000197     0.346200   109.803983
	   17 B(2,4,3)        =    109.437340    -0.000281    -0.499044   108.938297
	   18 B(2,4,7)        =    109.467262     0.000458     0.827568   110.294830
	   19 B(3,4,7)        =    109.480971     0.000144     0.253896   109.734867
	   20 B(4,7,5)        =    109.431343    -0.000170    -0.248865   109.182478
	   21 B(4,7,6)        =    109.528316    -0.000188    -0.238689   109.289627
	   22 B(4,7,10)       =    109.501062     0.000769     1.258474   110.759537
	   23 B(5,7,6)        =    109.469614    -0.000010    -0.189884   109.279729
	   24 B(5,7,10)       =    109.437654    -0.000194    -0.280256   109.157398
	   25 B(6,7,10)       =    109.459295    -0.000206    -0.308140   109.151154
	   26 B(7,10,8)       =    109.452765    -0.000208    -0.312893   109.139872
	   27 B(7,10,9)       =    109.496934    -0.000202    -0.296100   109.200833
	   28 B(7,10,14)      =    109.496525     0.000775     1.267963   110.764489
	   29 B(8,10,9)       =    109.441049    -0.000008    -0.185038   109.256011
	   30 B(8,10,14)      =    109.472843    -0.000185    -0.229860   109.242983
	   31 B(9,10,14)      =    109.467193    -0.000172    -0.251901   109.215292
	   32 B(10,14,11)     =    109.478586     0.000461     0.833481   110.312067
	   33 B(10,14,12)     =    109.516821     0.000187     0.329759   109.846580
	   34 B(10,14,13)     =    109.564597     0.000132     0.231823   109.796420
	   35 B(11,14,12)     =    109.474292    -0.000304    -0.539612   108.934679
	   36 B(11,14,13)     =    109.395055    -0.000277    -0.491823   108.903232
	   37 B(12,14,13)     =    109.397859    -0.000201    -0.378204   109.019655
	   38 D(1,4,7,5)      =    179.965873     0.000019     0.179567   180.145439
	   39 D(1,4,7,6)      =    -60.025575    -0.000034    -0.347392   -60.372967
	   40 D(1,4,7,10)     =     60.013132    -0.000010    -0.096346    59.916786
	   41 D(2,4,7,5)      =    -60.028143     0.000025     0.242061   -59.786082
	   42 D(2,4,7,6)      =     59.980409    -0.000028    -0.284897    59.695512
	   43 D(2,4,7,10)     =   -179.980883    -0.000004    -0.033852  -180.014735
	   44 D(3,4,7,5)      =     59.933911     0.000031     0.299074    60.232984
	   45 D(3,4,7,6)      =    179.942463    -0.000022    -0.227885   179.714578
	   46 D(3,4,7,10)     =    -60.018830     0.000002     0.023161   -59.995669
	   47 D(4,7,10,8)     =    -79.990844     0.000043     0.424020   -79.566824
	   48 D(4,7,10,9)     =     39.976642    -0.000016    -0.169040    39.807602
	   49 D(4,7,10,14)    =    160.002980     0.000016     0.119845   160.122825
	   50 D(5,7,10,8)     =    160.060280     0.000010     0.129283   160.189563
	   51 D(5,7,10,9)     =    -79.972233    -0.000049    -0.463777   -80.436010
	   52 D(5,7,10,14)    =     40.054104    -0.000017    -0.174891    39.879213
	   53 D(6,7,10,8)     =     40.090082     0.000069     0.715360    40.805442
	   54 D(6,7,10,9)     =    160.057568     0.000010     0.122300   160.179869
	   55 D(6,7,10,14)    =    -79.916094     0.000042     0.411186   -79.504908
	   56 D(7,10,14,11)   =    179.995688    -0.000003    -0.028869   179.966819
	   57 D(7,10,14,12)   =     59.959458    -0.000009    -0.089099    59.870359
	   58 D(7,10,14,13)   =    -60.035895     0.000002     0.028298   -60.007597
	   59 D(8,10,14,11)   =     60.001801    -0.000028    -0.283864    59.717937
	   60 D(8,10,14,12)   =    -60.034428    -0.000033    -0.344095   -60.378523
	   61 D(8,10,14,13)   =    179.970219    -0.000022    -0.226698   179.743521
	   62 D(9,10,14,11)   =    -59.959777     0.000025     0.233203   -59.726575
	   63 D(9,10,14,12)   =   -179.996007     0.000019     0.172973  -179.823034
	   64 D(9,10,14,13)   =     60.008640     0.000030     0.290370    60.299010
	 ---------------------------------------------------------------------------
	 Forces used to impose fixed constraints are not included.
	  Forces zeroed: 49 

  ==> Convergence Check <==

  Measures of convergence in internal coordinates in au.
  Criteria marked as inactive (o), active & met (*), and active & unmet ( ).
  --------------------------------------------------------------------------------------------- ~
   Step     Total Energy     Delta E     MAX Force     RMS Force      MAX Disp      RMS Disp    ~
  --------------------------------------------------------------------------------------------- ~
    Convergence Criteria    1.00e-06 *    3.00e-04 *             o    1.20e-03 *             o  ~
  --------------------------------------------------------------------------------------------- ~
      1    -157.83710718   -1.58e+02      1.82e-02      7.31e-03 o    2.87e-02      1.25e-02 o  ~
  ---------------------------------------------------------------------------------------------

	Writing optimization data to binary file.
	Structure for next step:
	Cartesian Geometry (in Angstrom)
	    H    -2.3489453353   0.0311787520   0.4481561488
	    H    -2.2161253094   1.6771487178  -0.1735484059
	    H    -1.9080765616   0.3052885211  -1.2389156744
	    C    -1.8002797771   0.6769921708  -0.2272352086
	    H     0.2265486800   1.3468540825  -0.5167912763
	    H    -0.2122565222   1.0738696580   1.1750621087
	    C    -0.3122327622   0.6960562591   0.1634601618
	    H     0.0125194194  -1.2686210579   0.9839776185
	    H    -0.1056717312  -1.2300252305  -0.7799056967
	    C     0.2889265036  -0.7189565634   0.0912322371
	    H     2.2376284913  -1.6555189954  -0.0603365406
	    H     2.2276494208  -0.1488969752   0.8573969527
	    H     2.1083730797  -0.1113834494  -0.9028300620
	    C     1.8220044851  -0.6554379281  -0.0105013947
			--------------------------
			 OPTKING Finished Execution 
			--------------------------

    Structure for next step:
    Molecular point group: c1
    Full point group: C1

    Geometry (in Angstrom), charge = 0, multiplicity = 1:

    H           -2.348994138147     0.031111653696     0.448257577649
    H           -2.216174112274     1.677081619480    -0.173446976958
    H           -1.908125364458     0.305221422712    -1.238814245541
    C           -1.800328580007     0.676925072483    -0.227133779704
    H            0.226499877092     1.346786984132    -0.516689847454
    H           -0.212305325078     1.073802559666     1.175163537574
    C           -0.312281565088     0.695989160722     0.163561590666
    H            0.012470616495    -1.268688156257     0.984079047433
    H           -0.105720534032    -1.230092328862    -0.779804267850
    C            0.288877700703    -0.719023661747     0.091333665989
    H            2.237579688488    -1.655586093712    -0.060235111744
    H            2.227600617913    -0.148964073595     0.857498381626
    H            2.108324276859    -0.111450547735    -0.902728633154
    C            1.821955682214    -0.655505026493    -0.010399965845

gradient() will perform analytic gradient computation.
    SCF Algorithm Type (re)set to DF.

*** tstart() called on lski1497
*** at Thu Feb 16 16:26:05 2017


         ---------------------------------------------------------
                                   SCF
            by Justin Turney, Rob Parrish, and Andy Simmonett
                              RHF Reference
                        1 Threads,   1000 MiB Core
         ---------------------------------------------------------

  ==> Geometry <==

    Molecular point group: c1
    Full point group: C1

    Geometry (in Angstrom), charge = 0, multiplicity = 1:

       Center              X                  Y                   Z               Mass       
    ------------   -----------------  -----------------  -----------------  -----------------
           H         -2.348994138147     0.031111653696     0.448257577649     1.007825032070
           H         -2.216174112274     1.677081619480    -0.173446976958     1.007825032070
           H         -1.908125364458     0.305221422712    -1.238814245541     1.007825032070
           C         -1.800328580007     0.676925072483    -0.227133779704    12.000000000000
           H          0.226499877092     1.346786984132    -0.516689847454     1.007825032070
           H         -0.212305325078     1.073802559666     1.175163537574     1.007825032070
           C         -0.312281565088     0.695989160722     0.163561590666    12.000000000000
           H          0.012470616495    -1.268688156257     0.984079047433     1.007825032070
           H         -0.105720534032    -1.230092328862    -0.779804267850     1.007825032070
           C          0.288877700703    -0.719023661747     0.091333665989    12.000000000000
           H          2.237579688488    -1.655586093712    -0.060235111744     1.007825032070
           H          2.227600617913    -0.148964073595     0.857498381626     1.007825032070
           H          2.108324276859    -0.111450547735    -0.902728633154     1.007825032070
           C          1.821955682214    -0.655505026493    -0.010399965845    12.000000000000

  Running in c1 symmetry.

  Rotational constants: A =      0.74292  B =      0.12355  C =      0.11654 [cm^-1]
  Rotational constants: A =  22272.11394  B =   3704.06364  C =   3493.89966 [MHz]
  Nuclear repulsion =  131.113044705831754

  Charge       = 0
  Multiplicity = 1
  Electrons    = 34
  Nalpha       = 17
  Nbeta        = 17

  ==> Algorithm <==

  SCF Algorithm Type is DF.
  DIIS enabled.
  MOM disabled.
  Fractional occupation disabled.
  Guess Type is READ.
  Energy threshold   = 1.00e-10
  Density threshold  = 1.00e-10
  Integral threshold = 0.00e+00

  ==> Primary Basis <==

  Basis Set: 6-31G(D)
    Number of shells: 44
    Number of basis function: 80
    Number of Cartesian functions: 80
    Spherical Harmonics?: false
    Max angular momentum: 2

  ==> Pre-Iterations <==

   -------------------------------------------------------
    Irrep   Nso     Nmo     Nalpha   Nbeta   Ndocc  Nsocc
   -------------------------------------------------------
     A         80      80       0       0       0       0
   -------------------------------------------------------
    Total      80      80      17      17      17       0
   -------------------------------------------------------

  ==> Integral Setup <==

  ==> DFJK: Density-Fitted J/K Matrices <==

    J tasked:                  Yes
    K tasked:                  Yes
    wK tasked:                  No
    OpenMP threads:              1
    Integrals threads:           1
    Memory (MB):               715
    Algorithm:                Core
    Integral Cache:           NONE
    Schwarz Cutoff:          1E-12
    Fitting Condition:       1E-12

   => Auxiliary Basis Set <=

  Basis Set: 
    Number of shells: 186
    Number of basis function: 574
    Number of Cartesian functions: 574
    Spherical Harmonics?: false
    Max angular momentum: 3

  Minimum eigenvalue in the overlap matrix is 4.5896681309E-03.
  Using Symmetric Orthogonalization.
  SCF Guess was Projection but file not found.
  Switching over to SAD guess.

  SCF Guess: Superposition of Atomic Densities via on-the-fly atomic UHF.

  ==> Iterations <==

                           Total Energy        Delta E     RMS |[F,P]|

   @DF-RHF iter   0:  -158.87218706778796   -1.58872e+02   4.65520e-02 
   @DF-RHF iter   1:  -157.20800232794349    1.66418e+00   3.87972e-03 
   @DF-RHF iter   2:  -157.28683555959785   -7.88332e-02   1.10838e-03 DIIS
   @DF-RHF iter   3:  -157.29506326725809   -8.22771e-03   2.54678e-04 DIIS
   @DF-RHF iter   4:  -157.29542094871110   -3.57681e-04   7.51453e-05 DIIS
   @DF-RHF iter   5:  -157.29545664254576   -3.56938e-05   1.23453e-05 DIIS
   @DF-RHF iter   6:  -157.29545776212350   -1.11958e-06   2.55514e-06 DIIS
   @DF-RHF iter   7:  -157.29545779262409   -3.05006e-08   7.22038e-07 DIIS
   @DF-RHF iter   8:  -157.29545779526191   -2.63782e-09   1.01895e-07 DIIS
   @DF-RHF iter   9:  -157.29545779535303   -9.11200e-11   2.33737e-08 DIIS
   @DF-RHF iter  10:  -157.29545779535752   -4.49063e-12   4.41244e-09 DIIS
   @DF-RHF iter  11:  -157.29545779535781   -2.84217e-13   9.90880e-10 DIIS
   @DF-RHF iter  12:  -157.29545779535781    0.00000e+00   2.91708e-10 DIIS
   @DF-RHF iter  13:  -157.29545779535786   -5.68434e-14   8.01831e-11 DIIS

  ==> Post-Iterations <==

    Orbital Energies (a.u.)
    -----------------------

    Doubly Occupied:                                                      

       1A    -11.212560     2A    -11.211975     3A    -11.206190  
       4A    -11.206134     5A     -1.068656     6A     -0.978699  
       7A     -0.859175     8A     -0.788833     9A     -0.642758  
      10A     -0.583630    11A     -0.580004    12A     -0.563787  
      13A     -0.511966    14A     -0.501594    15A     -0.468724  
      16A     -0.465240    17A     -0.446926  

    Virtual:                                                              

      18A      0.232127    19A      0.263517    20A      0.285964  
      21A      0.296286    22A      0.323125    23A      0.335204  
      24A      0.335868    25A      0.344435    26A      0.351883  
      27A      0.355128    28A      0.418353    29A      0.430512  
      30A      0.436821    31A      0.701708    32A      0.710070  
      33A      0.748927    34A      0.755993    35A      0.769524  
      36A      0.848611    37A      0.858114    38A      0.929695  
      39A      0.951456    40A      1.017048    41A      1.070992  
      42A      1.095045    43A      1.146482    44A      1.175786  
      45A      1.191290    46A      1.195236    47A      1.205077  
      48A      1.211252    49A      1.237305    50A      1.238993  
      51A      1.246297    52A      1.278157    53A      1.288601  
      54A      1.581793    55A      1.665151    56A      1.722775  
      57A      1.734999    58A      1.928750    59A      1.930017  
      60A      2.143413    61A      2.201939    62A      2.211272  
      63A      2.286021    64A      2.310008    65A      2.325204  
      66A      2.408403    67A      2.515718    68A      2.615138  
      69A      2.628101    70A      2.647008    71A      2.724028  
      72A      2.733999    73A      2.762004    74A      2.885250  
      75A      3.012405    76A      3.104745    77A      4.567699  
      78A      4.672376    79A      4.794087    80A      4.950348  

    Final Occupation by Irrep:
              A 
    DOCC [    17 ]

  Energy converged.

  @DF-RHF Final Energy:  -157.29545779535786

   => Energetics <=

    Nuclear Repulsion Energy =            131.1130447058317543
    One-Electron Energy =                -470.2233024707335289
    Two-Electron Energy =                 181.8147999695440262
    DFT Exchange-Correlation Energy =       0.0000000000000000
    Empirical Dispersion Energy =           0.0000000000000000
    PCM Polarization Energy =               0.0000000000000000
    EFP Energy =                            0.0000000000000000
    Total Energy =                       -157.2954577953577768


  Saving occupied orbitals to File 180.

*** tstop() called on lski1497 at Thu Feb 16 16:26:12 2017
Module time:
	user time   =       5.59 seconds =       0.09 minutes
	system time =       0.16 seconds =       0.00 minutes
	total time  =          7 seconds =       0.12 minutes
Total time:
	user time   =      31.47 seconds =       0.52 minutes
	system time =       0.90 seconds =       0.02 minutes
	total time  =         37 seconds =       0.62 minutes


Properties will be evaluated at   0.000000,   0.000000,   0.000000 Bohr

Properties computed using the SCF density matrix

  Nuclear Dipole Moment: (a.u.)
     X:     0.0198      Y:     0.0180      Z:    -0.1938

  Electronic Dipole Moment: (a.u.)
     X:    -0.0211      Y:    -0.0196      Z:     0.2071

  Dipole Moment: (a.u.)
     X:    -0.0012      Y:    -0.0015      Z:     0.0133     Total:     0.0135

  Dipole Moment: (Debye)
     X:    -0.0031      Y:    -0.0039      Z:     0.0339     Total:     0.0343


  //>>>>>>>>>>>>>>>>>>>>>>>>>>>>>>>>>>>//
  //               DFMP2               //
  //<<<<<<<<<<<<<<<<<<<<<<<<<<<<<<<<<<<//


*** tstart() called on lski1497
*** at Thu Feb 16 16:26:12 2017


*** tstop() called on lski1497 at Thu Feb 16 16:26:13 2017
Module time:
	user time   =       0.64 seconds =       0.01 minutes
	system time =       0.00 seconds =       0.00 minutes
	total time  =          1 seconds =       0.02 minutes
Total time:
	user time   =      32.13 seconds =       0.54 minutes
	system time =       0.90 seconds =       0.02 minutes
	total time  =         38 seconds =       0.63 minutes
	 --------------------------------------------------------
	                          DF-MP2                         
	      2nd-Order Density-Fitted Moller-Plesset Theory     
	              RMP2 Wavefunction,   1 Threads             
	                                                         
	        Rob Parrish, Justin Turney, Andy Simmonett,      
	           Ed Hohenstein, and C. David Sherrill          
	 --------------------------------------------------------

   => Auxiliary Basis Set <=

  Basis Set: 
    Number of shells: 132
    Number of basis function: 364
    Number of Cartesian functions: 414
    Spherical Harmonics?: true
    Max angular momentum: 3

	 --------------------------------------------------------
	                 NBF =    80, NAUX =   364
	 --------------------------------------------------------
	   CLASS    FOCC     OCC    AOCC    AVIR     VIR    FVIR
	   PAIRS       0      17      17      63      63       0
	 --------------------------------------------------------

DGAS Warning! /src/lib/libfock/apps.cc:80 is not currently checking restricted

         ------------------------------------------------------------
                                     CPHF                           
                                  Rob Parrish                       
         ------------------------------------------------------------

  ==> Geometry <==

    Molecular point group: c1
    Full point group: C1

    Geometry (in Angstrom), charge = 0, multiplicity = 1:

       Center              X                  Y                   Z               Mass       
    ------------   -----------------  -----------------  -----------------  -----------------
           H         -2.348994138147     0.031111653696     0.448257577649     1.007825032070
           H         -2.216174112274     1.677081619480    -0.173446976958     1.007825032070
           H         -1.908125364458     0.305221422712    -1.238814245541     1.007825032070
           C         -1.800328580007     0.676925072483    -0.227133779704    12.000000000000
           H          0.226499877092     1.346786984132    -0.516689847454     1.007825032070
           H         -0.212305325078     1.073802559666     1.175163537574     1.007825032070
           C         -0.312281565088     0.695989160722     0.163561590666    12.000000000000
           H          0.012470616495    -1.268688156257     0.984079047433     1.007825032070
           H         -0.105720534032    -1.230092328862    -0.779804267850     1.007825032070
           C          0.288877700703    -0.719023661747     0.091333665989    12.000000000000
           H          2.237579688488    -1.655586093712    -0.060235111744     1.007825032070
           H          2.227600617913    -0.148964073595     0.857498381626     1.007825032070
           H          2.108324276859    -0.111450547735    -0.902728633154     1.007825032070
           C          1.821955682214    -0.655505026493    -0.010399965845    12.000000000000

  Nuclear repulsion =  131.113044705831726
  Reference energy  = -157.295457795357862

  ==> Basis Set <==

  Basis Set: 6-31G(D)
    Number of shells: 44
    Number of basis function: 80
    Number of Cartesian functions: 80
    Spherical Harmonics?: false
    Max angular momentum: 2

  ==> CGRSolver (by Rob Parrish) <==

   Number of roots    =         1
   Preconditioning    =    JACOBI
   Convergence cutoff =     1E-06
   Maximum iterations =       100

  ==> CPHFRHamiltonian (by Rob Parrish) <== 

  ==> DFJK: Density-Fitted J/K Matrices <==

    J tasked:                  Yes
    K tasked:                  Yes
    wK tasked:                  No
    OpenMP threads:              1
    Integrals threads:           1
    Memory (MB):               715
    Algorithm:                Core
    Integral Cache:           NONE
    Schwarz Cutoff:          1E-12
    Fitting Condition:       1E-12

   => Auxiliary Basis Set <=

  Basis Set: 
    Number of shells: 186
    Number of basis function: 574
    Number of Cartesian functions: 574
    Spherical Harmonics?: false
    Max angular momentum: 3

  ==> CPHF Iterations <==

  => Iterations <=

             Iter  Converged  Remaining    Residual
  CGR           1          0          1   7.330E-02
  CGR           2          0          1   8.912E-03
  CGR           3          0          1   2.824E-03
  CGR           4          0          1   3.658E-04
  CGR           5          0          1   6.159E-05
  CGR           6          0          1   1.334E-05
  CGR           7          0          1   2.523E-06
  CGR           8          1          0   5.281E-07

    CGRSolver converged.

  ==> DFCorrGrad: Density-Fitted Correlated Gradients <==

    OpenMP threads:              1
    Integrals threads:           1
    Memory (MB):               715
    Schwarz Cutoff:          0E+00
    Fitting Condition:       1E-12

   => Auxiliary Basis Set <=

  Basis Set: 
    Number of shells: 186
    Number of basis function: 510
    Number of Cartesian functions: 574
    Spherical Harmonics?: true
    Max angular momentum: 3

	-----------------------------------------------------------
	 ==================> DF-MP2 Energies <==================== 
	-----------------------------------------------------------
	 Reference Energy          =    -157.2954577953578621 [Eh]
	 Singles Energy            =      -0.0000000000000000 [Eh]
	 Same-Spin Energy          =      -0.1243104173452942 [Eh]
	 Opposite-Spin Energy      =      -0.4214799349874578 [Eh]
	 Correlation Energy        =      -0.5457903523327521 [Eh]
	 Total Energy              =    -157.8412481476906066 [Eh]
	-----------------------------------------------------------
	 ================> DF-SCS-MP2 Energies <================== 
	-----------------------------------------------------------
	 SCS Same-Spin Scale       =       0.3333333333333333 [-]
	 SCS Opposite-Spin Scale   =       1.2000000000000000 [-]
	 SCS Same-Spin Energy      =      -0.0414368057817647 [Eh]
	 SCS Opposite-Spin Energy  =      -0.5057759219849494 [Eh]
	 SCS Correlation Energy    =      -0.5472127277667141 [Eh]
	 SCS Total Energy          =    -157.8426705231245819 [Eh]
	-----------------------------------------------------------


  -Total Gradient:
     Atom            X                  Y                   Z
    ------   -----------------  -----------------  -----------------
       1        0.005305352079     0.003803123919    -0.002773303144
       2        0.005063048048    -0.004682945368     0.000278449711
       3        0.002711850738     0.002186986759     0.006060808810
       4       -0.015717845766    -0.004523524657    -0.006467924252
       5       -0.004050561808    -0.005943773620     0.002371928102
       6       -0.003689661466    -0.005639599935    -0.005106024833
       7        0.014775988113     0.019026414603     0.006484409699
       8        0.004565368898     0.006493677779    -0.003424315924
       9        0.003535882842     0.005406008585     0.004329639114
      10       -0.015183188334    -0.019771068082    -0.000093557766
      11       -0.005186249126     0.004882764770     0.000162942204
      12       -0.004561667851    -0.003108209603    -0.004372802874
      13       -0.003564874960    -0.003021748669     0.004786181666
      14        0.015996558591     0.004891893518    -0.002236430514


			-----------------------------------------
			 OPTKING 2.0: for geometry optimizations 
			  - R.A. King,  Bethel University        
			-----------------------------------------

	Previous internal coordinate definitions found.
	---Fragment 1 Geometry and Gradient---
	 H          -4.4389556089        0.0587925050        0.8470840587
	 H          -4.1879621350        3.1692249633       -0.3277672850
	 H          -3.6058343660        0.5767848988       -2.3410196536
	 C          -3.4021279654        1.2792029995       -0.4292206392
	 H           0.4280227368        2.5450585593       -0.9764023073
	 H          -0.4011989210        2.0291927586        2.2207372474
	 C          -0.5901266344        1.3152289052        0.3090866122
	 H           0.0235660499       -2.3974731634        1.8596398928
	 H          -0.1997828559       -2.3245376197       -1.4736165035
	 C           0.5458997402       -1.3587578038        0.1725956154
	 H           4.2284128117       -3.1286043065       -0.1138278648
	 H           4.2095551013       -0.2815013027        1.6204371007
	 H           3.9841554826       -0.2106110126       -1.7059098890
	 C           3.4429972656       -1.2387249788       -0.0196530872
	             0.0053053521        0.0038031239       -0.0027733031
	             0.0050630480       -0.0046829454        0.0002784497
	             0.0027118507        0.0021869868        0.0060608088
	            -0.0157178458       -0.0045235247       -0.0064679243
	            -0.0040505618       -0.0059437736        0.0023719281
	            -0.0036896615       -0.0056395999       -0.0051060248
	             0.0147759881        0.0190264146        0.0064844097
	             0.0045653689        0.0064936778       -0.0034243159
	             0.0035358828        0.0054060086        0.0043296391
	            -0.0151831883       -0.0197710681       -0.0000935578
	            -0.0051862491        0.0048827648        0.0001629422
	            -0.0045616679       -0.0031082096       -0.0043728029
	            -0.0035648750       -0.0030217487        0.0047861817
	             0.0159965586        0.0048918935       -0.0022364305

	---Fragment 1 Intrafragment Coordinates---
	 - Coordinate -           - BOHR/RAD -       - ANG/DEG -
	 R(1,4)           =         2.047771	       1.083634
	 R(2,4)           =         2.049393	       1.084492
	 R(3,4)           =         2.046915	       1.083181
	 R(4,7)           =         2.907533	       1.538600
	 R(5,7)           =         2.049778	       1.084696
	 R(6,7)           =         2.049353	       1.084471
	 R(7,10)          =         2.908503	       1.539114
	 R(8,10)          =         2.048873	       1.084217
	 R(9,10)          =         2.049094	       1.084334
	 R(10,14)         =         2.905949	       1.537762
	 R(11,14)         =         2.048753	       1.084154
	 R(12,14)         =         2.047873	       1.083688
	 R(13,14)         =         2.047763	       1.083629
	 B(1,4,2)         =         1.901410	     108.942755
	 B(1,4,3)         =         1.904159	     109.100288
	 B(1,4,7)         =         1.916441	     109.803983
	 B(2,4,3)         =         1.901332	     108.938297
	 B(2,4,7)         =         1.925008	     110.294830
	 B(3,4,7)         =         1.915235	     109.734867
	 B(4,7,5)         =         1.905594	     109.182478
	 B(4,7,6)         =         1.907464	     109.289627
	 B(4,7,10)        =         1.933119	     110.759537
	 B(5,7,6)         =         1.907291	     109.279729
	 B(5,7,10)        =         1.905156	     109.157398
	 B(6,7,10)        =         1.905047	     109.151154
	 B(7,10,8)        =         1.904850	     109.139872
	 B(7,10,9)        =         1.905914	     109.200833
	 B(7,10,14)       =         1.933205	     110.764489
	 B(8,10,9)        =         1.906877	     109.256011
	 B(8,10,14)       =         1.906650	     109.242983
	 B(9,10,14)       =         1.906166	     109.215292
	 B(10,14,11)      =         1.925309	     110.312067
	 B(10,14,12)      =         1.917184	     109.846580
	 B(10,14,13)      =         1.916309	     109.796420
	 B(11,14,12)      =         1.901269	     108.934679
	 B(11,14,13)      =         1.900720	     108.903232
	 B(12,14,13)      =         1.902752	     109.019655
	 D(1,4,7,5)       =        -3.139054	    -179.854561
	 D(1,4,7,6)       =        -1.053707	     -60.372967
	 D(1,4,7,10)      =         1.045745	      59.916786
	 D(2,4,7,5)       =        -1.043464	     -59.786082
	 D(2,4,7,6)       =         1.041883	      59.695512
	 D(2,4,7,10)      =         3.141335	     179.985265
	 D(3,4,7,5)       =         1.051264	      60.232984
	 D(3,4,7,6)       =         3.136611	     179.714578
	 D(3,4,7,10)      =        -1.047122	     -59.995669
	 D(4,7,10,8)      =        -1.388703	     -79.566824
	 D(4,7,10,9)      =         0.694774	      39.807602
	 D(4,7,10,14)     =         2.794671	     160.122825
	 D(5,7,10,8)      =         2.795835	     160.189563
	 D(5,7,10,9)      =        -1.403873	     -80.436010
	 D(5,7,10,14)     =         0.696024	      39.879213
	 D(6,7,10,8)      =         0.712189	      40.805442
	 D(6,7,10,9)      =         2.795666	     160.179869
	 D(6,7,10,14)     =        -1.387622	     -79.504908
	 D(7,10,14,11)    =         3.141014	     179.966819
	 D(7,10,14,12)    =         1.044935	      59.870359
	 D(7,10,14,13)    =        -1.047330	     -60.007597
	 D(8,10,14,11)    =         1.042275	      59.717937
	 D(8,10,14,12)    =        -1.053804	     -60.378523
	 D(8,10,14,13)    =         3.137116	     179.743521
	 D(9,10,14,11)    =        -1.042425	     -59.726575
	 D(9,10,14,12)    =        -3.138504	    -179.823034
	 D(9,10,14,13)    =         1.052416	      60.299010

	Current energy   :      -157.8412481477

	Energy change for the previous step:
		Projected    :        -0.0057907541
		Actual       :        -0.0041409683

	Performing BFGS update.
	Previous computed or guess Hessian on step 1.
	Steps to be used in Hessian update: 1
	Adding user-defined constraint: Fragment 1; Coordinate 49:
		Value =     2.794671; Fixed value    =     2.792530
		Force =    -0.001124; Force constant =     0.525000
	Removing off-diagonal coupling between coordinate 49 and others.
	Taking RFO optimization step.
	Going to follow RFO solution 1.
	Using RFO vector 1.

	Determining step-restricting scale parameter for RS-RFO.
	Maximum step size allowed    0.10000

	 Iter      |step|        alpha        rfo_root  
	------------------------------------------------
	    0     0.20429       1.00000           1
	    1     0.15899       4.60693           1
	    2     0.12451      13.21721           1
	    3     0.10652      23.02023           1
	    4     0.10067      27.78500           1
	    5     0.10001      28.39308           1
	------------------------------------------------
	Norm of target step-size    0.10001
	Projected energy change by RFO approximation:        -0.0025343869

	Back-transformation to cartesian coordinates...
	Could not converge backtransformation.
	Using first guess instead.

	--- Internal Coordinate Step in ANG or DEG, aJ/ANG or AJ/DEG ---
	 ---------------------------------------------------------------------------
	   Coordinate                Previous        Force       Change         New 
	   ----------                --------       ------       ------       ------
	    1 R(1,4)          =      1.083634     0.055046     0.008471     1.092105
	    2 R(2,4)          =      1.084492     0.051462     0.007606     1.092098
	    3 R(3,4)          =      1.083181     0.055044     0.008517     1.091698
	    4 R(4,7)          =      1.538600    -0.027414    -0.007307     1.531294
	    5 R(5,7)          =      1.084696     0.058212     0.009031     1.093726
	    6 R(6,7)          =      1.084471     0.058230     0.008937     1.093408
	    7 R(7,10)         =      1.539114    -0.018192    -0.004877     1.534237
	    8 R(8,10)         =      1.084217     0.059941     0.009168     1.093385
	    9 R(9,10)         =      1.084334     0.060250     0.009301     1.093635
	   10 R(10,14)        =      1.537762    -0.024187    -0.006665     1.531098
	   11 R(11,14)        =      1.084154     0.053550     0.007883     1.092036
	   12 R(12,14)        =      1.083688     0.054891     0.008438     1.092125
	   13 R(13,14)        =      1.083629     0.052732     0.008184     1.091814
	   14 B(1,4,2)        =    108.942755    -0.000205    -0.716957   108.225798
	   15 B(1,4,3)        =    109.100288    -0.000180    -0.760244   108.340043
	   16 B(1,4,7)        =    109.803983     0.000170     0.672708   110.476691
	   17 B(2,4,3)        =    108.938297    -0.000186    -0.650233   108.288063
	   18 B(2,4,7)        =    110.294830     0.000257     0.853891   111.148722
	   19 B(3,4,7)        =    109.734867     0.000134     0.538626   110.273493
	   20 B(4,7,5)        =    109.182478    -0.000072    -0.123606   109.058872
	   21 B(4,7,6)        =    109.289627    -0.000064     0.074729   109.364356
	   22 B(4,7,10)       =    110.759537     0.000389     1.223452   111.982989
	   23 B(5,7,6)        =    109.279729    -0.000091    -1.019715   108.260014
	   24 B(5,7,10)       =    109.157398    -0.000080    -0.122871   109.034528
	   25 B(6,7,10)       =    109.151154    -0.000086    -0.085124   109.066030
	   26 B(7,10,8)       =    109.139872    -0.000087    -0.081551   109.058320
	   27 B(7,10,9)       =    109.200833    -0.000084    -0.143931   109.056903
	   28 B(7,10,14)      =    110.764489     0.000390     1.222392   111.986881
	   29 B(8,10,9)       =    109.256011    -0.000089    -1.011336   108.244675
	   30 B(8,10,14)      =    109.242983    -0.000061     0.096090   109.339073
	   31 B(9,10,14)      =    109.215292    -0.000074    -0.134953   109.080339
	   32 B(10,14,11)     =    110.312067     0.000257     0.846973   111.159040
	   33 B(10,14,12)     =    109.846580     0.000162     0.641660   110.488240
	   34 B(10,14,13)     =    109.796420     0.000124     0.502624   110.299044
	   35 B(11,14,12)     =    108.934679    -0.000202    -0.708746   108.225934
	   36 B(11,14,13)     =    108.903232    -0.000182    -0.629530   108.273702
	   37 B(12,14,13)     =    109.019655    -0.000170    -0.714978   108.304677
	   38 D(1,4,7,5)      =   -179.854561     0.000016     0.421940  -179.432621
	   39 D(1,4,7,6)      =    -60.372967    -0.000028    -0.843473   -61.216440
	   40 D(1,4,7,10)     =     59.916786    -0.000006    -0.117806    59.798980
	   41 D(2,4,7,5)      =    -59.786082     0.000020     0.513952   -59.272130
	   42 D(2,4,7,6)      =     59.695512    -0.000024    -0.751461    58.944051
	   43 D(2,4,7,10)     =    179.985265    -0.000002    -0.025794   179.959471
	   44 D(3,4,7,5)      =     60.232984     0.000024     0.598885    60.831869
	   45 D(3,4,7,6)      =    179.714578    -0.000020    -0.666528   179.048050
	   46 D(3,4,7,10)     =    -59.995669     0.000002     0.059139   -59.936530
	   47 D(4,7,10,8)     =    -79.566824     0.000034     1.012784   -78.554041
	   48 D(4,7,10,9)     =     39.807602    -0.000014    -0.341963    39.465640
	   49 D(4,7,10,14)    =    160.122825     0.000008     0.169898   160.292724
	   50 D(5,7,10,8)     =    160.189563     0.000011     0.473884   160.663447
	   51 D(5,7,10,9)     =    -80.436010    -0.000037    -0.880862   -81.316872
	   52 D(5,7,10,14)    =     39.879213    -0.000015    -0.369002    39.510212
	   53 D(6,7,10,8)     =     40.805442     0.000059     1.828291    42.633733
	   54 D(6,7,10,9)     =    160.179869     0.000011     0.473545   160.653414
	   55 D(6,7,10,14)    =    -79.504908     0.000033     0.985406   -78.519503
	   56 D(7,10,14,11)   =    179.966819    -0.000002    -0.013315   179.953504
	   57 D(7,10,14,12)   =     59.870359    -0.000005    -0.091973    59.778387
	   58 D(7,10,14,13)   =    -60.007597     0.000002     0.070710   -59.936887
	   59 D(8,10,14,11)   =     59.717937    -0.000024    -0.755429    58.962508
	   60 D(8,10,14,12)   =    -60.378523    -0.000027    -0.834087   -61.212610
	   61 D(8,10,14,13)   =    179.743521    -0.000020    -0.671405   179.072116
	   62 D(9,10,14,11)   =    -59.726575     0.000019     0.493584   -59.232991
	   63 D(9,10,14,12)   =   -179.823034     0.000016     0.414926  -179.408108
	   64 D(9,10,14,13)   =     60.299010     0.000023     0.577608    60.876618
	 ---------------------------------------------------------------------------
	 Forces used to impose fixed constraints are not included.
	  Forces zeroed: 49 

  ==> Convergence Check <==

  Measures of convergence in internal coordinates in au.
  Criteria marked as inactive (o), active & met (*), and active & unmet ( ).
  ---------------------------------------------------------------------------------------------
   Step     Total Energy     Delta E     MAX Force     RMS Force      MAX Disp      RMS Disp   
  ---------------------------------------------------------------------------------------------
    Convergence Criteria    1.00e-06 *    3.00e-04 *             o    1.20e-03 *             o
  ---------------------------------------------------------------------------------------------
      2    -157.84124815   -4.14e-03      7.31e-03      3.24e-03 o    3.19e-02      1.25e-02 o  ~
  ---------------------------------------------------------------------------------------------

	Writing optimization data to binary file.
	Structure for next step:
	Cartesian Geometry (in Angstrom)
	    H    -2.3686425624   0.0332748030   0.4488638813
	    H    -2.2300210138   1.6855279549  -0.1694166056
	    H    -1.9282367074   0.3113502994  -1.2433272771
	    C    -1.8033817043   0.6816951499  -0.2239839534
	    H     0.2205507684   1.3527561051  -0.5210692223
	    H    -0.2116104416   1.0787160282   1.1757906347
	    C    -0.3209701318   0.6898222751   0.1597475706
	    H     0.0112956526  -1.2736251955   0.9839833871
	    H    -0.0991404570  -1.2350950635  -0.7842294600
	    C     0.2978946446  -0.7123519388   0.0904931012
	    H     2.2510677771  -1.6650802716  -0.0553844031
	    H     2.2469255648  -0.1515581629   0.8614292030
	    H     2.1286808491  -0.1170885238  -0.9045316760
	    C     1.8249666024  -0.6607348750  -0.0077242077
			--------------------------
			 OPTKING Finished Execution 
			--------------------------

    Structure for next step:
    Molecular point group: c1
    Full point group: C1

    Geometry (in Angstrom), charge = 0, multiplicity = 1:

    H           -2.368696724957     0.033266273520     0.448642252150
    H           -2.230075176271     1.685519425454    -0.169638234734
    H           -1.928290869898     0.311341769944    -1.243548906223
    C           -1.803435866833     0.681686620465    -0.224205582544
    H            0.220496605884     1.352747575613    -0.521290851405
    H           -0.211664604129     1.078707498739     1.175569005543
    C           -0.321024294308     0.689813745644     0.159525941463
    H            0.011241490125    -1.273633725021     0.983761757918
    H           -0.099194619563    -1.235103592945    -0.784451089138
    C            0.297840482072    -0.712360468283     0.090271472035
    H            2.251013614544    -1.665088801116    -0.055606032210
    H            2.246871402278    -0.151566692387     0.861207573891
    H            2.128626686608    -0.117097053318    -0.904753305145
    C            1.824912439873    -0.660743404435    -0.007945836799

gradient() will perform analytic gradient computation.
    SCF Algorithm Type (re)set to DF.

*** tstart() called on lski1497
*** at Thu Feb 16 16:26:36 2017


         ---------------------------------------------------------
                                   SCF
            by Justin Turney, Rob Parrish, and Andy Simmonett
                              RHF Reference
                        1 Threads,   1000 MiB Core
         ---------------------------------------------------------

  ==> Geometry <==

    Molecular point group: c1
    Full point group: C1

    Geometry (in Angstrom), charge = 0, multiplicity = 1:

       Center              X                  Y                   Z               Mass       
    ------------   -----------------  -----------------  -----------------  -----------------
           H         -2.368696724957     0.033266273520     0.448642252150     1.007825032070
           H         -2.230075176271     1.685519425454    -0.169638234734     1.007825032070
           H         -1.928290869898     0.311341769944    -1.243548906223     1.007825032070
           C         -1.803435866833     0.681686620465    -0.224205582544    12.000000000000
           H          0.220496605884     1.352747575613    -0.521290851405     1.007825032070
           H         -0.211664604129     1.078707498739     1.175569005543     1.007825032070
           C         -0.321024294308     0.689813745644     0.159525941463    12.000000000000
           H          0.011241490125    -1.273633725021     0.983761757918     1.007825032070
           H         -0.099194619563    -1.235103592945    -0.784451089138     1.007825032070
           C          0.297840482072    -0.712360468283     0.090271472035    12.000000000000
           H          2.251013614544    -1.665088801116    -0.055606032210     1.007825032070
           H          2.246871402278    -0.151566692387     0.861207573891     1.007825032070
           H          2.128626686608    -0.117097053318    -0.904753305145     1.007825032070
           C          1.824912439873    -0.660743404435    -0.007945836799    12.000000000000

  Running in c1 symmetry.

  Rotational constants: A =      0.74931  B =      0.12256  C =      0.11581 [cm^-1]
  Rotational constants: A =  22463.81525  B =   3674.14547  C =   3471.87637 [MHz]
  Nuclear repulsion =  130.794601335743522

  Charge       = 0
  Multiplicity = 1
  Electrons    = 34
  Nalpha       = 17
  Nbeta        = 17

  ==> Algorithm <==

  SCF Algorithm Type is DF.
  DIIS enabled.
  MOM disabled.
  Fractional occupation disabled.
  Guess Type is READ.
  Energy threshold   = 1.00e-10
  Density threshold  = 1.00e-10
  Integral threshold = 0.00e+00

  ==> Primary Basis <==

  Basis Set: 6-31G(D)
    Number of shells: 44
    Number of basis function: 80
    Number of Cartesian functions: 80
    Spherical Harmonics?: false
    Max angular momentum: 2

  ==> Pre-Iterations <==

   -------------------------------------------------------
    Irrep   Nso     Nmo     Nalpha   Nbeta   Ndocc  Nsocc
   -------------------------------------------------------
     A         80      80       0       0       0       0
   -------------------------------------------------------
    Total      80      80      17      17      17       0
   -------------------------------------------------------

  ==> Integral Setup <==

  ==> DFJK: Density-Fitted J/K Matrices <==

    J tasked:                  Yes
    K tasked:                  Yes
    wK tasked:                  No
    OpenMP threads:              1
    Integrals threads:           1
    Memory (MB):               715
    Algorithm:                Core
    Integral Cache:           NONE
    Schwarz Cutoff:          1E-12
    Fitting Condition:       1E-12

   => Auxiliary Basis Set <=

  Basis Set: 
    Number of shells: 186
    Number of basis function: 574
    Number of Cartesian functions: 574
    Spherical Harmonics?: false
    Max angular momentum: 3

  Minimum eigenvalue in the overlap matrix is 4.6028212469E-03.
  Using Symmetric Orthogonalization.
  SCF Guess was Projection but file not found.
  Switching over to SAD guess.

  SCF Guess: Superposition of Atomic Densities via on-the-fly atomic UHF.

  ==> Iterations <==

                           Total Energy        Delta E     RMS |[F,P]|

   @DF-RHF iter   0:  -158.84261301881233   -1.58843e+02   4.62794e-02 
   @DF-RHF iter   1:  -157.20858040884107    1.63403e+00   3.86707e-03 
   @DF-RHF iter   2:  -157.28752250616483   -7.89421e-02   1.11582e-03 DIIS
   @DF-RHF iter   3:  -157.29582882592811   -8.30632e-03   2.66772e-04 DIIS
   @DF-RHF iter   4:  -157.29621556823045   -3.86742e-04   7.50391e-05 DIIS
   @DF-RHF iter   5:  -157.29625291535407   -3.73471e-05   1.18851e-05 DIIS
   @DF-RHF iter   6:  -157.29625400098823   -1.08563e-06   2.08458e-06 DIIS
   @DF-RHF iter   7:  -157.29625402344445   -2.24562e-08   7.03008e-07 DIIS
   @DF-RHF iter   8:  -157.29625402565867   -2.21422e-09   1.01385e-07 DIIS
   @DF-RHF iter   9:  -157.29625402574416   -8.54925e-11   2.29959e-08 DIIS
   @DF-RHF iter  10:  -157.29625402574928   -5.11591e-12   4.41685e-09 DIIS
   @DF-RHF iter  11:  -157.29625402574928    0.00000e+00   8.93522e-10 DIIS
   @DF-RHF iter  12:  -157.29625402574933   -5.68434e-14   2.11537e-10 DIIS
   @DF-RHF iter  13:  -157.29625402574950   -1.70530e-13   5.83086e-11 DIIS

  ==> Post-Iterations <==

    Orbital Energies (a.u.)
    -----------------------

    Doubly Occupied:                                                      

       1A    -11.215163     2A    -11.214580     3A    -11.209478  
       4A    -11.209466     5A     -1.068813     6A     -0.978631  
       7A     -0.858475     8A     -0.785957     9A     -0.639676  
      10A     -0.582305    11A     -0.579040    12A     -0.563277  
      13A     -0.511577    14A     -0.498349    15A     -0.464964  
      16A     -0.463663    17A     -0.452244  

    Virtual:                                                              

      18A      0.231650    19A      0.262141    20A      0.283417  
      21A      0.293761    22A      0.321670    23A      0.332653  
      24A      0.332900    25A      0.341934    26A      0.349677  
      27A      0.351523    28A      0.419677    29A      0.432351  
      30A      0.440551    31A      0.702390    32A      0.706209  
      33A      0.749638    34A      0.758615    35A      0.771055  
      36A      0.851206    37A      0.861789    38A      0.931786  
      39A      0.955794    40A      1.016110    41A      1.069128  
      42A      1.100305    43A      1.137785    44A      1.167985  
      45A      1.182540    46A      1.186005    47A      1.197397  
      48A      1.202897    49A      1.230027    50A      1.231794  
      51A      1.238386    52A      1.268806    53A      1.282781  
      54A      1.579832    55A      1.664803    56A      1.729229  
      57A      1.731257    58A      1.924210    59A      1.926829  
      60A      2.138203    61A      2.202176    62A      2.213637  
      63A      2.279695    64A      2.302162    65A      2.325139  
      66A      2.404002    67A      2.498619    68A      2.604114  
      69A      2.620161    70A      2.639954    71A      2.720640  
      72A      2.729712    73A      2.761594    74A      2.889378  
      75A      3.023554    76A      3.102005    77A      4.563318  
      78A      4.667922    79A      4.791113    80A      4.947618  

    Final Occupation by Irrep:
              A 
    DOCC [    17 ]

  Energy converged.

  @DF-RHF Final Energy:  -157.29625402574950

   => Energetics <=

    Nuclear Repulsion Energy =            130.7946013357435220
    One-Electron Energy =                -469.5903957735599192
    Two-Electron Energy =                 181.4995404120668354
    DFT Exchange-Correlation Energy =       0.0000000000000000
    Empirical Dispersion Energy =           0.0000000000000000
    PCM Polarization Energy =               0.0000000000000000
    EFP Energy =                            0.0000000000000000
    Total Energy =                       -157.2962540257495903


  Saving occupied orbitals to File 180.

*** tstop() called on lski1497 at Thu Feb 16 16:26:42 2017
Module time:
	user time   =       5.50 seconds =       0.09 minutes
	system time =       0.17 seconds =       0.00 minutes
	total time  =          6 seconds =       0.10 minutes
Total time:
	user time   =      57.02 seconds =       0.95 minutes
	system time =       1.60 seconds =       0.03 minutes
	total time  =         67 seconds =       1.12 minutes


Properties will be evaluated at   0.000000,   0.000000,   0.000000 Bohr

Properties computed using the SCF density matrix

  Nuclear Dipole Moment: (a.u.)
     X:     0.0191      Y:     0.0179      Z:    -0.1970

  Electronic Dipole Moment: (a.u.)
     X:    -0.0201      Y:    -0.0190      Z:     0.2081

  Dipole Moment: (a.u.)
     X:    -0.0010      Y:    -0.0011      Z:     0.0112     Total:     0.0113

  Dipole Moment: (Debye)
     X:    -0.0027      Y:    -0.0027      Z:     0.0284     Total:     0.0286


  //>>>>>>>>>>>>>>>>>>>>>>>>>>>>>>>>>>>//
  //               DFMP2               //
  //<<<<<<<<<<<<<<<<<<<<<<<<<<<<<<<<<<<//


*** tstart() called on lski1497
*** at Thu Feb 16 16:26:42 2017


*** tstop() called on lski1497 at Thu Feb 16 16:26:43 2017
Module time:
	user time   =       0.65 seconds =       0.01 minutes
	system time =       0.00 seconds =       0.00 minutes
	total time  =          1 seconds =       0.02 minutes
Total time:
	user time   =      57.69 seconds =       0.96 minutes
	system time =       1.60 seconds =       0.03 minutes
	total time  =         68 seconds =       1.13 minutes
	 --------------------------------------------------------
	                          DF-MP2                         
	      2nd-Order Density-Fitted Moller-Plesset Theory     
	              RMP2 Wavefunction,   1 Threads             
	                                                         
	        Rob Parrish, Justin Turney, Andy Simmonett,      
	           Ed Hohenstein, and C. David Sherrill          
	 --------------------------------------------------------

   => Auxiliary Basis Set <=

  Basis Set: 
    Number of shells: 132
    Number of basis function: 364
    Number of Cartesian functions: 414
    Spherical Harmonics?: true
    Max angular momentum: 3

	 --------------------------------------------------------
	                 NBF =    80, NAUX =   364
	 --------------------------------------------------------
	   CLASS    FOCC     OCC    AOCC    AVIR     VIR    FVIR
	   PAIRS       0      17      17      63      63       0
	 --------------------------------------------------------

DGAS Warning! /src/lib/libfock/apps.cc:80 is not currently checking restricted

         ------------------------------------------------------------
                                     CPHF                           
                                  Rob Parrish                       
         ------------------------------------------------------------

  ==> Geometry <==

    Molecular point group: c1
    Full point group: C1

    Geometry (in Angstrom), charge = 0, multiplicity = 1:

       Center              X                  Y                   Z               Mass       
    ------------   -----------------  -----------------  -----------------  -----------------
           H         -2.368696724957     0.033266273520     0.448642252150     1.007825032070
           H         -2.230075176271     1.685519425454    -0.169638234734     1.007825032070
           H         -1.928290869898     0.311341769944    -1.243548906223     1.007825032070
           C         -1.803435866833     0.681686620465    -0.224205582544    12.000000000000
           H          0.220496605884     1.352747575613    -0.521290851405     1.007825032070
           H         -0.211664604129     1.078707498739     1.175569005543     1.007825032070
           C         -0.321024294308     0.689813745644     0.159525941463    12.000000000000
           H          0.011241490125    -1.273633725021     0.983761757918     1.007825032070
           H         -0.099194619563    -1.235103592945    -0.784451089138     1.007825032070
           C          0.297840482072    -0.712360468283     0.090271472035    12.000000000000
           H          2.251013614544    -1.665088801116    -0.055606032210     1.007825032070
           H          2.246871402278    -0.151566692387     0.861207573891     1.007825032070
           H          2.128626686608    -0.117097053318    -0.904753305145     1.007825032070
           C          1.824912439873    -0.660743404435    -0.007945836799    12.000000000000

  Nuclear repulsion =  130.794601335743522
  Reference energy  = -157.296254025749505

  ==> Basis Set <==

  Basis Set: 6-31G(D)
    Number of shells: 44
    Number of basis function: 80
    Number of Cartesian functions: 80
    Spherical Harmonics?: false
    Max angular momentum: 2

  ==> CGRSolver (by Rob Parrish) <==

   Number of roots    =         1
   Preconditioning    =    JACOBI
   Convergence cutoff =     1E-06
   Maximum iterations =       100

  ==> CPHFRHamiltonian (by Rob Parrish) <== 

  ==> DFJK: Density-Fitted J/K Matrices <==

    J tasked:                  Yes
    K tasked:                  Yes
[...]
  CGR           1          0          1   7.501E-02
  CGR           2          0          1   9.328E-03
  CGR           3          0          1   2.929E-03
  CGR           4          0          1   3.680E-04
  CGR           5          0          1   6.553E-05
  CGR           6          0          1   1.418E-05
  CGR           7          0          1   2.522E-06
  CGR           8          1          0   4.886E-07

    CGRSolver converged.

  ==> DFCorrGrad: Density-Fitted Correlated Gradients <==

    OpenMP threads:              1
    Integrals threads:           1
    Memory (MB):               715
    Schwarz Cutoff:          0E+00
    Fitting Condition:       1E-12

   => Auxiliary Basis Set <=

  Basis Set: 
    Number of shells: 186
    Number of basis function: 510
    Number of Cartesian functions: 574
    Spherical Harmonics?: true
    Max angular momentum: 3

	-----------------------------------------------------------
	 ==================> DF-MP2 Energies <==================== 
	-----------------------------------------------------------
	 Reference Energy          =    -157.2965564407072350 [Eh]
	 Singles Energy            =      -0.0000000000000000 [Eh]
	 Same-Spin Energy          =      -0.1244186916250797 [Eh]
	 Opposite-Spin Energy      =      -0.4222507503892340 [Eh]
	 Correlation Energy        =      -0.5466694420143138 [Eh]
	 Total Energy              =    -157.8432258827215549 [Eh]
	-----------------------------------------------------------
	 ================> DF-SCS-MP2 Energies <================== 
	-----------------------------------------------------------
	 SCS Same-Spin Scale       =       0.3333333333333333 [-]
	 SCS Opposite-Spin Scale   =       1.2000000000000000 [-]
	 SCS Same-Spin Energy      =      -0.0414728972083599 [Eh]
	 SCS Opposite-Spin Energy  =      -0.5067009004670808 [Eh]
	 SCS Correlation Energy    =      -0.5481737976754407 [Eh]
	 SCS Total Energy          =    -157.8447302383826809 [Eh]
	-----------------------------------------------------------


  -Total Gradient:
     Atom            X                  Y                   Z
    ------   -----------------  -----------------  -----------------
       1       -0.000058607385    -0.000048709753     0.000044017475
       2       -0.000025749161     0.000073129258    -0.000007063091
       3       -0.000082369966    -0.000046839964    -0.000097877855
       4        0.001041176642     0.000410290343    -0.002487700606
       5        0.000016355651     0.000076031484     0.000087693521
       6        0.000091044498     0.000071600171     0.000037899952
       7       -0.001265272459    -0.000761827755     0.002377972344
       8       -0.000096194989    -0.000074773791     0.000011017724
       9       -0.000032167772    -0.000092156854     0.000062111983
      10        0.000795953606     0.000316899565     0.002664436150
      11        0.000029123993    -0.000075151367    -0.000014287578
      12        0.000047691288     0.000037705043     0.000062420091
      13        0.000092557933     0.000057503235    -0.000066423446
      14       -0.000553541879     0.000056300385    -0.002674216665


			-----------------------------------------
			 OPTKING 2.0: for geometry optimizations 
			  - R.A. King,  Bethel University        
			-----------------------------------------

	Previous internal coordinate definitions found.
	---Fragment 1 Geometry and Gradient---
	 H          -4.4942807271        0.0425010935        0.8232470161
	 H          -4.2285646079        3.1846022891       -0.2807618552
	 H          -3.6638436555        0.6265955107       -2.3579425204
	 C          -3.4091008321        1.2920623012       -0.4174660297
	 H           0.3999805508        2.5522800656       -0.9998424996
	 H          -0.3578119703        2.0871753031        2.1909249205
	 C          -0.6180656339        1.2928141815        0.2951689039
	 H          -0.0123312004       -2.4428695943        1.8211788690
	 H          -0.1706982658       -2.3319291158       -1.4855557241
	 C           0.5749292998       -1.3342649784        0.1723067236
	 H           4.2599887311       -3.1544247773       -0.0596653270
	 H           4.2702549889       -0.2577814136        1.6051551955
	 H           4.0405588193       -0.2645353910       -1.7262219759
	 C           3.4486045732       -1.2541064710       -0.0105797955
	            -0.0000586074       -0.0000487098        0.0000440175
	            -0.0000257492        0.0000731293       -0.0000070631
	            -0.0000823700       -0.0000468400       -0.0000978779
	             0.0010411766        0.0004102903       -0.0024877006
	             0.0000163557        0.0000760315        0.0000876935
	             0.0000910445        0.0000716002        0.0000379000
	            -0.0012652725       -0.0007618278        0.0023779723
	            -0.0000961950       -0.0000747738        0.0000110177
	            -0.0000321678       -0.0000921569        0.0000621120
	             0.0007959536        0.0003168996        0.0026644361
	             0.0000291240       -0.0000751514       -0.0000142876
	             0.0000476913        0.0000377050        0.0000624201
	             0.0000925579        0.0000575032       -0.0000664234
	            -0.0005535419        0.0000563004       -0.0026742167

	---Fragment 1 Intrafragment Coordinates---
	 - Coordinate -           - BOHR/RAD -       - ANG/DEG -
	 R(1,4)           =         2.068426	       1.094564
	 R(2,4)           =         2.066862	       1.093736
	 R(3,4)           =         2.067169	       1.093899
	 R(4,7)           =         2.880577	       1.524336
	 R(5,7)           =         2.073578	       1.097290
	 R(6,7)           =         2.071867	       1.096385
	 R(7,10)          =         2.887885	       1.528203
	 R(8,10)          =         2.071873	       1.096388
	 R(9,10)          =         2.073596	       1.097300
	 R(10,14)         =         2.880605	       1.524350
	 R(11,14)         =         2.066873	       1.093742
	 R(12,14)         =         2.068423	       1.094562
	 R(13,14)         =         2.067145	       1.093886
	 B(1,4,2)         =         1.881238	     107.786977
	 B(1,4,3)         =         1.879624	     107.694521
	 B(1,4,7)         =         1.939166	     111.106019
	 B(2,4,3)         =         1.883885	     107.938672
	 B(2,4,7)         =         1.947171	     111.564666
	 B(3,4,7)         =         1.930201	     110.592363
	 B(4,7,5)         =         1.897955	     108.744817
	 B(4,7,6)         =         1.926418	     110.375604
	 B(4,7,10)        =         1.970885	     112.923368
	 B(5,7,6)         =         1.851361	     106.075176
	 B(5,7,10)        =         1.899849	     108.853331
	 B(6,7,10)        =         1.913266	     109.622094
	 B(7,10,8)        =         1.913252	     109.621263
	 B(7,10,9)        =         1.899849	     108.853328
	 B(7,10,14)       =         1.970882	     112.923196
	 B(8,10,9)        =         1.851383	     106.076450
	 B(8,10,14)       =         1.926424	     110.375957
	 B(9,10,14)       =         1.897946	     108.744290
	 B(10,14,11)      =         1.947164	     111.564287
	 B(10,14,12)      =         1.939160	     111.105694
	 B(10,14,13)      =         1.930171	     110.590633
	 B(11,14,12)      =         1.881237	     107.786930
	 B(11,14,13)      =         1.883898	     107.939398
	 B(12,14,13)      =         1.879657	     107.696426
	 D(1,4,7,5)       =         3.133574	     179.540554
	 D(1,4,7,6)       =        -1.125482	     -64.485341
	 D(1,4,7,10)      =         1.022914	      58.608682
	 D(2,4,7,5)       =        -1.049852	     -60.152062
	 D(2,4,7,6)       =         0.974278	      55.822043
	 D(2,4,7,10)      =         3.122674	     178.916067
	 D(3,4,7,5)       =         1.047174	      59.998652
	 D(3,4,7,6)       =         3.071304	     175.972757
	 D(3,4,7,10)      =        -1.063485	     -60.933220
	 D(4,7,10,8)      =        -1.327870	     -76.081332
	 D(4,7,10,9)      =         0.690070	      39.538108
	 D(4,7,10,14)     =         2.799639	     160.407480
	 D(5,7,10,8)      =         2.845733	     163.048515
	 D(5,7,10,9)      =        -1.419512	     -81.332045
	 D(5,7,10,14)     =         0.690057	      39.537327
	 D(6,7,10,8)      =         0.827812	      47.430139
	 D(6,7,10,9)      =         2.845752	     163.049580
	 D(6,7,10,14)     =        -1.327865	     -76.081049
	 D(7,10,14,11)    =         3.122655	     178.914965
	 D(7,10,14,12)    =         1.022905	      58.608119
	 D(7,10,14,13)    =        -1.063513	     -60.934824
	 D(8,10,14,11)    =         0.974276	      55.821885
	 D(8,10,14,12)    =        -1.125475	     -64.484961
	 D(8,10,14,13)    =         3.071292	     175.972096
	 D(9,10,14,11)    =        -1.049879	     -60.153646
	 D(9,10,14,12)    =         3.133556	     179.539508
	 D(9,10,14,13)    =         1.047138	      59.996565

	Current energy   :      -157.8432258827

	Energy change for the previous step:
		Projected    :        -0.0000053460
		Actual       :        -0.0000038217

	Performing BFGS update.
	Previous computed or guess Hessian on step 1.
	Steps to be used in Hessian update: 8 7
	Adding user-defined constraint: Fragment 1; Coordinate 49:
		Value =     2.799639; Fixed value    =     2.792530
		Force =    -0.004976; Force constant =     0.700000
	Removing off-diagonal coupling between coordinate 49 and others.
	Taking RFO optimization step.
	Going to follow RFO solution 1.
	Rejecting RFO root 1 because normalization gives large value.
	Rejecting RFO root 2 because normalization gives large value.
	Using RFO vector 3.
	Norm of target step-size    0.00213
	Projected energy change by RFO approximation:        -0.0000003126

	Back-transformation to cartesian coordinates...
	Could not converge backtransformation.
	Using first guess instead.

	--- Internal Coordinate Step in ANG or DEG, aJ/ANG or AJ/DEG ---
	 ---------------------------------------------------------------------------
	   Coordinate                Previous        Force       Change         New 
	   ----------                --------       ------       ------       ------
	    1 R(1,4)          =      1.094564    -0.000713    -0.000037     1.094527
	    2 R(2,4)          =      1.093736    -0.000633    -0.000031     1.093705
	    3 R(3,4)          =      1.093899    -0.000964    -0.000051     1.093848
	    4 R(4,7)          =      1.524336     0.001788     0.000192     1.524528
	    5 R(5,7)          =      1.097290     0.000004    -0.000005     1.097286
	    6 R(6,7)          =      1.096385    -0.000606    -0.000050     1.096334
	    7 R(7,10)         =      1.528203     0.000745     0.000095     1.528297
	    8 R(8,10)         =      1.096388    -0.000627    -0.000051     1.096337
	    9 R(9,10)         =      1.097300    -0.000052    -0.000007     1.097293
	   10 R(10,14)        =      1.524350     0.001733     0.000188     1.524539
	   11 R(11,14)        =      1.093742    -0.000667    -0.000033     1.093709
	   12 R(12,14)        =      1.094562    -0.000707    -0.000036     1.094526
	   13 R(13,14)        =      1.093886    -0.000899    -0.000047     1.093839
	   14 B(1,4,2)        =    107.786977     0.000000     0.004915   107.791892
	   15 B(1,4,3)        =    107.694521     0.000004     0.009389   107.703910
	   16 B(1,4,7)        =    111.106019    -0.000000    -0.003654   111.102365
	   17 B(2,4,3)        =    107.938672     0.000003     0.006330   107.945002
	   18 B(2,4,7)        =    111.564666     0.000002     0.000107   111.564774
	   19 B(3,4,7)        =    110.592363    -0.000007    -0.015987   110.576376
	   20 B(4,7,5)        =    108.744817    -0.000004     0.000156   108.744973
	   21 B(4,7,6)        =    110.375604    -0.000000    -0.015847   110.359757
	   22 B(4,7,10)       =    112.923368     0.000002    -0.009600   112.913767
	   23 B(5,7,6)        =    106.075176     0.000005     0.030012   106.105188
	   24 B(5,7,10)       =    108.853331    -0.000003    -0.013425   108.839906
	   25 B(6,7,10)       =    109.622094     0.000001     0.011102   109.633196
	   26 B(7,10,8)       =    109.621263     0.000001     0.011215   109.632478
	   27 B(7,10,9)       =    108.853328    -0.000003    -0.013337   108.839991
	   28 B(7,10,14)      =    112.923196     0.000002    -0.009355   112.913841
	   29 B(8,10,9)       =    106.076450     0.000004     0.029591   106.106042
	   30 B(8,10,14)      =    110.375957    -0.000000    -0.016133   110.359824
	   31 B(9,10,14)      =    108.744290    -0.000004     0.000380   108.744670
	   32 B(10,14,11)     =    111.564287     0.000002     0.000792   111.565079
	   33 B(10,14,12)     =    111.105694    -0.000000    -0.003247   111.102447
	   34 B(10,14,13)     =    110.590633    -0.000007    -0.015278   110.575355
	   35 B(11,14,12)     =    107.786930     0.000000     0.004586   107.791516
	   36 B(11,14,13)     =    107.939398     0.000002     0.005746   107.945144
	   37 B(12,14,13)     =    107.696426     0.000004     0.008392   107.704819
	   38 D(1,4,7,5)      =    179.540554    -0.000001    -0.005395   179.535159
	   39 D(1,4,7,6)      =    -64.485341    -0.000000     0.021981   -64.463360
	   40 D(1,4,7,10)     =     58.608682     0.000000     0.017704    58.626387
	   41 D(2,4,7,5)      =    -60.152062    -0.000001    -0.001571   -60.153633
	   42 D(2,4,7,6)      =     55.822043     0.000000     0.025805    55.847848
	   43 D(2,4,7,10)     =    178.916067     0.000001     0.021528   178.937595
	   44 D(3,4,7,5)      =     59.998652    -0.000001    -0.004295    59.994357
	   45 D(3,4,7,6)      =    175.972757    -0.000000     0.023081   175.995838
	   46 D(3,4,7,10)     =    -60.933220     0.000000     0.018805   -60.914415
	   47 D(4,7,10,8)     =    -76.081332    -0.000001    -0.023551   -76.104883
	   48 D(4,7,10,9)     =     39.538108    -0.000000     0.010533    39.548641
	   49 D(4,7,10,14)    =    160.407480    -0.000002    -0.004359   160.403121
	   50 D(5,7,10,8)     =    163.048515    -0.000000    -0.008155   163.040360
	   51 D(5,7,10,9)     =    -81.332045     0.000001     0.025929   -81.306116
	   52 D(5,7,10,14)    =     39.537327    -0.000000     0.011037    39.548364
	   53 D(6,7,10,8)     =     47.430139    -0.000001    -0.042631    47.387509
	   54 D(6,7,10,9)     =    163.049580    -0.000000    -0.008547   163.041033
	   55 D(6,7,10,14)    =    -76.081049    -0.000001    -0.023439   -76.104488
	   56 D(7,10,14,11)   =    178.914965     0.000001     0.022241   178.937206
	   57 D(7,10,14,12)   =     58.608119     0.000000     0.018094    58.626213
	   58 D(7,10,14,13)   =    -60.934824     0.000000     0.019713   -60.915111
	   59 D(8,10,14,11)   =     55.821885     0.000000     0.026407    55.848292
	   60 D(8,10,14,12)   =    -64.484961    -0.000000     0.022260   -64.462701
	   61 D(8,10,14,13)   =    175.972096    -0.000000     0.023879   175.995975
	   62 D(9,10,14,11)   =    -60.153646    -0.000001    -0.000432   -60.154079
	   63 D(9,10,14,12)   =    179.539508    -0.000001    -0.004579   179.534929
	   64 D(9,10,14,13)   =     59.996565    -0.000001    -0.002960    59.993604
	 ---------------------------------------------------------------------------
	 Forces used to impose fixed constraints are not included.
	  Forces zeroed: 49 

  ==> Convergence Check <==

  Measures of convergence in internal coordinates in au.
  Criteria marked as inactive (o), active & met (*), and active & unmet ( ).
  ---------------------------------------------------------------------------------------------
   Step     Total Energy     Delta E     MAX Force     RMS Force      MAX Disp      RMS Disp   
  ---------------------------------------------------------------------------------------------
    Convergence Criteria    1.00e-06 *    3.00e-04 *             o    1.20e-03 *             o
  ---------------------------------------------------------------------------------------------
      9    -157.84322588   -3.82e-06      2.17e-04 *    6.12e-05 o    7.44e-04 *    2.66e-04 o  ~
  ---------------------------------------------------------------------------------------------


  **** Optimization is complete! (in 9 steps) ****

  ==> Optimization Summary <==

  Measures of convergence in internal coordinates in au.
  --------------------------------------------------------------------------------------------------------------- ~
   Step         Total Energy             Delta E       MAX Force       RMS Force        MAX Disp        RMS Disp  ~
  --------------------------------------------------------------------------------------------------------------- ~
      1    -157.837107179382   -157.837107179382      0.01823549      0.00730743      0.02868857      0.01251170  ~
      2    -157.841248147691     -0.004140968309      0.00731304      0.00323559      0.03190971      0.01250057  ~
      3    -157.842753284256     -0.001505136565      0.00225289      0.00096951      0.04784733      0.01251602  ~
      4    -157.843154419314     -0.000401135058      0.00096444      0.00028272      0.02917319      0.01249642  ~
      5    -157.843229712580     -0.000075293266      0.00014156      0.00005593      0.00890077      0.00426176  ~
      6    -157.843234650115     -0.000004937535      0.00018831      0.00004167      0.01687239      0.00780522  ~
      7    -157.843199396499      0.000035253617      0.00077575      0.00023616      0.00873490      0.00387852  ~
      8    -157.843222060973     -0.000022664474      0.00019076      0.00006357      0.00495199      0.00244986  ~
      9    -157.843225882722     -0.000003821749      0.00021703      0.00006249      0.00074405      0.00026578  ~
  --------------------------------------------------------------------------------------------------------------- ~

	Writing optimization data to binary file.
	Final energy is   -157.8432258827216
	Final (previous) structure:
	Cartesian Geometry (in Angstrom)
	    H    -2.3782709298   0.0224906100   0.4356435580
	    H    -2.2376600155   1.6852189498  -0.1485727748
	    H    -1.9388225583   0.3315800633  -1.2477694410
	    C    -1.8040184622   0.6837299219  -0.2209135083
	    H     0.2116605914   1.3506084407  -0.5290938630
	    H    -0.1893459396   1.1044856007   1.1593875336
	    C    -0.3270662469   0.6841277998   0.1561966566
	    H    -0.0065253902  -1.2927109129   0.9637263503
	    H    -0.0903296318  -1.2340037402  -0.7861222313
	    C     0.3042394820  -0.7060626168   0.0911807910
	    H     2.2542889454  -1.6692496984  -0.0315735312
	    H     2.2597216150  -0.1364120489   0.8494115457
	    H     2.1381716372  -0.1399860998  -0.9134773266
	    C     1.8249229416  -0.6636445616  -0.0055985866
	Saving final (previous) structure.
			--------------------------
			 OPTKING Finished Execution 
			--------------------------

    Final optimized geometry and variables:
    Molecular point group: c1
    Full point group: C1

    Geometry (in Angstrom), charge = 0, multiplicity = 1:

    H           -2.378270929766     0.022490610036     0.435643557956
    H           -2.237660015546     1.685218949807    -0.148572774792
    H           -1.938822558313     0.331580063250    -1.247769440982
    C           -1.804018462158     0.683729921854    -0.220913508295
    H            0.211660591387     1.350608440673    -0.529093862951
    H           -0.189345939630     1.104485600745     1.159387533644
    C           -0.327066246865     0.684127799814     0.156196656645
    H           -0.006525390195    -1.292710912864     0.963726350259
    H           -0.090329631832    -1.234003740153    -0.786122231308
    C            0.304239481981    -0.706062616789     0.091180791010
    H            2.254288945351    -1.669249698381    -0.031573531217
    H            2.259721615012    -0.136412048857     0.849411545726
    H            2.138171637165    -0.139986099774    -0.913477326621
    C            1.824922941583    -0.663644561613    -0.005598586637

	Cleaning optimization helper files.

*** Psi4 exiting successfully. Buy a developer a beer!
