    -----------------------------------------------------------------------
          Psi4: An Open-Source Ab Initio Electronic Structure Package
                              Psi4 1.0.0 Driver

                          Git: Rev {master} 6a9a71b 

    J. M. Turney, A. C. Simmonett, R. M. Parrish, E. G. Hohenstein,
    F. A. Evangelista, J. T. Fermann, B. J. Mintz, L. A. Burns, J. J. Wilke,
    M. L. Abrams, N. J. Russ, M. L. Leininger, C. L. Janssen, E. T. Seidl,
    W. D. Allen, H. F. Schaefer, R. A. King, E. F. Valeev, C. D. Sherrill,
    and T. D. Crawford, WIREs Comput. Mol. Sci. 2, 556-565 (2012)
    (doi: 10.1002/wcms.93)

                         Additional Contributions by
    A. E. DePrince, U. Bozkaya, A. Yu. Sokolov, D. G. A. Smith, R. Di Remigio,
    R. M. Richard, J. F. Gonthier, H. R. McAlexander, M. Saitow, and
    B. P. Pritchard
    -----------------------------------------------------------------------


    Psi4 started on: Thu Feb 16 16:39:20 2017

    Process ID:   2334
    PSI4DATADIR: /Users/sternc1/anaconda/share/psi4
    Memory level set to 256.000 MB

  ==> Input File <==

--------------------------------------------------------------------------

memory 1000 mb

molecule butane {
  symmetry C1
  0 1 
  H      1.604   0.760   -8.260
  H      1.745   2.388   -8.880
  H      2.043   1.024   -9.930
  C      2.142   1.395   -8.932
  H      4.169   2.051   -9.210
  H      3.731   1.788   -7.539
  C      3.631   1.416   -8.537
  H      5.237   0.003   -8.337
  H      3.665   -0.647   -7.940
  C      4.203   -0.012   -8.612
  H      4.459   -1.539   -10.100
  H      4.599   0.087   -10.721
  H      3.027   -0.564   -10.324
  C      4.061   -0.548   -10.048
  units Angstrom
}

dih_string = "4 7 10 14 60"
set optking fixed_dihedral = $dih_string

optimize('MP2/6-31G(d)')
--------------------------------------------------------------------------

  Memory set to 1000.000 MiB by Python script.
gradient() will perform analytic gradient computation.
    SCF Algorithm Type (re)set to DF.

*** tstart() called on lski1497
*** at Thu Feb 16 16:39:22 2017


         ---------------------------------------------------------
                                   SCF
            by Justin Turney, Rob Parrish, and Andy Simmonett
                              RHF Reference
                        1 Threads,   1000 MiB Core
         ---------------------------------------------------------

  ==> Geometry <==

    Molecular point group: c1
    Full point group: C1

    Geometry (in Angstrom), charge = 0, multiplicity = 1:

       Center              X                  Y                   Z               Mass       
    ------------   -----------------  -----------------  -----------------  -----------------
           H         -1.891133430388     0.202048071909     0.788188622235     1.007825032070
           H         -1.750133430388     1.830048071909     0.168188622235     1.007825032070
           H         -1.452133430388     0.466048071909    -0.881811377765     1.007825032070
           C         -1.353133430388     0.837048071909     0.116188622235    12.000000000000
           H          0.673866569612     1.493048071909    -0.161811377765     1.007825032070
           H          0.235866569612     1.230048071909     1.509188622235     1.007825032070
           C          0.135866569612     0.858048071909     0.511188622235    12.000000000000
           H          1.741866569612    -0.554951928091     0.711188622235     1.007825032070
           H          0.169866569612    -1.204951928091     1.108188622235     1.007825032070
           C          0.707866569612    -0.569951928091     0.436188622235    12.000000000000
           H          0.963866569612    -2.096951928091    -1.051811377765     1.007825032070
           H          1.103866569612    -0.470951928091    -1.672811377765     1.007825032070
           H         -0.468133430388    -1.121951928091    -1.275811377765     1.007825032070
           C          0.565866569612    -1.105951928091    -0.999811377765    12.000000000000

  Running in c1 symmetry.

  Rotational constants: A =      0.41859  B =      0.17560  C =      0.14458 [cm^-1]
  Rotational constants: A =  12548.96445  B =   5264.38149  C =   4334.52063 [MHz]
  Nuclear repulsion =  134.731788310367762

  Charge       = 0
  Multiplicity = 1
  Electrons    = 34
  Nalpha       = 17
  Nbeta        = 17

  ==> Algorithm <==

  SCF Algorithm Type is DF.
  DIIS enabled.
  MOM disabled.
  Fractional occupation disabled.
  Guess Type is SAD.
  Energy threshold   = 1.00e-10
  Density threshold  = 1.00e-10
  Integral threshold = 0.00e+00

  ==> Primary Basis <==

  Basis Set: 6-31G(D)
    Number of shells: 44
    Number of basis function: 80
    Number of Cartesian functions: 80
    Spherical Harmonics?: false
    Max angular momentum: 2

  ==> Pre-Iterations <==

   -------------------------------------------------------
    Irrep   Nso     Nmo     Nalpha   Nbeta   Ndocc  Nsocc
   -------------------------------------------------------
     A         80      80       0       0       0       0
   -------------------------------------------------------
    Total      80      80      17      17      17       0
   -------------------------------------------------------

  ==> Integral Setup <==

  ==> DFJK: Density-Fitted J/K Matrices <==

    J tasked:                  Yes
    K tasked:                  Yes
    wK tasked:                  No
    OpenMP threads:              1
    Integrals threads:           1
    Memory (MB):               715
    Algorithm:                Core
    Integral Cache:           NONE
    Schwarz Cutoff:          1E-12
    Fitting Condition:       1E-12

   => Auxiliary Basis Set <=

  Basis Set: 
    Number of shells: 186
    Number of basis function: 574
    Number of Cartesian functions: 574
    Spherical Harmonics?: false
    Max angular momentum: 3

  Minimum eigenvalue in the overlap matrix is 5.2445060044E-03.
  Using Symmetric Orthogonalization.
  SCF Guess: Superposition of Atomic Densities via on-the-fly atomic UHF.

  ==> Iterations <==

                           Total Energy        Delta E     RMS |[F,P]|

   @DF-RHF iter   0:  -158.99298563905072   -1.58993e+02   4.74268e-02 
   @DF-RHF iter   1:  -157.19925964571425    1.79373e+00   3.99880e-03 
   @DF-RHF iter   2:  -157.28136242717588   -8.21028e-02   1.09684e-03 DIIS
   @DF-RHF iter   3:  -157.28932901030603   -7.96658e-03   2.50031e-04 DIIS
   @DF-RHF iter   4:  -157.28969185416415   -3.62844e-04   8.02742e-05 DIIS
   @DF-RHF iter   5:  -157.28972721755585   -3.53634e-05   1.40246e-05 DIIS
   @DF-RHF iter   6:  -157.28972869272670   -1.47517e-06   2.24587e-06 DIIS
   @DF-RHF iter   7:  -157.28972871952570   -2.67990e-08   6.79109e-07 DIIS
   @DF-RHF iter   8:  -157.28972872177721   -2.25151e-09   1.33601e-07 DIIS
   @DF-RHF iter   9:  -157.28972872189601   -1.18803e-10   3.42177e-08 DIIS
   @DF-RHF iter  10:  -157.28972872190556   -9.54969e-12   6.56081e-09 DIIS
   @DF-RHF iter  11:  -157.28972872190596   -3.97904e-13   1.76382e-09 DIIS
   @DF-RHF iter  12:  -157.28972872190613   -1.70530e-13   4.39274e-10 DIIS
   @DF-RHF iter  13:  -157.28972872190624   -1.13687e-13   8.63303e-11 DIIS

  ==> Post-Iterations <==

    Orbital Energies (a.u.)
    -----------------------

    Doubly Occupied:                                                      

       1A    -11.208076     2A    -11.207491     3A    -11.199775  
       4A    -11.199688     5A     -1.074247     6A     -0.973765  
       7A     -0.877860     8A     -0.781858     9A     -0.631956  
      10A     -0.629565    11A     -0.578362    12A     -0.535897  
      13A     -0.531721    14A     -0.505525    15A     -0.471804  
      16A     -0.455399    17A     -0.451369  

    Virtual:                                                              

      18A      0.235823    19A      0.281456    20A      0.287493  
      21A      0.302375    22A      0.319559    23A      0.320861  
      24A      0.343915    25A      0.352939    26A      0.363385  
      27A      0.387889    28A      0.409414    29A      0.419906  
      30A      0.446707    31A      0.715056    32A      0.720703  
      33A      0.739896    34A      0.743169    35A      0.764208  
      36A      0.833862    37A      0.868698    38A      0.927823  
      39A      0.950654    40A      0.997038    41A      1.106791  
      42A      1.119774    43A      1.175918    44A      1.178433  
      45A      1.193279    46A      1.207503    47A      1.216520  
      48A      1.235468    49A      1.240632    50A      1.267901  
      51A      1.272455    52A      1.302741    53A      1.320211  
      54A      1.571455    55A      1.711916    56A      1.714801  
      57A      1.832922    58A      1.861749    59A      1.973968  
      60A      2.043264    61A      2.173110    62A      2.261273  
      63A      2.300929    64A      2.312737    65A      2.358679  
      66A      2.461564    67A      2.484562    68A      2.660273  
      69A      2.662899    70A      2.668090    71A      2.698239  
      72A      2.760461    73A      2.802872    74A      2.925410  
      75A      2.955039    76A      3.091046    77A      4.582656  
      78A      4.696672    79A      4.819861    80A      4.946291  

    Final Occupation by Irrep:
              A 
    DOCC [    17 ]

  Energy converged.

  @DF-RHF Final Energy:  -157.28972872190624

   => Energetics <=

    Nuclear Repulsion Energy =            134.7317883103677616
    One-Electron Energy =                -477.4143155516326829
    Two-Electron Energy =                 185.3927985193588768
    DFT Exchange-Correlation Energy =       0.0000000000000000
    Empirical Dispersion Energy =           0.0000000000000000
    PCM Polarization Energy =               0.0000000000000000
    EFP Energy =                            0.0000000000000000
    Total Energy =                       -157.2897287219060161


  Saving occupied orbitals to File 180.

*** tstop() called on lski1497 at Thu Feb 16 16:39:28 2017
Module time:
	user time   =       4.94 seconds =       0.08 minutes
	system time =       0.15 seconds =       0.00 minutes
	total time  =          6 seconds =       0.10 minutes
Total time:
	user time   =       4.94 seconds =       0.08 minutes
	system time =       0.15 seconds =       0.00 minutes
	total time  =          6 seconds =       0.10 minutes


Properties will be evaluated at   0.000000,   0.000000,   0.000000 Bohr

Properties computed using the SCF density matrix

  Nuclear Dipole Moment: (a.u.)
     X:    -0.6303      Y:    -0.2142      Z:    -0.7116

  Electronic Dipole Moment: (a.u.)
     X:     0.6524      Y:     0.2209      Z:     0.7362

  Dipole Moment: (a.u.)
     X:     0.0221      Y:     0.0066      Z:     0.0245     Total:     0.0336

  Dipole Moment: (Debye)
     X:     0.0561      Y:     0.0169      Z:     0.0623     Total:     0.0855


  //>>>>>>>>>>>>>>>>>>>>>>>>>>>>>>>>>>>//
  //               DFMP2               //
  //<<<<<<<<<<<<<<<<<<<<<<<<<<<<<<<<<<<//


*** tstart() called on lski1497
*** at Thu Feb 16 16:39:28 2017


*** tstop() called on lski1497 at Thu Feb 16 16:39:28 2017
Module time:
	user time   =       0.54 seconds =       0.01 minutes
	system time =       0.01 seconds =       0.00 minutes
	total time  =          0 seconds =       0.00 minutes
Total time:
	user time   =       5.50 seconds =       0.09 minutes
	system time =       0.16 seconds =       0.00 minutes
	total time  =          6 seconds =       0.10 minutes
	 --------------------------------------------------------
	                          DF-MP2                         
	      2nd-Order Density-Fitted Moller-Plesset Theory     
	              RMP2 Wavefunction,   1 Threads             
	                                                         
	        Rob Parrish, Justin Turney, Andy Simmonett,      
	           Ed Hohenstein, and C. David Sherrill          
	 --------------------------------------------------------

   => Auxiliary Basis Set <=

  Basis Set: 
    Number of shells: 132
    Number of basis function: 364
    Number of Cartesian functions: 414
    Spherical Harmonics?: true
    Max angular momentum: 3

	 --------------------------------------------------------
	                 NBF =    80, NAUX =   364
	 --------------------------------------------------------
	   CLASS    FOCC     OCC    AOCC    AVIR     VIR    FVIR
	   PAIRS       0      17      17      63      63       0
	 --------------------------------------------------------

DGAS Warning! /src/lib/libfock/apps.cc:80 is not currently checking restricted

         ------------------------------------------------------------
                                     CPHF                           
                                  Rob Parrish                       
         ------------------------------------------------------------

  ==> Geometry <==

    Molecular point group: c1
    Full point group: C1

    Geometry (in Angstrom), charge = 0, multiplicity = 1:

       Center              X                  Y                   Z               Mass       
    ------------   -----------------  -----------------  -----------------  -----------------
           H         -1.891133430388     0.202048071909     0.788188622235     1.007825032070
           H         -1.750133430388     1.830048071909     0.168188622235     1.007825032070
           H         -1.452133430388     0.466048071909    -0.881811377765     1.007825032070
           C         -1.353133430388     0.837048071909     0.116188622235    12.000000000000
           H          0.673866569612     1.493048071909    -0.161811377765     1.007825032070
           H          0.235866569612     1.230048071909     1.509188622235     1.007825032070
           C          0.135866569612     0.858048071909     0.511188622235    12.000000000000
           H          1.741866569612    -0.554951928091     0.711188622235     1.007825032070
           H          0.169866569612    -1.204951928091     1.108188622235     1.007825032070
           C          0.707866569612    -0.569951928091     0.436188622235    12.000000000000
           H          0.963866569612    -2.096951928091    -1.051811377765     1.007825032070
           H          1.103866569612    -0.470951928091    -1.672811377765     1.007825032070
           H         -0.468133430388    -1.121951928091    -1.275811377765     1.007825032070
           C          0.565866569612    -1.105951928091    -0.999811377765    12.000000000000

  Nuclear repulsion =  134.731788310367733
  Reference energy  = -157.289728721906243

  ==> Basis Set <==

  Basis Set: 6-31G(D)
    Number of shells: 44
    Number of basis function: 80
    Number of Cartesian functions: 80
    Spherical Harmonics?: false
    Max angular momentum: 2

  ==> CGRSolver (by Rob Parrish) <==

   Number of roots    =         1
   Preconditioning    =    JACOBI
   Convergence cutoff =     1E-06
   Maximum iterations =       100

  ==> CPHFRHamiltonian (by Rob Parrish) <== 

  ==> DFJK: Density-Fitted J/K Matrices <==

    J tasked:                  Yes
    K tasked:                  Yes
    wK tasked:                  No
    OpenMP threads:              1
    Integrals threads:           1
    Memory (MB):               715
    Algorithm:                Core
    Integral Cache:           NONE
    Schwarz Cutoff:          1E-12
    Fitting Condition:       1E-12

   => Auxiliary Basis Set <=

  Basis Set: 
    Number of shells: 186
    Number of basis function: 574
    Number of Cartesian functions: 574
    Spherical Harmonics?: false
    Max angular momentum: 3

  ==> CPHF Iterations <==

  => Iterations <=

             Iter  Converged  Remaining    Residual
  CGR           1          0          1   7.510E-02
  CGR           2          0          1   8.563E-03
  CGR           3          0          1   2.299E-03
  CGR           4          0          1   4.337E-04
  CGR           5          0          1   7.823E-05
  CGR           6          0          1   1.450E-05
  CGR           7          0          1   2.027E-06
  CGR           8          1          0   4.607E-07

    CGRSolver converged.

  ==> DFCorrGrad: Density-Fitted Correlated Gradients <==

    OpenMP threads:              1
    Integrals threads:           1
    Memory (MB):               715
    Schwarz Cutoff:          0E+00
    Fitting Condition:       1E-12

   => Auxiliary Basis Set <=

  Basis Set: 
    Number of shells: 186
    Number of basis function: 510
    Number of Cartesian functions: 574
    Spherical Harmonics?: true
    Max angular momentum: 3

	-----------------------------------------------------------
	 ==================> DF-MP2 Energies <==================== 
	-----------------------------------------------------------
	 Reference Energy          =    -157.2897287219062434 [Eh]
	 Singles Energy            =      -0.0000000000000000 [Eh]
	 Same-Spin Energy          =      -0.1250582698165308 [Eh]
	 Opposite-Spin Energy      =      -0.4208578684060331 [Eh]
	 Correlation Energy        =      -0.5459161382225639 [Eh]
	 Total Energy              =    -157.8356448601288093 [Eh]
	-----------------------------------------------------------
	 ================> DF-SCS-MP2 Energies <================== 
	-----------------------------------------------------------
	 SCS Same-Spin Scale       =       0.3333333333333333 [-]
	 SCS Opposite-Spin Scale   =       1.2000000000000000 [-]
	 SCS Same-Spin Energy      =      -0.0416860899388436 [Eh]
	 SCS Opposite-Spin Energy  =      -0.5050294420872398 [Eh]
	 SCS Correlation Energy    =      -0.5467155320260834 [Eh]
	 SCS Total Energy          =    -157.8364442539323136 [Eh]
	-----------------------------------------------------------


  -Total Gradient:
     Atom            X                  Y                   Z
    ------   -----------------  -----------------  -----------------
       1        0.010817936548     0.009655873293    -0.009331599492
       2        0.009788099708    -0.013565014425     0.000058156203
       3        0.006968995477     0.001341548114     0.012790618280
       4       -0.026830610355    -0.008282635447    -0.007405020517
       5       -0.010257775870    -0.011682906173     0.008750738844
       6       -0.003058810831    -0.009291869505    -0.015510121788
       7        0.019485450897     0.029986889625     0.004982217908
       8       -0.016630124037     0.002427567538    -0.006807433929
       9        0.006808965770     0.010679650911    -0.013242099255
      10        0.009796891115    -0.020273071944     0.028165025785
      11       -0.005735423967     0.016172233898     0.004891657504
      12       -0.007548776371    -0.008429469829     0.012425186300
      13        0.010656880955     0.004960292361     0.007496348883
      14       -0.004261699039    -0.003699088418    -0.027263674726


			-----------------------------------------
			 OPTKING 2.0: for geometry optimizations 
			  - R.A. King,  Bethel University        
			-----------------------------------------

	Previous internal coordinate definitions found.
	---Fragment 1 Geometry and Gradient---
	 H          -3.5737242642        0.3818155216        1.4894606371
	 H          -3.3072728794        3.4582896659        0.3178304347
	 H          -2.7441344918        0.8807032207       -1.6663820048
	 C          -2.5570516047        1.5817916160        0.2195646758
	 H           1.2734232667        2.8214519591       -0.3057791892
	 H           0.4457232205        2.3244539862        2.8519531789
	 C           0.2567506072        1.6214758648        0.9660064983
	 H           3.2916507766       -1.0487071610        1.3439517248
	 H           0.3210012957       -2.2770291474        2.0941729996
	 C           1.3376739552       -1.0770530530        0.8242770383
	 H           1.8214438452       -3.9626648579       -1.9876354474
	 H           2.0860055038       -0.8899701658       -3.1611553760
	 H          -0.8846439771       -2.1201818784       -2.4109341012
	 C           1.0693328443       -2.0899462602       -1.8893696885
	             0.0108179365        0.0096558733       -0.0093315995
	             0.0097880997       -0.0135650144        0.0000581562
	             0.0069689955        0.0013415481        0.0127906183
	            -0.0268306104       -0.0082826354       -0.0074050205
	            -0.0102577759       -0.0116829062        0.0087507388
	            -0.0030588108       -0.0092918695       -0.0155101218
	             0.0194854509        0.0299868896        0.0049822179
	            -0.0166301240        0.0024275675       -0.0068074339
	             0.0068089658        0.0106796509       -0.0132420993
	             0.0097968911       -0.0202730719        0.0281650258
	            -0.0057354240        0.0161722339        0.0048916575
	            -0.0075487764       -0.0084294698        0.0124251863
	             0.0106568810        0.0049602924        0.0074963489
	            -0.0042616990       -0.0036990884       -0.0272636747

	Previous optimization step data not found.  Starting new optimization.

	---Fragment 1 Intrafragment Coordinates---
	 - Coordinate -           - BOHR/RAD -       - ANG/DEG -
	 R(1,4)           =         2.021436	       1.069698
	 R(2,4)           =         2.023298	       1.070683
	 R(3,4)           =         2.020723	       1.069320
	 R(4,7)           =         2.911397	       1.540645
	 R(5,7)           =         2.022623	       1.070326
	 R(6,7)           =         2.021555	       1.069761
	 R(7,10)          =         2.910419	       1.540128
	 R(8,10)          =         2.022101	       1.070050
	 R(9,10)          =         2.021436	       1.069698
	 R(10,14)         =         2.908924	       1.539336
	 R(11,14)         =         2.020495	       1.069200
	 R(12,14)         =         2.022623	       1.070326
	 R(13,14)         =         2.022614	       1.070321
	 B(1,4,2)         =         1.910870	     109.484805
	 B(1,4,3)         =         1.911121	     109.499161
	 B(1,4,7)         =         1.910399	     109.457783
	 B(2,4,3)         =         1.910042	     109.437340
	 B(2,4,7)         =         1.910564	     109.467262
	 B(3,4,7)         =         1.910803	     109.480971
	 B(4,7,5)         =         1.909937	     109.431343
	 B(4,7,6)         =         1.911630	     109.528316
	 B(4,7,10)        =         1.911154	     109.501062
	 B(5,7,6)         =         1.910605	     109.469614
	 B(5,7,10)        =         1.910047	     109.437654
	 B(6,7,10)        =         1.910425	     109.459295
	 B(7,10,8)        =         1.910675	     109.473632
	 B(7,10,9)        =         1.910303	     109.452301
	 B(7,10,14)       =         1.911361	     109.512905
	 B(8,10,9)        =         1.910146	     109.443289
	 B(8,10,14)       =         1.911092	     109.497516
	 B(9,10,14)       =         1.910222	     109.447648
	 B(10,14,11)      =         1.911092	     109.497530
	 B(10,14,12)      =         1.910939	     109.488733
	 B(10,14,13)      =         1.912272	     109.565126
	 B(11,14,12)      =         1.909429	     109.402238
	 B(11,14,13)      =         1.910505	     109.463859
	 B(12,14,13)      =         1.909559	     109.409679
	 D(1,4,7,5)       =         3.140997	     179.965873
	 D(1,4,7,6)       =        -1.047644	     -60.025575
	 D(1,4,7,10)      =         1.047427	      60.013132
	 D(2,4,7,5)       =        -1.047689	     -60.028143
	 D(2,4,7,6)       =         1.046856	      59.980409
	 D(2,4,7,10)      =        -3.141259	    -179.980883
	 D(3,4,7,5)       =         1.046044	      59.933911
	 D(3,4,7,6)       =         3.140588	     179.942463
	 D(3,4,7,10)      =        -1.047526	     -60.018830
	 D(4,7,10,8)      =        -3.140990	    -179.965470
	 D(4,7,10,9)      =        -1.047368	     -60.009777
	 D(4,7,10,14)     =         1.046766	      59.975282
	 D(5,7,10,8)      =         1.048693	      60.085655
	 D(5,7,10,9)      =        -3.140871	    -179.958653
	 D(5,7,10,14)     =        -1.046737	     -59.973593
	 D(6,7,10,8)      =        -1.045182	     -59.884544
	 D(6,7,10,9)      =         1.048439	      60.071149
	 D(6,7,10,14)     =        -3.140612	    -179.943792
	 D(7,10,14,11)    =         3.140671	     179.947190
	 D(7,10,14,12)    =         1.047282	      60.004845
	 D(7,10,14,13)    =        -1.046989	     -59.988058
	 D(8,10,14,11)    =         1.045497	      59.902549
	 D(8,10,14,12)    =        -1.047892	     -60.039796
	 D(8,10,14,13)    =         3.141022	     179.967301
	 D(9,10,14,11)    =        -1.048330	     -60.064903
	 D(9,10,14,12)    =         3.141466	     179.992752
	 D(9,10,14,13)    =         1.047195	      59.999849

	Current energy   :      -157.8356448601

	Generating empirical Hessian (Schlegel '84) for each fragment.
	Adding user-defined constraint: Fragment 1; Coordinate 49:
		Value =     1.046766; Fixed value    =     1.047200
		Force =     0.000217; Force constant =     0.500000
	Removing off-diagonal coupling between coordinate 49 and others.
	Taking RFO optimization step.
	Going to follow RFO solution 1.
	Using RFO vector 1.

	Determining step-restricting scale parameter for RS-RFO.
	Maximum step size allowed    0.10000

	 Iter      |step|        alpha        rfo_root  
	------------------------------------------------
	    0     0.32713       1.00000           1
	    1     0.23906       3.68453           1
	    2     0.17193      12.41644           1
	    3     0.12951      29.63752           1
	    4     0.10796      48.96036           1
	    5     0.10086      58.58834           1
	    6     0.10001      59.88371           1
	    7     0.10000      59.90201           1
	------------------------------------------------
	Norm of target step-size    0.10000
	Projected energy change by RFO approximation:        -0.0067820768

	Back-transformation to cartesian coordinates...
	Could not converge backtransformation.
	Using first guess instead.

	--- Internal Coordinate Step in ANG or DEG, aJ/ANG or AJ/DEG ---
	 ---------------------------------------------------------------------------
	   Coordinate                Previous        Force       Change         New 
	   ----------                --------       ------       ------       ------
	    1 R(1,4)          =      1.069698     0.140347     0.011685     1.081382
	    2 R(2,4)          =      1.070683     0.133528     0.011514     1.082197
	    3 R(3,4)          =      1.069320     0.107500     0.009796     1.079116
	    4 R(4,7)          =      1.540645    -0.003503     0.000401     1.541046
	    5 R(5,7)          =      1.070326     0.144916     0.012036     1.082362
	    6 R(6,7)          =      1.069761     0.148188     0.012434     1.082195
	    7 R(7,10)         =      1.540128     0.037468     0.003718     1.543846
	    8 R(8,10)         =      1.070050     0.146528     0.012305     1.082354
	    9 R(9,10)         =      1.069698     0.148982     0.012359     1.082057
	   10 R(10,14)        =      1.539336     0.001761     0.000894     1.540231
	   11 R(11,14)        =      1.069200     0.143043     0.012273     1.081473
	   12 R(12,14)        =      1.070326     0.136830     0.011404     1.081730
	   13 R(13,14)        =      1.070321     0.101356     0.009299     1.079620
	   14 B(1,4,2)        =    109.484805    -0.000264    -0.349552   109.135252
	   15 B(1,4,3)        =    109.499161    -0.000281    -0.391373   109.107788
	   16 B(1,4,7)        =    109.457783     0.000139     0.163207   109.620990
	   17 B(2,4,3)        =    109.437340    -0.000442    -0.582813   108.854527
	   18 B(2,4,7)        =    109.467262     0.000282     0.385405   109.852668
	   19 B(3,4,7)        =    109.480971     0.000566     0.764909   110.245880
	   20 B(4,7,5)        =    109.431343    -0.000394    -0.480063   108.951280
	   21 B(4,7,6)        =    109.528316    -0.000578    -0.663160   108.865156
	   22 B(4,7,10)       =    109.501062     0.001795     2.211281   111.712343
	   23 B(5,7,6)        =    109.469614     0.000152     0.044736   109.514350
	   24 B(5,7,10)       =    109.437654    -0.000481    -0.547319   108.890335
	   25 B(6,7,10)       =    109.459295    -0.000495    -0.575591   108.883704
	   26 B(7,10,8)       =    109.473632    -0.000499    -0.582834   108.890798
	   27 B(7,10,9)       =    109.452301    -0.000484    -0.551353   108.900948
	   28 B(7,10,14)      =    109.512905     0.001800     2.216353   111.729258
	   29 B(8,10,9)       =    109.443289     0.000154     0.047276   109.490564
	   30 B(8,10,14)      =    109.497516    -0.000575    -0.658555   108.838961
	   31 B(9,10,14)      =    109.447648    -0.000396    -0.481931   108.965717
	   32 B(10,14,11)     =    109.497530     0.000282     0.385000   109.882530
	   33 B(10,14,12)     =    109.488733     0.000131     0.153968   109.642700
	   34 B(10,14,13)     =    109.565126     0.000555     0.751133   110.316258
	   35 B(11,14,12)     =    109.402238    -0.000256    -0.337356   109.064882
	   36 B(11,14,13)     =    109.463859    -0.000442    -0.586522   108.877337
	   37 B(12,14,13)     =    109.409679    -0.000271    -0.378620   109.031059
	   38 D(1,4,7,5)      =    179.965873     0.000052     0.309624   180.275496
	   39 D(1,4,7,6)      =    -60.025575    -0.000042    -0.321020   -60.346595
	   40 D(1,4,7,10)     =     60.013132    -0.000010    -0.081302    59.931831
	   41 D(2,4,7,5)      =    -60.028143     0.000037     0.218506   -59.809637
	   42 D(2,4,7,6)      =     59.980409    -0.000057    -0.412138    59.568272
	   43 D(2,4,7,10)     =   -179.980883    -0.000025    -0.172419  -180.153302
	   44 D(3,4,7,5)      =     59.933911     0.000032     0.215771    60.149682
	   45 D(3,4,7,6)      =    179.942463    -0.000062    -0.414872   179.527591
	   46 D(3,4,7,10)     =    -60.018830    -0.000030    -0.175154   -60.193983
	   47 D(4,7,10,8)     =   -179.965470     0.000066     0.374822  -179.590648
	   48 D(4,7,10,9)     =    -60.009777    -0.000029    -0.246138   -60.255914
	   49 D(4,7,10,14)    =     59.975282     0.000045     0.183839    60.159122
	   50 D(5,7,10,8)     =     60.085655    -0.000007    -0.055631    60.030024
	   51 D(5,7,10,9)     =   -179.958653    -0.000102    -0.676590  -180.635242
	   52 D(5,7,10,14)    =    -59.973593    -0.000029    -0.246613   -60.220206
	   53 D(6,7,10,8)     =    -59.884544     0.000087     0.561459   -59.323085
	   54 D(6,7,10,9)     =     60.071149    -0.000008    -0.059500    60.011649
	   55 D(6,7,10,14)    =   -179.943792     0.000065     0.370477  -179.573315
	   56 D(7,10,14,11)   =    179.947190    -0.000024    -0.166399   179.780791
	   57 D(7,10,14,12)   =     60.004845    -0.000010    -0.084325    59.920520
	   58 D(7,10,14,13)   =    -59.988058    -0.000030    -0.180217   -60.168275
	   59 D(8,10,14,11)   =     59.902549    -0.000056    -0.402341    59.500208
	   60 D(8,10,14,12)   =    -60.039796    -0.000042    -0.320268   -60.360064
	   61 D(8,10,14,13)   =    179.967301    -0.000062    -0.416160   179.551142
	   62 D(9,10,14,11)   =    -60.064903     0.000037     0.222856   -59.842047
	   63 D(9,10,14,12)   =    179.992752     0.000051     0.304929   180.297681
	   64 D(9,10,14,13)   =     59.999849     0.000031     0.209037    60.208886
	 ---------------------------------------------------------------------------
	 Forces used to impose fixed constraints are not included.
	  Forces zeroed: 49 

  ==> Convergence Check <==

  Measures of convergence in internal coordinates in au.
  Criteria marked as inactive (o), active & met (*), and active & unmet ( ).
  --------------------------------------------------------------------------------------------- ~
   Step     Total Energy     Delta E     MAX Force     RMS Force      MAX Disp      RMS Disp    ~
  --------------------------------------------------------------------------------------------- ~
    Convergence Criteria    1.00e-06 *    3.00e-04 *             o    1.20e-03 *             o  ~
  --------------------------------------------------------------------------------------------- ~
      1    -157.83564486   -1.58e+02      2.37e-02      8.53e-03 o    3.87e-02      1.26e-02 o  ~
  ---------------------------------------------------------------------------------------------

	Writing optimization data to binary file.
	Structure for next step:
	Cartesian Geometry (in Angstrom)
	    H    -1.9296305723   0.2333151117   0.8035018998
	    H    -1.7588763844   1.8849779836   0.2113732738
	    H    -1.5095954531   0.5294396177  -0.8798712471
	    C    -1.3754657028   0.8759974241   0.1332421392
	    H     0.6615015071   1.5029154329  -0.1624965331
	    H     0.2278670113   1.2118768416   1.5264253234
	    C     0.1182960850   0.8530250186   0.5113564312
	    H     1.7539345702  -0.5349526962   0.6989013679
	    H     0.1736863677  -1.2175236599   1.0998681860
	    C     0.7092610677  -0.5701773738   0.4179966175
	    H     1.0219067445  -2.1358037902  -1.0400696960
	    H     1.1332243360  -0.5053655834  -1.6982841866
	    H    -0.4385874750  -1.1950577875  -1.3095904024
	    C     0.5966098726  -1.1419935325  -1.0077124623
			--------------------------
			 OPTKING Finished Execution 
			--------------------------

    Structure for next step:
    Molecular point group: c1
    Full point group: C1

    Geometry (in Angstrom), charge = 0, multiplicity = 1:

    H           -1.928160938640     0.233758133732     0.805181013254
    H           -1.757406750677     1.885421005716     0.213052387337
    H           -1.508125819430     0.529882639818    -0.878192133642
    C           -1.373996069057     0.876440446193     0.134921252687
    H            0.662971140795     1.503358454928    -0.160817419613
    H            0.229336645042     1.212319863638     1.528104436873
    C            0.119765718719     0.853468040686     0.513035544712
    H            1.755404203949    -0.534509674123     0.700580481421
    H            0.175156001396    -1.217080637860     1.101547299518
    C            0.710730701413    -0.569734351732     0.419675731033
    H            1.023376378211    -2.135360768093    -1.038390582539
    H            1.134693969725    -0.504922561355    -1.696605073084
    H           -0.437117841269    -1.194614765407    -1.307911288907
    C            0.598079506263    -1.141550510427    -1.006033348762

gradient() will perform analytic gradient computation.
    SCF Algorithm Type (re)set to DF.

*** tstart() called on lski1497
*** at Thu Feb 16 16:39:49 2017


         ---------------------------------------------------------
                                   SCF
            by Justin Turney, Rob Parrish, and Andy Simmonett
                              RHF Reference
                        1 Threads,   1000 MiB Core
         ---------------------------------------------------------

  ==> Geometry <==

    Molecular point group: c1
    Full point group: C1

    Geometry (in Angstrom), charge = 0, multiplicity = 1:

       Center              X                  Y                   Z               Mass       
    ------------   -----------------  -----------------  -----------------  -----------------
           H         -1.928160938640     0.233758133732     0.805181013254     1.007825032070
           H         -1.757406750677     1.885421005716     0.213052387337     1.007825032070
           H         -1.508125819430     0.529882639818    -0.878192133642     1.007825032070
           C         -1.373996069057     0.876440446193     0.134921252687    12.000000000000
           H          0.662971140795     1.503358454928    -0.160817419613     1.007825032070
           H          0.229336645042     1.212319863638     1.528104436873     1.007825032070
           C          0.119765718719     0.853468040686     0.513035544712    12.000000000000
           H          1.755404203949    -0.534509674123     0.700580481421     1.007825032070
           H          0.175156001396    -1.217080637860     1.101547299518     1.007825032070
           C          0.710730701413    -0.569734351732     0.419675731033    12.000000000000
           H          1.023376378211    -2.135360768093    -1.038390582539     1.007825032070
           H          1.134693969725    -0.504922561355    -1.696605073084     1.007825032070
           H         -0.437117841269    -1.194614765407    -1.307911288907     1.007825032070
           C          0.598079506263    -1.141550510427    -1.006033348762    12.000000000000

  Running in c1 symmetry.

  Rotational constants: A =      0.42545  B =      0.16733  C =      0.13934 [cm^-1]
  Rotational constants: A =  12754.76775  B =   5016.34698  C =   4177.42740 [MHz]
  Nuclear repulsion =  133.364495517906505

  Charge       = 0
  Multiplicity = 1
  Electrons    = 34
  Nalpha       = 17
  Nbeta        = 17

  ==> Algorithm <==

  SCF Algorithm Type is DF.
  DIIS enabled.
  MOM disabled.
  Fractional occupation disabled.
  Guess Type is READ.
  Energy threshold   = 1.00e-10
  Density threshold  = 1.00e-10
  Integral threshold = 0.00e+00

  ==> Primary Basis <==

  Basis Set: 6-31G(D)
    Number of shells: 44
    Number of basis function: 80
    Number of Cartesian functions: 80
    Spherical Harmonics?: false
    Max angular momentum: 2

  ==> Pre-Iterations <==

   -------------------------------------------------------
    Irrep   Nso     Nmo     Nalpha   Nbeta   Ndocc  Nsocc
   -------------------------------------------------------
     A         80      80       0       0       0       0
   -------------------------------------------------------
    Total      80      80      17      17      17       0
   -------------------------------------------------------

  ==> Integral Setup <==

  ==> DFJK: Density-Fitted J/K Matrices <==

    J tasked:                  Yes
    K tasked:                  Yes
    wK tasked:                  No
    OpenMP threads:              1
    Integrals threads:           1
    Memory (MB):               715
    Algorithm:                Core
    Integral Cache:           NONE
    Schwarz Cutoff:          1E-12
    Fitting Condition:       1E-12

   => Auxiliary Basis Set <=

  Basis Set: 
    Number of shells: 186
    Number of basis function: 574
    Number of Cartesian functions: 574
    Spherical Harmonics?: false
    Max angular momentum: 3

  Minimum eigenvalue in the overlap matrix is 5.3624955914E-03.
  Using Symmetric Orthogonalization.
  SCF Guess was Projection but file not found.
  Switching over to SAD guess.

  SCF Guess: Superposition of Atomic Densities via on-the-fly atomic UHF.

  ==> Iterations <==

                           Total Energy        Delta E     RMS |[F,P]|

   @DF-RHF iter   0:  -158.88057781080516   -1.58881e+02   4.65168e-02 
   @DF-RHF iter   1:  -157.20330881362713    1.67727e+00   3.96949e-03 
   @DF-RHF iter   2:  -157.28566897085904   -8.23602e-02   1.10415e-03 DIIS
   @DF-RHF iter   3:  -157.29382378005823   -8.15481e-03   2.52859e-04 DIIS
   @DF-RHF iter   4:  -157.29419675842763   -3.72978e-04   8.07353e-05 DIIS
   @DF-RHF iter   5:  -157.29423327462331   -3.65162e-05   1.37950e-05 DIIS
   @DF-RHF iter   6:  -157.29423472746208   -1.45284e-06   2.07342e-06 DIIS
   @DF-RHF iter   7:  -157.29423475093154   -2.34695e-08   6.63650e-07 DIIS
   @DF-RHF iter   8:  -157.29423475295556   -2.02402e-09   1.18746e-07 DIIS
   @DF-RHF iter   9:  -157.29423475305327   -9.77138e-11   2.97734e-08 DIIS
   @DF-RHF iter  10:  -157.29423475306004   -6.76437e-12   6.30025e-09 DIIS
   @DF-RHF iter  11:  -157.29423475306072   -6.82121e-13   1.75411e-09 DIIS
   @DF-RHF iter  12:  -157.29423475306061    1.13687e-13   3.87471e-10 DIIS
   @DF-RHF iter  13:  -157.29423475306038    2.27374e-13   7.59419e-11 DIIS

  ==> Post-Iterations <==

    Orbital Energies (a.u.)
    -----------------------

    Doubly Occupied:                                                      

       1A    -11.212748     2A    -11.212180     3A    -11.204987  
       4A    -11.204939     5A     -1.069280     6A     -0.973366  
       7A     -0.874266     8A     -0.777006     9A     -0.629147  
      10A     -0.622736    11A     -0.576029    12A     -0.532019  
      13A     -0.531817    14A     -0.504382    15A     -0.467212  
      16A     -0.455985    17A     -0.452691  

    Virtual:                                                              

      18A      0.231239    19A      0.279220    20A      0.285527  
      21A      0.299715    22A      0.317374    23A      0.317866  
      24A      0.339925    25A      0.348086    26A      0.359763  
      27A      0.382989    28A      0.407127    29A      0.409270  
      30A      0.451737    31A      0.711908    32A      0.724540  
      33A      0.730805    34A      0.743525    35A      0.766756  
      36A      0.839995    37A      0.868464    38A      0.923059  
      39A      0.950624    40A      0.997870    41A      1.101078  
      42A      1.111072    43A      1.162640    44A      1.165867  
      45A      1.183643    46A      1.193426    47A      1.201507  
      48A      1.227286    49A      1.237639    50A      1.254761  
      51A      1.260357    52A      1.287513    53A      1.303721  
      54A      1.550547    55A      1.707600    56A      1.716195  
      57A      1.824814    58A      1.862471    59A      1.968477  
      60A      2.032295    61A      2.172390    62A      2.255581  
      63A      2.302880    64A      2.306476    65A      2.346713  
      66A      2.443568    67A      2.465578    68A      2.640240  
      69A      2.651776    70A      2.652324    71A      2.684171  
      72A      2.743956    73A      2.784513    74A      2.938323  
      75A      2.951351    76A      3.077161    77A      4.564391  
      78A      4.687259    79A      4.817610    80A      4.937079  

    Final Occupation by Irrep:
              A 
    DOCC [    17 ]

  Energy converged.

  @DF-RHF Final Energy:  -157.29423475306038

   => Energetics <=

    Nuclear Repulsion Energy =            133.3644955179065050
    One-Electron Energy =                -474.7158839950586753
    Two-Electron Energy =                 184.0571537240919326
    DFT Exchange-Correlation Energy =       0.0000000000000000
    Empirical Dispersion Energy =           0.0000000000000000
    PCM Polarization Energy =               0.0000000000000000
    EFP Energy =                            0.0000000000000000
    Total Energy =                       -157.2942347530602376


  Saving occupied orbitals to File 180.

*** tstop() called on lski1497 at Thu Feb 16 16:39:55 2017
Module time:
	user time   =       4.89 seconds =       0.08 minutes
	system time =       0.13 seconds =       0.00 minutes
	total time  =          6 seconds =       0.10 minutes
Total time:
	user time   =      28.30 seconds =       0.47 minutes
	system time =       0.83 seconds =       0.01 minutes
	total time  =         33 seconds =       0.55 minutes


Properties will be evaluated at   0.000000,   0.000000,   0.000000 Bohr

Properties computed using the SCF density matrix

  Nuclear Dipole Moment: (a.u.)
     X:    -0.6092      Y:    -0.2079      Z:    -0.6876

  Electronic Dipole Moment: (a.u.)
     X:     0.6287      Y:     0.2141      Z:     0.7093

  Dipole Moment: (a.u.)
     X:     0.0195      Y:     0.0062      Z:     0.0217     Total:     0.0298

  Dipole Moment: (Debye)
     X:     0.0496      Y:     0.0158      Z:     0.0552     Total:     0.0758


  //>>>>>>>>>>>>>>>>>>>>>>>>>>>>>>>>>>>//
  //               DFMP2               //
  //<<<<<<<<<<<<<<<<<<<<<<<<<<<<<<<<<<<//


*** tstart() called on lski1497
*** at Thu Feb 16 16:39:55 2017


*** tstop() called on lski1497 at Thu Feb 16 16:39:55 2017
Module time:
	user time   =       0.54 seconds =       0.01 minutes
	system time =       0.00 seconds =       0.00 minutes
	total time  =          0 seconds =       0.00 minutes
Total time:
	user time   =      28.86 seconds =       0.48 minutes
	system time =       0.83 seconds =       0.01 minutes
	total time  =         33 seconds =       0.55 minutes
	 --------------------------------------------------------
	                          DF-MP2                         
	      2nd-Order Density-Fitted Moller-Plesset Theory     
	              RMP2 Wavefunction,   1 Threads             
	                                                         
	        Rob Parrish, Justin Turney, Andy Simmonett,      
	           Ed Hohenstein, and C. David Sherrill          
	 --------------------------------------------------------

   => Auxiliary Basis Set <=

  Basis Set: 
    Number of shells: 132
    Number of basis function: 364
    Number of Cartesian functions: 414
    Spherical Harmonics?: true
    Max angular momentum: 3

	 --------------------------------------------------------
	                 NBF =    80, NAUX =   364
	 --------------------------------------------------------
	   CLASS    FOCC     OCC    AOCC    AVIR     VIR    FVIR
	   PAIRS       0      17      17      63      63       0
	 --------------------------------------------------------

DGAS Warning! /src/lib/libfock/apps.cc:80 is not currently checking restricted

         ------------------------------------------------------------
                                     CPHF                           
                                  Rob Parrish                       
         ------------------------------------------------------------

  ==> Geometry <==

    Molecular point group: c1
    Full point group: C1

    Geometry (in Angstrom), charge = 0, multiplicity = 1:

       Center              X                  Y                   Z               Mass       
    ------------   -----------------  -----------------  -----------------  -----------------
           H         -1.928160938640     0.233758133732     0.805181013254     1.007825032070
           H         -1.757406750677     1.885421005716     0.213052387337     1.007825032070
           H         -1.508125819430     0.529882639818    -0.878192133642     1.007825032070
           C         -1.373996069057     0.876440446193     0.134921252687    12.000000000000
           H          0.662971140795     1.503358454928    -0.160817419613     1.007825032070
           H          0.229336645042     1.212319863638     1.528104436873     1.007825032070
           C          0.119765718719     0.853468040686     0.513035544712    12.000000000000
           H          1.755404203949    -0.534509674123     0.700580481421     1.007825032070
           H          0.175156001396    -1.217080637860     1.101547299518     1.007825032070
           C          0.710730701413    -0.569734351732     0.419675731033    12.000000000000
           H          1.023376378211    -2.135360768093    -1.038390582539     1.007825032070
           H          1.134693969725    -0.504922561355    -1.696605073084     1.007825032070
           H         -0.437117841269    -1.194614765407    -1.307911288907     1.007825032070
           C          0.598079506263    -1.141550510427    -1.006033348762    12.000000000000

  Nuclear repulsion =  133.364495517906505
  Reference energy  = -157.294234753060380

  ==> Basis Set <==

  Basis Set: 6-31G(D)
    Number of shells: 44
    Number of basis function: 80
    Number of Cartesian functions: 80
    Spherical Harmonics?: false
    Max angular momentum: 2

  ==> CGRSolver (by Rob Parrish) <==

   Number of roots    =         1
   Preconditioning    =    JACOBI
   Convergence cutoff =     1E-06
   Maximum iterations =       100

  ==> CPHFRHamiltonian (by Rob Parrish) <== 

  ==> DFJK: Density-Fitted J/K Matrices <==

    J tasked:                  Yes
    K tasked:                  Yes
    wK tasked:                  No
    OpenMP threads:              1
    Integrals threads:           1
    Memory (MB):               715
    Algorithm:                Core
    Integral Cache:           NONE
    Schwarz Cutoff:          1E-12
    Fitting Condition:       1E-12

   => Auxiliary Basis Set <=

  Basis Set: 
    Number of shells: 186
    Number of basis function: 574
    Number of Cartesian functions: 574
    Spherical Harmonics?: false
    Max angular momentum: 3

  ==> CPHF Iterations <==

  => Iterations <=

             Iter  Converged  Remaining    Residual
  CGR           1          0          1   7.481E-02
  CGR           2          0          1   8.595E-03
  CGR           3          0          1   2.322E-03
  CGR           4          0          1   4.339E-04
  CGR           5          0          1   7.740E-05
  CGR           6          0          1   1.434E-05
  CGR           7          0          1   1.924E-06
  CGR           8          1          0   4.340E-07

    CGRSolver converged.

  ==> DFCorrGrad: Density-Fitted Correlated Gradients <==

    OpenMP threads:              1
    Integrals threads:           1
    Memory (MB):               715
    Schwarz Cutoff:          0E+00
    Fitting Condition:       1E-12

   => Auxiliary Basis Set <=

  Basis Set: 
    Number of shells: 186
    Number of basis function: 510
    Number of Cartesian functions: 574
    Spherical Harmonics?: true
    Max angular momentum: 3

	-----------------------------------------------------------
	 ==================> DF-MP2 Energies <==================== 
	-----------------------------------------------------------
	 Reference Energy          =    -157.2942347530603797 [Eh]
	 Singles Energy            =      -0.0000000000000000 [Eh]
	 Same-Spin Energy          =      -0.1246960495105927 [Eh]
	 Opposite-Spin Energy      =      -0.4216720379829504 [Eh]
	 Correlation Energy        =      -0.5463680874935430 [Eh]
	 Total Energy              =    -157.8406028405539132 [Eh]
	-----------------------------------------------------------
	 ================> DF-SCS-MP2 Energies <================== 
	-----------------------------------------------------------
	 SCS Same-Spin Scale       =       0.3333333333333333 [-]
	 SCS Opposite-Spin Scale   =       1.2000000000000000 [-]
	 SCS Same-Spin Energy      =      -0.0415653498368642 [Eh]
	 SCS Opposite-Spin Energy  =      -0.5060064455795404 [Eh]
	 SCS Correlation Energy    =      -0.5475717954164047 [Eh]
	 SCS Total Energy          =    -157.8418065484767965 [Eh]
	-----------------------------------------------------------


  -Total Gradient:
     Atom            X                  Y                   Z
    ------   -----------------  -----------------  -----------------
       1        0.006427477066     0.004595120106    -0.004117018038
       2        0.005192504142    -0.006102420953    -0.000213944676
       3        0.004361488155     0.000792402202     0.007277480151
       4       -0.019185751410    -0.003114356903    -0.005913344856
       5       -0.006091688640    -0.007213766723     0.002689317394
       6       -0.003226848255    -0.006002960844    -0.006851181940
       7        0.012943303700     0.020658663439     0.005642230965
       8       -0.007582722695     0.002232601409    -0.005394912129
       9        0.001572938564     0.005741994675    -0.008055764058
      10        0.008969328869    -0.013297102058     0.019036850431
      11       -0.002911595969     0.007446118024     0.002881992240
      12       -0.003503669950    -0.003566540614     0.007106794770
      13        0.006094419658     0.002919245464     0.004614038110
      14       -0.003059183235    -0.005088997224    -0.018702538363


			-----------------------------------------
			 OPTKING 2.0: for geometry optimizations 
			  - R.A. King,  Bethel University        
			-----------------------------------------

	Previous internal coordinate definitions found.
	---Fragment 1 Geometry and Gradient---
	 H          -3.6436961142        0.4417388541        1.5215716024
	 H          -3.3210174629        3.5629293460        0.4026106640
	 H          -2.8499447727        1.0013330718       -1.6595426246
	 C          -2.5964762782        1.6562324151        0.2549642171
	 H           1.2528338901        2.8409357594       -0.3039008805
	 H           0.4333834514        2.2909525277        2.8876988881
	 C           0.2263244085        1.6128208601        0.9694966759
	 H           3.3172331980       -1.0100768995        1.3239052439
	 H           0.3309968732       -2.2999490872        2.0816227185
	 C           1.3430863799       -1.0766418933        0.7930721963
	 H           1.9339010857       -4.0352470466       -1.9622738200
	 H           2.1442608474       -0.9541653593       -3.2061189438
	 H          -0.8260330078       -2.2574947409       -2.4715941421
	 C           1.1302064725       -2.1572178316       -1.9011275097
	             0.0064274771        0.0045951201       -0.0041170180
	             0.0051925041       -0.0061024210       -0.0002139447
	             0.0043614882        0.0007924022        0.0072774802
	            -0.0191857514       -0.0031143569       -0.0059133449
	            -0.0060916886       -0.0072137667        0.0026893174
	            -0.0032268483       -0.0060029608       -0.0068511819
	             0.0129433037        0.0206586634        0.0056422310
	            -0.0075827227        0.0022326014       -0.0053949121
	             0.0015729386        0.0057419947       -0.0080557641
	             0.0089693289       -0.0132971021        0.0190368504
	            -0.0029115960        0.0074461180        0.0028819922
	            -0.0035036700       -0.0035665406        0.0071067948
	             0.0060944197        0.0029192455        0.0046140381
	            -0.0030591832       -0.0050889972       -0.0187025384

	---Fragment 1 Intrafragment Coordinates---
	 - Coordinate -           - BOHR/RAD -       - ANG/DEG -
	 R(1,4)           =         2.043516	       1.081382
	 R(2,4)           =         2.045056	       1.082197
	 R(3,4)           =         2.039234	       1.079116
	 R(4,7)           =         2.912155	       1.541046
	 R(5,7)           =         2.045368	       1.082362
	 R(6,7)           =         2.045052	       1.082195
	 R(7,10)          =         2.917446	       1.543846
	 R(8,10)          =         2.045353	       1.082354
	 R(9,10)          =         2.044790	       1.082057
	 R(10,14)         =         2.910614	       1.540231
	 R(11,14)         =         2.043687	       1.081473
	 R(12,14)         =         2.044173	       1.081730
	 R(13,14)         =         2.040186	       1.079620
	 B(1,4,2)         =         1.904769	     109.135252
	 B(1,4,3)         =         1.904290	     109.107788
	 B(1,4,7)         =         1.913247	     109.620990
	 B(2,4,3)         =         1.899870	     108.854527
	 B(2,4,7)         =         1.917291	     109.852668
	 B(3,4,7)         =         1.924154	     110.245880
	 B(4,7,5)         =         1.901559	     108.951280
	 B(4,7,6)         =         1.900055	     108.865156
	 B(4,7,10)        =         1.949748	     111.712343
	 B(5,7,6)         =         1.911386	     109.514350
	 B(5,7,10)        =         1.900495	     108.890335
	 B(6,7,10)        =         1.900379	     108.883704
	 B(7,10,8)        =         1.900503	     108.890798
	 B(7,10,9)        =         1.900680	     108.900948
	 B(7,10,14)       =         1.950043	     111.729258
	 B(8,10,9)        =         1.910971	     109.490564
	 B(8,10,14)       =         1.899598	     108.838961
	 B(9,10,14)       =         1.901811	     108.965717
	 B(10,14,11)      =         1.917812	     109.882530
	 B(10,14,12)      =         1.913626	     109.642700
	 B(10,14,13)      =         1.925382	     110.316258
	 B(11,14,12)      =         1.903541	     109.064882
	 B(11,14,13)      =         1.900268	     108.877337
	 B(12,14,13)      =         1.902951	     109.031059
	 D(1,4,7,5)       =        -3.136784	    -179.724504
	 D(1,4,7,6)       =        -1.053247	     -60.346595
	 D(1,4,7,10)      =         1.046008	      59.931831
	 D(2,4,7,5)       =        -1.043875	     -59.809637
	 D(2,4,7,6)       =         1.039662	      59.568272
	 D(2,4,7,10)      =         3.138917	     179.846698
	 D(3,4,7,5)       =         1.049810	      60.149682
	 D(3,4,7,6)       =         3.133348	     179.527591
	 D(3,4,7,10)      =        -1.050583	     -60.193983
	 D(4,7,10,8)      =        -3.134448	    -179.590648
	 D(4,7,10,9)      =        -1.051664	     -60.255914
	 D(4,7,10,14)     =         1.049975	      60.159122
	 D(5,7,10,8)      =         1.047722	      60.030024
	 D(5,7,10,9)      =         3.130506	     179.364758
	 D(5,7,10,14)     =        -1.051041	     -60.220206
	 D(6,7,10,8)      =        -1.035383	     -59.323085
	 D(6,7,10,9)      =         1.047401	      60.011649
	 D(6,7,10,14)     =        -3.134146	    -179.573315
	 D(7,10,14,11)    =         3.137767	     179.780791
	 D(7,10,14,12)    =         1.045810	      59.920520
	 D(7,10,14,13)    =        -1.050135	     -60.168275
	 D(8,10,14,11)    =         1.038475	      59.500208
	 D(8,10,14,12)    =        -1.053482	     -60.360064
	 D(8,10,14,13)    =         3.133759	     179.551142
	 D(9,10,14,11)    =        -1.044441	     -59.842047
	 D(9,10,14,12)    =        -3.136397	    -179.702319
	 D(9,10,14,13)    =         1.050843	      60.208886

	Current energy   :      -157.8406028406

	Energy change for the previous step:
		Projected    :        -0.0067820768
		Actual       :        -0.0049579804

	Performing BFGS update.
	Previous computed or guess Hessian on step 1.
	Steps to be used in Hessian update: 1
	Adding user-defined constraint: Fragment 1; Coordinate 49:
		Value =     1.049975; Fixed value    =     1.047200
		Force =    -0.001457; Force constant =     0.525000
	Removing off-diagonal coupling between coordinate 49 and others.
	Taking RFO optimization step.
	Going to follow RFO solution 1.
	Using RFO vector 1.

	Determining step-restricting scale parameter for RS-RFO.
	Maximum step size allowed    0.10000

	 Iter      |step|        alpha        rfo_root  
	------------------------------------------------
	    0     0.18605       1.00000           1
	    1     0.15208       3.98456           1
	    2     0.12218      12.70920           1
	    3     0.10584      23.00645           1
	    4     0.10057      27.90192           1
	    5     0.10001      28.48539           1
	------------------------------------------------
	Norm of target step-size    0.10001
	Projected energy change by RFO approximation:        -0.0029089415

	Back-transformation to cartesian coordinates...
	Could not converge backtransformation.
	Using first guess instead.

	--- Internal Coordinate Step in ANG or DEG, aJ/ANG or AJ/DEG ---
	 ---------------------------------------------------------------------------
	   Coordinate                Previous        Force       Change         New 
	   ----------                --------       ------       ------       ------
	    1 R(1,4)          =      1.081382     0.070660     0.010926     1.092308
	    2 R(2,4)          =      1.082197     0.062158     0.009422     1.091619
	    3 R(3,4)          =      1.079116     0.062853     0.011286     1.090402
	    4 R(4,7)          =      1.541046    -0.031117    -0.008079     1.532967
	    5 R(5,7)          =      1.082362     0.074667     0.011591     1.093953
	    6 R(6,7)          =      1.082195     0.072035     0.010917     1.093111
	    7 R(7,10)         =      1.543846    -0.025371    -0.009281     1.534565
	    8 R(8,10)         =      1.082354     0.071234     0.010806     1.093161
	    9 R(9,10)         =      1.082057     0.076539     0.011847     1.093904
	   10 R(10,14)        =      1.540231    -0.028072    -0.007488     1.532743
	   11 R(11,14)        =      1.081473     0.066518     0.010029     1.091501
	   12 R(12,14)        =      1.081730     0.068991     0.010684     1.092414
	   13 R(13,14)        =      1.079620     0.059956     0.010864     1.090484
	   14 B(1,4,2)        =    109.135252    -0.000203    -0.664055   108.471197
	   15 B(1,4,3)        =    109.107788    -0.000209    -0.696651   108.411136
	   16 B(1,4,7)        =    109.620990     0.000165     0.628002   110.248992
	   17 B(2,4,3)        =    108.854527    -0.000261    -0.712208   108.142319
	   18 B(2,4,7)        =    109.852668     0.000179     0.540168   110.392835
	   19 B(3,4,7)        =    110.245880     0.000317     0.847918   111.093798
	   20 B(4,7,5)        =    108.951280    -0.000119     0.017460   108.968740
	   21 B(4,7,6)        =    108.865156    -0.000167    -0.058841   108.806316
	   22 B(4,7,10)       =    111.712343     0.000675     1.169204   112.881546
	   23 B(5,7,6)        =    109.514350    -0.000059    -0.778012   108.736338
	   24 B(5,7,10)       =    108.890335    -0.000159    -0.152903   108.737431
	   25 B(6,7,10)       =    108.883704    -0.000179    -0.249781   108.633923
	   26 B(7,10,8)       =    108.890798    -0.000181    -0.255901   108.634897
	   27 B(7,10,9)       =    108.900948    -0.000160    -0.157026   108.743922
	   28 B(7,10,14)      =    111.729258     0.000675     1.162986   112.892244
	   29 B(8,10,9)       =    109.490564    -0.000058    -0.772542   108.718023
	   30 B(8,10,14)      =    108.838961    -0.000164    -0.046546   108.792416
	   31 B(9,10,14)      =    108.965717    -0.000120     0.015840   108.981557
	   32 B(10,14,11)     =    109.882530     0.000177     0.527818   110.410349
	   33 B(10,14,12)     =    109.642700     0.000159     0.610604   110.253304
	   34 B(10,14,13)     =    110.316258     0.000308     0.814457   111.130715
	   35 B(11,14,12)     =    109.064882    -0.000195    -0.633198   108.431684
	   36 B(11,14,13)     =    108.877337    -0.000260    -0.715709   108.161628
	   37 B(12,14,13)     =    109.031059    -0.000200    -0.661053   108.370005
	   38 D(1,4,7,5)      =   -179.724504     0.000029     0.449534  -179.274970
	   39 D(1,4,7,6)      =    -60.346595    -0.000026    -0.512529   -60.859125
	   40 D(1,4,7,10)     =     59.931831    -0.000005    -0.120807    59.811024
	   41 D(2,4,7,5)      =    -59.809637     0.000021     0.364040   -59.445596
	   42 D(2,4,7,6)      =     59.568272    -0.000034    -0.598023    58.970249
	   43 D(2,4,7,10)     =    179.846698    -0.000013    -0.206300   179.640397
	   44 D(3,4,7,5)      =     60.149682     0.000019     0.368943    60.518625
	   45 D(3,4,7,6)      =    179.527591    -0.000036    -0.593120   178.934471
	   46 D(3,4,7,10)     =    -60.193983    -0.000015    -0.201397   -60.395381
	   47 D(4,7,10,8)     =   -179.590648     0.000036     0.626103  -178.964545
	   48 D(4,7,10,9)     =    -60.255914    -0.000026    -0.540370   -60.796284
	   49 D(4,7,10,14)    =     60.159122     0.000013     0.117853    60.276975
	   50 D(5,7,10,8)     =     60.030024    -0.000003    -0.040130    59.989894
	   51 D(5,7,10,9)     =    179.364758    -0.000065    -1.206603   178.158154
	   52 D(5,7,10,14)    =    -60.220206    -0.000026    -0.548380   -60.768586
	   53 D(6,7,10,8)     =    -59.323085     0.000058     1.127003   -58.196082
	   54 D(6,7,10,9)     =     60.011649    -0.000003    -0.039471    59.972178
	   55 D(6,7,10,14)    =   -179.573315     0.000036     0.618753  -178.954563
	   56 D(7,10,14,11)   =    179.780791    -0.000012    -0.187138   179.593653
	   57 D(7,10,14,12)   =     59.920520    -0.000005    -0.121053    59.799467
	   58 D(7,10,14,13)   =    -60.168275    -0.000016    -0.213971   -60.382246
	   59 D(8,10,14,11)   =     59.500208    -0.000033    -0.575217    58.924991
	   60 D(8,10,14,12)   =    -60.360064    -0.000025    -0.509131   -60.869195
	   61 D(8,10,14,13)   =    179.551142    -0.000036    -0.602050   178.949091
	   62 D(9,10,14,11)   =    -59.842047     0.000021     0.373871   -59.468177
	   63 D(9,10,14,12)   =   -179.702319     0.000029     0.439956  -179.262363
	   64 D(9,10,14,13)   =     60.208886     0.000018     0.347037    60.555924
	 ---------------------------------------------------------------------------
	 Forces used to impose fixed constraints are not included.
	  Forces zeroed: 49 

  ==> Convergence Check <==

  Measures of convergence in internal coordinates in au.
  Criteria marked as inactive (o), active & met (*), and active & unmet ( ).
  ---------------------------------------------------------------------------------------------
   Step     Total Energy     Delta E     MAX Force     RMS Force      MAX Disp      RMS Disp   
  ---------------------------------------------------------------------------------------------
    Convergence Criteria    1.00e-06 *    3.00e-04 *             o    1.20e-03 *             o
  ---------------------------------------------------------------------------------------------
      2    -157.84060284   -4.96e-03      9.29e-03      4.15e-03 o    2.24e-02      1.25e-02 o  ~
  ---------------------------------------------------------------------------------------------

	Writing optimization data to binary file.
	Structure for next step:
	Cartesian Geometry (in Angstrom)
	    H    -1.9507849283   0.2441784448   0.8104933678
	    H    -1.7596791283   1.9094527100   0.2354543245
	    H    -1.5387315110   0.5590148301  -0.8823009586
	    C    -1.3767820837   0.8913317891   0.1435225123
	    H     0.6634357045   1.5090912143  -0.1611538603
	    H     0.2324588238   1.2024840251   1.5359313415
	    C     0.1109939690   0.8450273252   0.5100838570
	    H     1.7593227663  -0.5219051101   0.7010283673
	    H     0.1761724425  -1.2222006589   1.1039506839
	    C     0.7069212914  -0.5654502528   0.4085296744
	    H     1.0517990935  -2.1511197416  -1.0317030980
	    H     1.1462204056  -0.5190161059  -1.7143881354
	    H    -0.4275435780  -1.2309973579  -1.3274384573
	    C     0.6109035791  -1.1530157958  -1.0038613189
			--------------------------
			 OPTKING Finished Execution 
			--------------------------

    Structure for next step:
    Molecular point group: c1
    Full point group: C1

    Geometry (in Angstrom), charge = 0, multiplicity = 1:

    H           -1.950303608377     0.244316713990     0.811122570505
    H           -1.759197808379     1.909590979233     0.236083527123
    H           -1.538250191087     0.559153099320    -0.881671755948
    C           -1.376300763808     0.891470058333     0.144151714927
    H            0.663917024432     1.509229483538    -0.160524657608
    H            0.232940143667     1.202622294330     1.536560544211
    C            0.111475288920     0.845165594390     0.510713059615
    H            1.759804086219    -0.521766840863     0.701657569978
    H            0.176653762430    -1.222062389670     1.104579886534
    C            0.707402611268    -0.565311983641     0.409158877089
    H            1.052280413418    -2.150981472430    -1.031073895315
    H            1.146701725546    -0.518877836661    -1.713758932785
    H           -0.427062258110    -1.230859088673    -1.326809254589
    C            0.611384898962    -1.152877526644    -1.003232116193

gradient() will perform analytic gradient computation.
    SCF Algorithm Type (re)set to DF.

*** tstart() called on lski1497
*** at Thu Feb 16 16:40:16 2017


         ---------------------------------------------------------
                                   SCF
            by Justin Turney, Rob Parrish, and Andy Simmonett
                              RHF Reference
                        1 Threads,   1000 MiB Core
         ---------------------------------------------------------

  ==> Geometry <==

    Molecular point group: c1
    Full point group: C1

    Geometry (in Angstrom), charge = 0, multiplicity = 1:

       Center              X                  Y                   Z               Mass       
    ------------   -----------------  -----------------  -----------------  -----------------
           H         -1.950303608377     0.244316713990     0.811122570505     1.007825032070
           H         -1.759197808379     1.909590979233     0.236083527123     1.007825032070
           H         -1.538250191087     0.559153099320    -0.881671755948     1.007825032070
           C         -1.376300763808     0.891470058333     0.144151714927    12.000000000000
           H          0.663917024432     1.509229483538    -0.160524657608     1.007825032070
           H          0.232940143667     1.202622294330     1.536560544211     1.007825032070
           C          0.111475288920     0.845165594390     0.510713059615    12.000000000000
           H          1.759804086219    -0.521766840863     0.701657569978     1.007825032070
           H          0.176653762430    -1.222062389670     1.104579886534     1.007825032070
           C          0.707402611268    -0.565311983641     0.409158877089    12.000000000000
           H          1.052280413418    -2.150981472430    -1.031073895315     1.007825032070
           H          1.146701725546    -0.518877836661    -1.713758932785     1.007825032070
           H         -0.427062258110    -1.230859088673    -1.326809254589     1.007825032070
           C          0.611384898962    -1.152877526644    -1.003232116193    12.000000000000

  Running in c1 symmetry.

  Rotational constants: A =      0.43049  B =      0.16479  C =      0.13795 [cm^-1]
  Rotational constants: A =  12905.74237  B =   4940.34532  C =   4135.78274 [MHz]
  Nuclear repulsion =  132.942689990359867

  Charge       = 0
  Multiplicity = 1
  Electrons    = 34
  Nalpha       = 17
  Nbeta        = 17

  ==> Algorithm <==

  SCF Algorithm Type is DF.
  DIIS enabled.
  MOM disabled.
  Fractional occupation disabled.
  Guess Type is READ.
  Energy threshold   = 1.00e-10
  Density threshold  = 1.00e-10
  Integral threshold = 0.00e+00

  ==> Primary Basis <==

  Basis Set: 6-31G(D)
    Number of shells: 44
    Number of basis function: 80
    Number of Cartesian functions: 80
    Spherical Harmonics?: false
    Max angular momentum: 2

  ==> Pre-Iterations <==

   -------------------------------------------------------
    Irrep   Nso     Nmo     Nalpha   Nbeta   Ndocc  Nsocc
   -------------------------------------------------------
     A         80      80       0       0       0       0
   -------------------------------------------------------
    Total      80      80      17      17      17       0
   -------------------------------------------------------

  ==> Integral Setup <==

  ==> DFJK: Density-Fitted J/K Matrices <==

    J tasked:                  Yes
    K tasked:                  Yes
    wK tasked:                  No
    OpenMP threads:              1
    Integrals threads:           1
    Memory (MB):               715
    Algorithm:                Core
    Integral Cache:           NONE
    Schwarz Cutoff:          1E-12
    Fitting Condition:       1E-12

   => Auxiliary Basis Set <=

  Basis Set: 
    Number of shells: 186
    Number of basis function: 574
    Number of Cartesian functions: 574
    Spherical Harmonics?: false
    Max angular momentum: 3

  Minimum eigenvalue in the overlap matrix is 5.3421095228E-03.
  Using Symmetric Orthogonalization.
  SCF Guess was Projection but file not found.
  Switching over to SAD guess.

  SCF Guess: Superposition of Atomic Densities via on-the-fly atomic UHF.

  ==> Iterations <==

                           Total Energy        Delta E     RMS |[F,P]|

   @DF-RHF iter   0:  -158.83704173436078   -1.58837e+02   4.61578e-02 
   @DF-RHF iter   1:  -157.20395144099260    1.63309e+00   3.95772e-03 
   @DF-RHF iter   2:  -157.28667925209643   -8.27278e-02   1.11291e-03 DIIS
   @DF-RHF iter   3:  -157.29497168512879   -8.29243e-03   2.64675e-04 DIIS
   @DF-RHF iter   4:  -157.29537060628971   -3.98921e-04   8.22727e-05 DIIS
   @DF-RHF iter   5:  -157.29540966000943   -3.90537e-05   1.36351e-05 DIIS
   @DF-RHF iter   6:  -157.29541111531742   -1.45531e-06   1.92696e-06 DIIS
   @DF-RHF iter   7:  -157.29541113691769   -2.16003e-08   6.25471e-07 DIIS
   @DF-RHF iter   8:  -157.29541113863823   -1.72054e-09   1.13089e-07 DIIS
   @DF-RHF iter   9:  -157.29541113872821   -8.99831e-11   2.74792e-08 DIIS
   @DF-RHF iter  10:  -157.29541113873390   -5.68434e-12   6.30652e-09 DIIS
   @DF-RHF iter  11:  -157.29541113873429   -3.97904e-13   1.73433e-09 DIIS
   @DF-RHF iter  12:  -157.29541113873412    1.70530e-13   3.53002e-10 DIIS
   @DF-RHF iter  13:  -157.29541113873418   -5.68434e-14   7.40858e-11 DIIS

  ==> Post-Iterations <==

    Orbital Energies (a.u.)
    -----------------------

    Doubly Occupied:                                                      

       1A    -11.215529     2A    -11.214945     3A    -11.208892  
       4A    -11.208884     5A     -1.069752     6A     -0.973046  
       7A     -0.872358     8A     -0.773002     9A     -0.626847  
      10A     -0.620129    11A     -0.573612    12A     -0.532021  
      13A     -0.529850    14A     -0.502470    15A     -0.463511  
      16A     -0.456701    17A     -0.454279  

    Virtual:                                                              

      18A      0.228674    19A      0.275900    20A      0.282869  
      21A      0.296733    22A      0.316070    23A      0.316329  
      24A      0.335601    25A      0.344278    26A      0.357698  
      27A      0.380300    28A      0.405779    29A      0.409061  
      30A      0.457957    31A      0.709105    32A      0.726673  
      33A      0.727630    34A      0.744116    35A      0.769243  
      36A      0.846470    37A      0.872442    38A      0.926870  
      39A      0.954374    40A      1.001780    41A      1.098089  
      42A      1.109709    43A      1.151115    44A      1.154644  
      45A      1.174559    46A      1.181958    47A      1.189706  
      48A      1.217332    49A      1.235040    50A      1.245114  
      51A      1.250314    52A      1.278205    53A      1.290637  
      54A      1.540570    55A      1.708478    56A      1.719259  
      57A      1.820230    58A      1.861586    59A      1.970160  
      60A      2.028045    61A      2.173067    62A      2.255077  
      63A      2.298645    64A      2.302384    65A      2.341428  
      66A      2.435729    67A      2.453971    68A      2.626086  
      69A      2.637683    70A      2.644867    71A      2.680498  
      72A      2.737110    73A      2.780350    74A      2.953388  
      75A      2.954919    76A      3.076281    77A      4.559381  
      78A      4.680411    79A      4.814872    80A      4.934439  

    Final Occupation by Irrep:
              A 
    DOCC [    17 ]

  Energy converged.

  @DF-RHF Final Energy:  -157.29541113873418

   => Energetics <=

    Nuclear Repulsion Energy =            132.9426899903598667
    One-Electron Energy =                -473.8845444900722441
    Two-Electron Energy =                 183.6464433609781395
    DFT Exchange-Correlation Energy =       0.0000000000000000
    Empirical Dispersion Energy =           0.0000000000000000
    PCM Polarization Energy =               0.0000000000000000
    EFP Energy =                            0.0000000000000000
    Total Energy =                       -157.2954111387342095


  Saving occupied orbitals to File 180.

*** tstop() called on lski1497 at Thu Feb 16 16:40:22 2017
Module time:
	user time   =       4.82 seconds =       0.08 minutes
	system time =       0.13 seconds =       0.00 minutes
	total time  =          6 seconds =       0.10 minutes
Total time:
	user time   =      51.44 seconds =       0.86 minutes
	system time =       1.45 seconds =       0.02 minutes
	total time  =         60 seconds =       1.00 minutes


Properties will be evaluated at   0.000000,   0.000000,   0.000000 Bohr

Properties computed using the SCF density matrix

  Nuclear Dipole Moment: (a.u.)
     X:    -0.6023      Y:    -0.2059      Z:    -0.6786

  Electronic Dipole Moment: (a.u.)
     X:     0.6205      Y:     0.2120      Z:     0.6988

  Dipole Moment: (a.u.)
     X:     0.0181      Y:     0.0061      Z:     0.0202     Total:     0.0278

  Dipole Moment: (Debye)
     X:     0.0460      Y:     0.0156      Z:     0.0514     Total:     0.0708


  //>>>>>>>>>>>>>>>>>>>>>>>>>>>>>>>>>>>//
  //               DFMP2               //
  //<<<<<<<<<<<<<<<<<<<<<<<<<<<<<<<<<<<//


*** tstart() called on lski1497
*** at Thu Feb 16 16:40:22 2017


*** tstop() called on lski1497 at Thu Feb 16 16:40:22 2017
Module time:
	user time   =       0.54 seconds =       0.01 minutes
	system time =       0.00 seconds =       0.00 minutes
	total time  =          0 seconds =       0.00 minutes
Total time:
	user time   =      52.00 seconds =       0.87 minutes
	system time =       1.45 seconds =       0.02 minutes
	total time  =         60 seconds =       1.00 minutes
	 --------------------------------------------------------
	                          DF-MP2                         
	      2nd-Order Density-Fitted Moller-Plesset Theory     
	              RMP2 Wavefunction,   1 Threads             
	                                                         
	        Rob Parrish, Justin Turney, Andy Simmonett,      
	           Ed Hohenstein, and C. David Sherrill          
	 --------------------------------------------------------

   => Auxiliary Basis Set <=

  Basis Set: 
    Number of shells: 132
    Number of basis function: 364
    Number of Cartesian functions: 414
    Spherical Harmonics?: true
    Max angular momentum: 3

	 --------------------------------------------------------
	                 NBF =    80, NAUX =   364
	 --------------------------------------------------------
	   CLASS    FOCC     OCC    AOCC    AVIR     VIR    FVIR
	   PAIRS       0      17      17      63      63       0
	 --------------------------------------------------------

DGAS Warning! /src/lib/libfock/apps.cc:80 is not currently checking restricted

         ------------------------------------------------------------
                                     CPHF                           
                                  Rob Parrish                       
         ------------------------------------------------------------

  ==> Geometry <==

    Molecular point group: c1
    Full point group: C1

    Geometry (in Angstrom), charge = 0, multiplicity = 1:

       Center              X                  Y                   Z               Mass       
    ------------   -----------------  -----------------  -----------------  -----------------
           H         -1.950303608377     0.244316713990     0.811122570505     1.007825032070
           H         -1.759197808379     1.909590979233     0.236083527123     1.007825032070
           H         -1.538250191087     0.559153099320    -0.881671755948     1.007825032070
           C         -1.376300763808     0.891470058333     0.144151714927    12.000000000000
           H          0.663917024432     1.509229483538    -0.160524657608     1.007825032070
           H          0.232940143667     1.202622294330     1.536560544211     1.007825032070
           C          0.111475288920     0.845165594390     0.510713059615    12.000000000000
           H          1.759804086219    -0.521766840863     0.701657569978     1.007825032070
           H          0.176653762430    -1.222062389670     1.104579886534     1.007825032070
           C          0.707402611268    -0.565311983641     0.409158877089    12.000000000000
           H          1.052280413418    -2.150981472430    -1.031073895315     1.007825032070
           H          1.146701725546    -0.518877836661    -1.713758932785     1.007825032070
           H         -0.427062258110    -1.230859088673    -1.326809254589     1.007825032070
           C          0.611384898962    -1.152877526644    -1.003232116193    12.000000000000

  Nuclear repulsion =  132.942689990359867
  Reference energy  = -157.295411138734181

  ==> Basis Set <==

  Basis Set: 6-31G(D)
    Number of shells: 44
    Number of basis function: 80
    Number of Cartesian functions: 80
    Spherical Harmonics?: false
    Max angular momentum: 2

  ==> CGRSolver (by Rob Parrish) <==

   Number of roots    =         1
   Preconditioning    =    JACOBI
   Convergence cutoff =     1E-06
   Maximum iterations =       100

  ==> CPHFRHamiltonian (by Rob Parrish) <== 

  ==> DFJK: Density-Fitted J/K Matrices <==

[...]
    Number of shells: 186
    Number of basis function: 574
    Number of Cartesian functions: 574
    Spherical Harmonics?: false
    Max angular momentum: 3

  ==> CPHF Iterations <==

  => Iterations <=

             Iter  Converged  Remaining    Residual
  CGR           1          0          1   7.652E-02
  CGR           2          0          1   8.981E-03
  CGR           3          0          1   2.426E-03
  CGR           4          0          1   4.350E-04
  CGR           5          0          1   7.982E-05
  CGR           6          0          1   1.502E-05
  CGR           7          0          1   1.964E-06
  CGR           8          1          0   4.255E-07

    CGRSolver converged.

  ==> DFCorrGrad: Density-Fitted Correlated Gradients <==

    OpenMP threads:              1
    Integrals threads:           1
    Memory (MB):               715
    Schwarz Cutoff:          0E+00
    Fitting Condition:       1E-12

   => Auxiliary Basis Set <=

  Basis Set: 
    Number of shells: 186
    Number of basis function: 510
    Number of Cartesian functions: 574
    Spherical Harmonics?: true
    Max angular momentum: 3

	-----------------------------------------------------------
	 ==================> DF-MP2 Energies <==================== 
	-----------------------------------------------------------
	 Reference Energy          =    -157.2962140248317837 [Eh]
	 Singles Energy            =      -0.0000000000000000 [Eh]
	 Same-Spin Energy          =      -0.1246805317234554 [Eh]
	 Opposite-Spin Energy      =      -0.4225059893203088 [Eh]
	 Correlation Energy        =      -0.5471865210437642 [Eh]
	 Total Energy              =    -157.8434005458755394 [Eh]
	-----------------------------------------------------------
	 ================> DF-SCS-MP2 Energies <================== 
	-----------------------------------------------------------
	 SCS Same-Spin Scale       =       0.3333333333333333 [-]
	 SCS Opposite-Spin Scale   =       1.2000000000000000 [-]
	 SCS Same-Spin Energy      =      -0.0415601772411518 [Eh]
	 SCS Opposite-Spin Energy  =      -0.5070071871843705 [Eh]
	 SCS Correlation Energy    =      -0.5485673644255223 [Eh]
	 SCS Total Energy          =    -157.8447813892572924 [Eh]
	-----------------------------------------------------------


  -Total Gradient:
     Atom            X                  Y                   Z
    ------   -----------------  -----------------  -----------------
       1        0.000001352140    -0.000001937943     0.000004511498
       2       -0.000002411652     0.000008426063    -0.000001884784
       3       -0.000012232174    -0.000004541648    -0.000010219109
       4        0.000139394307     0.000104878368    -0.000585218412
       5       -0.000018863327     0.000002879745    -0.000006905393
       6        0.000031836669    -0.000000041022     0.000011132421
       7       -0.000407722837    -0.000256026653     0.000872409037
       8        0.000005490583     0.000012808095     0.000030730412
       9       -0.000002727617    -0.000010248892    -0.000017245332
      10        0.000814962955     0.000395281071    -0.000415082617
      11        0.000001197848    -0.000009444555     0.000000159866
      12        0.000003226617     0.000003582615     0.000000869100
      13       -0.000008711052    -0.000002551196    -0.000013676214
      14       -0.000544792460    -0.000243064049     0.000130419526


			-----------------------------------------
			 OPTKING 2.0: for geometry optimizations 
			  - R.A. King,  Bethel University        
			-----------------------------------------

	Previous internal coordinate definitions found.
	---Fragment 1 Geometry and Gradient---
	 H          -3.6994413567        0.4168047374        1.4265459537
	 H          -3.3384963672        3.6295366742        0.5844695149
	 H          -2.9204954435        1.2525283479       -1.7129113143
	 C          -2.5939423502        1.7276951848        0.2693515980
	 H           1.2755420006        2.8644431541       -0.2803357400
	 H           0.4689009663        2.2897036690        2.8844411806
	 C           0.2031791132        1.5884755350        0.9533207146
	 H           3.3076487631       -0.9990613944        1.3579197161
	 H           0.3552323349       -2.3071222678        2.1122554989
	 C           1.3245073122       -1.0663860435        0.7627947957
	 H           2.1264567438       -4.0437550621       -1.9460100306
	 H           2.0561002418       -0.9784164662       -3.2725775093
	 H          -0.7929943384       -2.5216192419       -2.4586119046
	 C           1.1638088910       -2.2164460049       -1.8758817041
	             0.0000013521       -0.0000019379        0.0000045115
	            -0.0000024117        0.0000084261       -0.0000018848
	            -0.0000122322       -0.0000045416       -0.0000102191
	             0.0001393943        0.0001048784       -0.0005852184
	            -0.0000188633        0.0000028797       -0.0000069054
	             0.0000318367       -0.0000000410        0.0000111324
	            -0.0004077228       -0.0002560267        0.0008724090
	             0.0000054906        0.0000128081        0.0000307304
	            -0.0000027276       -0.0000102489       -0.0000172453
	             0.0008149630        0.0003952811       -0.0004150826
	             0.0000011978       -0.0000094446        0.0000001599
	             0.0000032266        0.0000035826        0.0000008691
	            -0.0000087111       -0.0000025512       -0.0000136762
	            -0.0005447925       -0.0002430640        0.0001304195

	---Fragment 1 Intrafragment Coordinates---
	 - Coordinate -           - BOHR/RAD -       - ANG/DEG -
	 R(1,4)           =         2.068734	       1.094727
	 R(2,4)           =         2.066558	       1.093575
	 R(3,4)           =         2.064410	       1.092438
	 R(4,7)           =         2.882895	       1.525562
	 R(5,7)           =         2.073635	       1.097321
	 R(6,7)           =         2.071607	       1.096247
	 R(7,10)          =         2.888246	       1.528394
	 R(8,10)          =         2.071607	       1.096247
	 R(9,10)          =         2.073636	       1.097321
	 R(10,14)         =         2.882894	       1.525562
	 R(11,14)         =         2.066559	       1.093576
	 R(12,14)         =         2.068734	       1.094727
	 R(13,14)         =         2.064409	       1.092438
	 B(1,4,2)         =         1.881085	     107.778234
	 B(1,4,3)         =         1.882555	     107.862437
	 B(1,4,7)         =         1.933895	     110.804011
	 B(2,4,3)         =         1.876800	     107.532737
	 B(2,4,7)         =         1.936743	     110.967174
	 B(3,4,7)         =         1.949989	     111.726152
	 B(4,7,5)         =         1.908047	     109.323026
	 B(4,7,6)         =         1.906324	     109.224307
	 B(4,7,10)        =         1.988241	     113.917840
	 B(5,7,6)         =         1.854550	     106.257877
	 B(5,7,10)        =         1.902430	     109.001216
	 B(6,7,10)        =         1.899521	     108.834546
	 B(7,10,8)        =         1.899521	     108.834517
	 B(7,10,9)        =         1.902430	     109.001185
	 B(7,10,14)       =         1.988242	     113.917887
	 B(8,10,9)        =         1.854550	     106.257863
	 B(8,10,14)       =         1.906324	     109.224304
	 B(9,10,14)       =         1.908047	     109.323051
	 B(10,14,11)      =         1.936745	     110.967315
	 B(10,14,12)      =         1.933895	     110.804047
	 B(10,14,13)      =         1.949989	     111.726134
	 B(11,14,12)      =         1.881086	     107.778262
	 B(11,14,13)      =         1.876800	     107.532710
	 B(12,14,13)      =         1.882552	     107.862268
	 D(1,4,7,5)       =         3.104258	     177.860887
	 D(1,4,7,6)       =        -1.156461	     -66.260345
	 D(1,4,7,10)      =         0.971377	      55.655829
	 D(2,4,7,5)       =        -1.089849	     -62.443769
	 D(2,4,7,6)       =         0.932617	      53.434998
	 D(2,4,7,10)      =         3.060455	     175.351173
	 D(3,4,7,5)       =         1.004524	      57.554976
	 D(3,4,7,6)       =         3.026990	     173.433744
	 D(3,4,7,10)      =        -1.128357	     -64.650082
	 D(4,7,10,8)      =        -3.102364	    -177.752379
	 D(4,7,10,9)      =        -1.086739	     -62.265534
	 D(4,7,10,14)     =         1.049231	      60.116506
	 D(5,7,10,8)      =         1.044852	      59.865625
	 D(5,7,10,9)      =         3.060478	     175.352470
	 D(5,7,10,14)     =        -1.086738	     -62.265491
	 D(6,7,10,8)      =        -0.970774	     -55.621269
	 D(6,7,10,9)      =         1.044851	      59.865576
	 D(6,7,10,14)     =        -3.102364	    -177.752385
	 D(7,10,14,11)    =         3.060455	     175.351137
	 D(7,10,14,12)    =         0.971374	      55.655643
	 D(7,10,14,13)    =        -1.128357	     -64.650068
	 D(8,10,14,11)    =         0.932616	      53.434971
	 D(8,10,14,12)    =        -1.156464	     -66.260524
	 D(8,10,14,13)    =         3.026990	     173.433766
	 D(9,10,14,11)    =        -1.089850	     -62.443792
	 D(9,10,14,12)    =         3.104255	     177.860713
	 D(9,10,14,13)    =         1.004524	      57.555003

	Current energy   :      -157.8434005459

	Energy change for the previous step:
		Projected    :        -0.0000032668
		Actual       :         0.0000011720

	Performing BFGS update.
	Previous computed or guess Hessian on step 1.
	Steps to be used in Hessian update: 7 6
	Adding user-defined constraint: Fragment 1; Coordinate 49:
		Value =     1.049231; Fixed value    =     1.047200
		Force =    -0.001371; Force constant =     0.675000
	Removing off-diagonal coupling between coordinate 49 and others.
	Taking RFO optimization step.
	Going to follow RFO solution 1.
	Using RFO vector 1.
	Norm of target step-size    0.00344
	Projected energy change by RFO approximation:        -0.0000004771

	Back-transformation to cartesian coordinates...
	Successfully converged to displaced geometry.

	--- Internal Coordinate Step in ANG or DEG, aJ/ANG or AJ/DEG ---
	 ---------------------------------------------------------------------------
	   Coordinate                Previous        Force       Change         New 
	   ----------                --------       ------       ------       ------
	    1 R(1,4)          =      1.094727    -0.000025    -0.000006     1.094721
	    2 R(2,4)          =      1.093575    -0.000069    -0.000015     1.093560
	    3 R(3,4)          =      1.092438    -0.000105    -0.000021     1.092418
	    4 R(4,7)          =      1.525562    -0.000193    -0.000039     1.525523
	    5 R(5,7)          =      1.097321     0.000032     0.000004     1.097324
	    6 R(6,7)          =      1.096247    -0.000119    -0.000024     1.096223
	    7 R(7,10)         =      1.528394     0.000095     0.000023     1.528417
	    8 R(8,10)         =      1.096247    -0.000120    -0.000024     1.096223
	    9 R(9,10)         =      1.097321     0.000032     0.000003     1.097324
	   10 R(10,14)        =      1.525562    -0.000191    -0.000038     1.525523
	   11 R(11,14)        =      1.093576    -0.000073    -0.000016     1.093560
	   12 R(12,14)        =      1.094727    -0.000025    -0.000006     1.094721
	   13 R(13,14)        =      1.092438    -0.000103    -0.000020     1.092418
	   14 B(1,4,2)        =    107.778234    -0.000000     0.000106   107.778340
	   15 B(1,4,3)        =    107.862437     0.000000     0.001598   107.864035
	   16 B(1,4,7)        =    110.804011     0.000001     0.003223   110.807234
	   17 B(2,4,3)        =    107.532737     0.000000     0.001376   107.534114
	   18 B(2,4,7)        =    110.967174     0.000000     0.001127   110.968300
	   19 B(3,4,7)        =    111.726152    -0.000001    -0.007238   111.718914
	   20 B(4,7,5)        =    109.323026    -0.000002     0.012334   109.335360
	   21 B(4,7,6)        =    109.224307     0.000002    -0.015420   109.208887
	   22 B(4,7,10)       =    113.917840    -0.000000    -0.004679   113.913161
	   23 B(5,7,6)        =    106.257877     0.000000     0.002420   106.260297
	   24 B(5,7,10)       =    109.001216    -0.000000     0.001364   109.002579
	   25 B(6,7,10)       =    108.834546     0.000001     0.004452   108.838999
	   26 B(7,10,8)       =    108.834517     0.000001     0.004491   108.839008
	   27 B(7,10,9)       =    109.001185    -0.000000     0.001393   109.002579
	   28 B(7,10,14)      =    113.917887    -0.000001    -0.004734   113.913152
	   29 B(8,10,9)       =    106.257863     0.000000     0.002408   106.260272
	   30 B(8,10,14)      =    109.224304     0.000002    -0.015407   109.208897
	   31 B(9,10,14)      =    109.323051    -0.000002     0.012323   109.335375
	   32 B(10,14,11)     =    110.967315     0.000000     0.000978   110.968294
	   33 B(10,14,12)     =    110.804047     0.000001     0.003209   110.807256
	   34 B(10,14,13)     =    111.726134    -0.000001    -0.007194   111.718940
	   35 B(11,14,12)     =    107.778262    -0.000000     0.000065   107.778327
	   36 B(11,14,13)     =    107.532710     0.000000     0.001388   107.534098
	   37 B(12,14,13)     =    107.862268     0.000000     0.001751   107.864020
	   38 D(1,4,7,5)      =    177.860887    -0.000000    -0.036706   177.824181
	   39 D(1,4,7,6)      =    -66.260345    -0.000000    -0.035550   -66.295896
	   40 D(1,4,7,10)     =     55.655829     0.000000    -0.044416    55.611413
	   41 D(2,4,7,5)      =    -62.443769    -0.000000    -0.033714   -62.477483
	   42 D(2,4,7,6)      =     53.434998    -0.000000    -0.032558    53.402440
	   43 D(2,4,7,10)     =    175.351173     0.000000    -0.041424   175.309749
	   44 D(3,4,7,5)      =     57.554976    -0.000000    -0.036067    57.518909
	   45 D(3,4,7,6)      =    173.433744    -0.000000    -0.034911   173.398832
	   46 D(3,4,7,10)     =    -64.650082     0.000000    -0.043777   -64.693859
	   47 D(4,7,10,8)     =   -177.752379    -0.000001    -0.031874  -177.784253
	   48 D(4,7,10,9)     =    -62.265534    -0.000001    -0.025813   -62.291347
	   49 D(4,7,10,14)    =     60.116506    -0.000002    -0.012107    60.104398
	   50 D(5,7,10,8)     =     59.865625    -0.000000    -0.045610    59.820015
	   51 D(5,7,10,9)     =    175.352470    -0.000000    -0.039549   175.312921
	   52 D(5,7,10,14)    =    -62.265491    -0.000001    -0.025843   -62.291334
	   53 D(6,7,10,8)     =    -55.621269    -0.000000    -0.051648   -55.672917
	   54 D(6,7,10,9)     =     59.865576    -0.000000    -0.045587    59.819989
	   55 D(6,7,10,14)    =   -177.752385    -0.000001    -0.031881  -177.784266
	   56 D(7,10,14,11)   =    175.351137     0.000000    -0.041375   175.309763
	   57 D(7,10,14,12)   =     55.655643     0.000000    -0.044209    55.611434
	   58 D(7,10,14,13)   =    -64.650068     0.000000    -0.043785   -64.693852
	   59 D(8,10,14,11)   =     53.434971    -0.000000    -0.032531    53.402440
	   60 D(8,10,14,12)   =    -66.260524    -0.000000    -0.035365   -66.295889
	   61 D(8,10,14,13)   =    173.433766    -0.000000    -0.034940   173.398825
	   62 D(9,10,14,11)   =    -62.443792    -0.000000    -0.033673   -62.477466
	   63 D(9,10,14,12)   =    177.860713    -0.000000    -0.036508   177.824205
	   64 D(9,10,14,13)   =     57.555003    -0.000000    -0.036083    57.518919
	 ---------------------------------------------------------------------------
	 Forces used to impose fixed constraints are not included.
	  Forces zeroed: 49 

  ==> Convergence Check <==

  Measures of convergence in internal coordinates in au.
  Criteria marked as inactive (o), active & met (*), and active & unmet ( ).
  ---------------------------------------------------------------------------------------------
   Step     Total Energy     Delta E     MAX Force     RMS Force      MAX Disp      RMS Disp   
  ---------------------------------------------------------------------------------------------
    Convergence Criteria    1.00e-06 *    3.00e-04 *             o    1.20e-03 *             o
  ---------------------------------------------------------------------------------------------
      8    -157.84340055    1.17e-06      6.37e-05 *    2.11e-05 o    9.01e-04 *    4.30e-04 o  ~
  ---------------------------------------------------------------------------------------------


  **** Optimization is complete! (in 8 steps) ****

  ==> Optimization Summary <==

  Measures of convergence in internal coordinates in au.
  --------------------------------------------------------------------------------------------------------------- ~
   Step         Total Energy             Delta E       MAX Force       RMS Force        MAX Disp        RMS Disp  ~
  --------------------------------------------------------------------------------------------------------------- ~
      1    -157.835644860129   -157.835644860129      0.02365563      0.00854024      0.03868266      0.01264023  ~
      2    -157.840602840554     -0.004957980425      0.00929018      0.00414969      0.02238837      0.01253520  ~
      3    -157.842645734629     -0.002042894075      0.00415000      0.00139657      0.03195514      0.01251479  ~
      4    -157.843226400285     -0.000580665656      0.00088797      0.00043362      0.02813356      0.01250373  ~
      5    -157.843353907054     -0.000127506770      0.00039433      0.00013471      0.02486362      0.01250113  ~
      6    -157.843391838033     -0.000037930979      0.00029008      0.00008389      0.02130208      0.01089440  ~
      7    -157.843401717873     -0.000009879840      0.00030890      0.00006996      0.00152988      0.00068036  ~
      8    -157.843400545876      0.000001171997      0.00010834      0.00002505      0.00090143      0.00042976  ~
  --------------------------------------------------------------------------------------------------------------- ~

	Writing optimization data to binary file.
	Final energy is   -157.8434005458755
	Final (previous) structure:
	Cartesian Geometry (in Angstrom)
	    H    -1.9576600505   0.2205635674   0.7548956057
	    H    -1.7666561885   1.9206680857   0.3092879464
	    H    -1.5454596265   0.6628094548  -0.9064336278
	    C    -1.3726551721   0.9142569152   0.1425347268
	    H     0.6749877553   1.5157980325  -0.1483472843
	    H     0.2481317044   1.2116589961   1.5263805323
	    C     0.1075177559   0.8405850495   0.5044755946
	    H     1.7503323395  -0.5286805199   0.7185801648
	    H     0.1879808554  -1.2208765216   1.1177574687
	    C     0.7008990822  -0.5643071898   0.4036536207
	    H     1.1252724439  -2.1398630160  -1.0297841559
	    H     1.0880413865  -0.5177556944  -1.7317734313
	    H    -0.4196345304  -1.3343834316  -1.3010413847
	    C     0.6158611403  -1.1728927098  -0.9926738438
	Saving final (previous) structure.
			--------------------------
			 OPTKING Finished Execution 
			--------------------------

    Final optimized geometry and variables:
    Molecular point group: c1
    Full point group: C1

    Geometry (in Angstrom), charge = 0, multiplicity = 1:

    H           -1.957660050487     0.220563567442     0.754895605679
    H           -1.766656188489     1.920668085703     0.309287946413
    H           -1.545459626482     0.662809454826    -0.906433627839
    C           -1.372655172123     0.914256915178     0.142534726755
    H            0.674987755327     1.515798032457    -0.148347284343
    H            0.248131704441     1.211658996054     1.526380532293
    C            0.107517755948     0.840585049548     0.504475594632
    H            1.750332339451    -0.528680519902     0.718580164845
    H            0.187980855380    -1.220876521575     1.117757468712
    C            0.700899082204    -0.564307189761     0.403653620741
    H            1.125272443872    -2.139863015993    -1.029784155881
    H            1.088041386536    -0.517755694403    -1.731773431292
    H           -0.419634530427    -1.334383431581    -1.301041384682
    C            0.615861140278    -1.172892709848    -0.992673843803

	Cleaning optimization helper files.

*** Psi4 exiting successfully. Buy a developer a beer!
