    -----------------------------------------------------------------------
          Psi4: An Open-Source Ab Initio Electronic Structure Package
                              Psi4 1.0.0 Driver

                          Git: Rev {master} 6a9a71b 

    J. M. Turney, A. C. Simmonett, R. M. Parrish, E. G. Hohenstein,
    F. A. Evangelista, J. T. Fermann, B. J. Mintz, L. A. Burns, J. J. Wilke,
    M. L. Abrams, N. J. Russ, M. L. Leininger, C. L. Janssen, E. T. Seidl,
    W. D. Allen, H. F. Schaefer, R. A. King, E. F. Valeev, C. D. Sherrill,
    and T. D. Crawford, WIREs Comput. Mol. Sci. 2, 556-565 (2012)
    (doi: 10.1002/wcms.93)

                         Additional Contributions by
    A. E. DePrince, U. Bozkaya, A. Yu. Sokolov, D. G. A. Smith, R. Di Remigio,
    R. M. Richard, J. F. Gonthier, H. R. McAlexander, M. Saitow, and
    B. P. Pritchard
    -----------------------------------------------------------------------


    Psi4 started on: Mon Feb 20 17:34:25 2017

    Process ID:  28201
    PSI4DATADIR: /Users/sternc1/anaconda/share/psi4
    Memory level set to 256.000 MB

  ==> Input File <==

--------------------------------------------------------------------------

memory 1000 mb

molecule butane {
  symmetry C1
  0 1 
  H      1.604   0.760   -8.260
  H      1.745   2.388   -8.880
  H      2.043   1.024   -9.930
  C      2.142   1.395   -8.932
  H      4.169   2.051   -9.210
  H      3.731   1.788   -7.539
  C      3.631   1.416   -8.537
  H      5.237   0.003   -8.337
  H      3.665   -0.647   -7.940
  C      4.203   -0.012   -8.612
  H      4.459   -1.539   -10.100
  H      4.599   0.087   -10.721
  H      3.027   -0.564   -10.324
  C      4.061   -0.548   -10.048
  units Angstrom
}

dih_string = "4 7 10 14 60"
set optking fixed_dihedral = $dih_string

optimize('MP2/6-31G(d)')
--------------------------------------------------------------------------

  Memory set to 1000.000 MiB by Python script.
gradient() will perform analytic gradient computation.
    SCF Algorithm Type (re)set to DF.

*** tstart() called on lski1497
*** at Mon Feb 20 17:34:26 2017


         ---------------------------------------------------------
                                   SCF
            by Justin Turney, Rob Parrish, and Andy Simmonett
                              RHF Reference
                        1 Threads,   1000 MiB Core
         ---------------------------------------------------------

  ==> Geometry <==

    Molecular point group: c1
    Full point group: C1

    Geometry (in Angstrom), charge = 0, multiplicity = 1:

       Center              X                  Y                   Z               Mass       
    ------------   -----------------  -----------------  -----------------  -----------------
           H         -1.891133430388     0.202048071909     0.788188622235     1.007825032070
           H         -1.750133430388     1.830048071909     0.168188622235     1.007825032070
           H         -1.452133430388     0.466048071909    -0.881811377765     1.007825032070
           C         -1.353133430388     0.837048071909     0.116188622235    12.000000000000
           H          0.673866569612     1.493048071909    -0.161811377765     1.007825032070
           H          0.235866569612     1.230048071909     1.509188622235     1.007825032070
           C          0.135866569612     0.858048071909     0.511188622235    12.000000000000
           H          1.741866569612    -0.554951928091     0.711188622235     1.007825032070
           H          0.169866569612    -1.204951928091     1.108188622235     1.007825032070
           C          0.707866569612    -0.569951928091     0.436188622235    12.000000000000
           H          0.963866569612    -2.096951928091    -1.051811377765     1.007825032070
           H          1.103866569612    -0.470951928091    -1.672811377765     1.007825032070
           H         -0.468133430388    -1.121951928091    -1.275811377765     1.007825032070
           C          0.565866569612    -1.105951928091    -0.999811377765    12.000000000000

  Running in c1 symmetry.

  Rotational constants: A =      0.41859  B =      0.17560  C =      0.14458 [cm^-1]
  Rotational constants: A =  12548.96445  B =   5264.38149  C =   4334.52063 [MHz]
  Nuclear repulsion =  134.731788310367762

  Charge       = 0
  Multiplicity = 1
  Electrons    = 34
  Nalpha       = 17
  Nbeta        = 17

  ==> Algorithm <==

  SCF Algorithm Type is DF.
  DIIS enabled.
  MOM disabled.
  Fractional occupation disabled.
  Guess Type is SAD.
  Energy threshold   = 1.00e-10
  Density threshold  = 1.00e-10
  Integral threshold = 0.00e+00

  ==> Primary Basis <==

  Basis Set: 6-31G(D)
    Number of shells: 44
    Number of basis function: 80
    Number of Cartesian functions: 80
    Spherical Harmonics?: false
    Max angular momentum: 2

  ==> Pre-Iterations <==

   -------------------------------------------------------
    Irrep   Nso     Nmo     Nalpha   Nbeta   Ndocc  Nsocc
   -------------------------------------------------------
     A         80      80       0       0       0       0
   -------------------------------------------------------
    Total      80      80      17      17      17       0
   -------------------------------------------------------

  ==> Integral Setup <==

  ==> DFJK: Density-Fitted J/K Matrices <==

    J tasked:                  Yes
    K tasked:                  Yes
    wK tasked:                  No
    OpenMP threads:              1
    Integrals threads:           1
    Memory (MB):               715
    Algorithm:                Core
    Integral Cache:           NONE
    Schwarz Cutoff:          1E-12
    Fitting Condition:       1E-12

   => Auxiliary Basis Set <=

  Basis Set: 
    Number of shells: 186
    Number of basis function: 574
    Number of Cartesian functions: 574
    Spherical Harmonics?: false
    Max angular momentum: 3

  Minimum eigenvalue in the overlap matrix is 5.2445060044E-03.
  Using Symmetric Orthogonalization.
  SCF Guess: Superposition of Atomic Densities via on-the-fly atomic UHF.

  ==> Iterations <==

                           Total Energy        Delta E     RMS |[F,P]|

   @DF-RHF iter   0:  -158.99298563905072   -1.58993e+02   4.74268e-02 
   @DF-RHF iter   1:  -157.19925964571425    1.79373e+00   3.99880e-03 
   @DF-RHF iter   2:  -157.28136242717588   -8.21028e-02   1.09684e-03 DIIS
   @DF-RHF iter   3:  -157.28932901030603   -7.96658e-03   2.50031e-04 DIIS
   @DF-RHF iter   4:  -157.28969185416415   -3.62844e-04   8.02742e-05 DIIS
   @DF-RHF iter   5:  -157.28972721755585   -3.53634e-05   1.40246e-05 DIIS
   @DF-RHF iter   6:  -157.28972869272670   -1.47517e-06   2.24587e-06 DIIS
   @DF-RHF iter   7:  -157.28972871952570   -2.67990e-08   6.79109e-07 DIIS
   @DF-RHF iter   8:  -157.28972872177721   -2.25151e-09   1.33601e-07 DIIS
   @DF-RHF iter   9:  -157.28972872189584   -1.18632e-10   3.42177e-08 DIIS
   @DF-RHF iter  10:  -157.28972872190562   -9.77707e-12   6.56081e-09 DIIS
   @DF-RHF iter  11:  -157.28972872190602   -3.97904e-13   1.76382e-09 DIIS
   @DF-RHF iter  12:  -157.28972872190590    1.13687e-13   4.39274e-10 DIIS
   @DF-RHF iter  13:  -157.28972872190624   -3.41061e-13   8.63303e-11 DIIS

  ==> Post-Iterations <==

    Orbital Energies (a.u.)
    -----------------------

    Doubly Occupied:                                                      

       1A    -11.208076     2A    -11.207491     3A    -11.199775  
       4A    -11.199688     5A     -1.074247     6A     -0.973765  
       7A     -0.877860     8A     -0.781858     9A     -0.631956  
      10A     -0.629565    11A     -0.578362    12A     -0.535897  
      13A     -0.531721    14A     -0.505525    15A     -0.471804  
      16A     -0.455399    17A     -0.451369  

    Virtual:                                                              

      18A      0.235823    19A      0.281456    20A      0.287493  
      21A      0.302375    22A      0.319559    23A      0.320861  
      24A      0.343915    25A      0.352939    26A      0.363385  
      27A      0.387889    28A      0.409414    29A      0.419906  
      30A      0.446707    31A      0.715056    32A      0.720703  
      33A      0.739896    34A      0.743169    35A      0.764208  
      36A      0.833862    37A      0.868698    38A      0.927823  
      39A      0.950654    40A      0.997038    41A      1.106791  
      42A      1.119774    43A      1.175918    44A      1.178433  
      45A      1.193279    46A      1.207503    47A      1.216520  
      48A      1.235468    49A      1.240632    50A      1.267901  
      51A      1.272455    52A      1.302741    53A      1.320211  
      54A      1.571455    55A      1.711916    56A      1.714801  
      57A      1.832922    58A      1.861749    59A      1.973968  
      60A      2.043264    61A      2.173110    62A      2.261273  
      63A      2.300929    64A      2.312737    65A      2.358679  
      66A      2.461564    67A      2.484562    68A      2.660273  
      69A      2.662899    70A      2.668090    71A      2.698239  
      72A      2.760461    73A      2.802872    74A      2.925410  
      75A      2.955039    76A      3.091046    77A      4.582656  
      78A      4.696672    79A      4.819861    80A      4.946291  

    Final Occupation by Irrep:
              A 
    DOCC [    17 ]

  Energy converged.

  @DF-RHF Final Energy:  -157.28972872190624

   => Energetics <=

    Nuclear Repulsion Energy =            134.7317883103677616
    One-Electron Energy =                -477.4143155516325123
    Two-Electron Energy =                 185.3927985193586210
    DFT Exchange-Correlation Energy =       0.0000000000000000
    Empirical Dispersion Energy =           0.0000000000000000
    PCM Polarization Energy =               0.0000000000000000
    EFP Energy =                            0.0000000000000000
    Total Energy =                       -157.2897287219061582


  Saving occupied orbitals to File 180.

*** tstop() called on lski1497 at Mon Feb 20 17:34:33 2017
Module time:
	user time   =       4.74 seconds =       0.08 minutes
	system time =       0.16 seconds =       0.00 minutes
	total time  =          7 seconds =       0.12 minutes
Total time:
	user time   =       4.74 seconds =       0.08 minutes
	system time =       0.16 seconds =       0.00 minutes
	total time  =          7 seconds =       0.12 minutes


Properties will be evaluated at   0.000000,   0.000000,   0.000000 Bohr

Properties computed using the SCF density matrix

  Nuclear Dipole Moment: (a.u.)
     X:    -0.6303      Y:    -0.2142      Z:    -0.7116

  Electronic Dipole Moment: (a.u.)
     X:     0.6524      Y:     0.2209      Z:     0.7362

  Dipole Moment: (a.u.)
     X:     0.0221      Y:     0.0066      Z:     0.0245     Total:     0.0336

  Dipole Moment: (Debye)
     X:     0.0561      Y:     0.0169      Z:     0.0623     Total:     0.0855


  //>>>>>>>>>>>>>>>>>>>>>>>>>>>>>>>>>>>//
  //               DFMP2               //
  //<<<<<<<<<<<<<<<<<<<<<<<<<<<<<<<<<<<//


*** tstart() called on lski1497
*** at Mon Feb 20 17:34:33 2017


*** tstop() called on lski1497 at Mon Feb 20 17:34:34 2017
Module time:
	user time   =       0.53 seconds =       0.01 minutes
	system time =       0.01 seconds =       0.00 minutes
	total time  =          1 seconds =       0.02 minutes
Total time:
	user time   =       5.29 seconds =       0.09 minutes
	system time =       0.17 seconds =       0.00 minutes
	total time  =          8 seconds =       0.13 minutes
	 --------------------------------------------------------
	                          DF-MP2                         
	      2nd-Order Density-Fitted Moller-Plesset Theory     
	              RMP2 Wavefunction,   1 Threads             
	                                                         
	        Rob Parrish, Justin Turney, Andy Simmonett,      
	           Ed Hohenstein, and C. David Sherrill          
	 --------------------------------------------------------

   => Auxiliary Basis Set <=

  Basis Set: 
    Number of shells: 132
    Number of basis function: 364
    Number of Cartesian functions: 414
    Spherical Harmonics?: true
    Max angular momentum: 3

	 --------------------------------------------------------
	                 NBF =    80, NAUX =   364
	 --------------------------------------------------------
	   CLASS    FOCC     OCC    AOCC    AVIR     VIR    FVIR
	   PAIRS       0      17      17      63      63       0
	 --------------------------------------------------------

DGAS Warning! /src/lib/libfock/apps.cc:80 is not currently checking restricted

         ------------------------------------------------------------
                                     CPHF                           
                                  Rob Parrish                       
         ------------------------------------------------------------

  ==> Geometry <==

    Molecular point group: c1
    Full point group: C1

    Geometry (in Angstrom), charge = 0, multiplicity = 1:

       Center              X                  Y                   Z               Mass       
    ------------   -----------------  -----------------  -----------------  -----------------
           H         -1.891133430388     0.202048071909     0.788188622235     1.007825032070
           H         -1.750133430388     1.830048071909     0.168188622235     1.007825032070
           H         -1.452133430388     0.466048071909    -0.881811377765     1.007825032070
           C         -1.353133430388     0.837048071909     0.116188622235    12.000000000000
           H          0.673866569612     1.493048071909    -0.161811377765     1.007825032070
           H          0.235866569612     1.230048071909     1.509188622235     1.007825032070
           C          0.135866569612     0.858048071909     0.511188622235    12.000000000000
           H          1.741866569612    -0.554951928091     0.711188622235     1.007825032070
           H          0.169866569612    -1.204951928091     1.108188622235     1.007825032070
           C          0.707866569612    -0.569951928091     0.436188622235    12.000000000000
           H          0.963866569612    -2.096951928091    -1.051811377765     1.007825032070
           H          1.103866569612    -0.470951928091    -1.672811377765     1.007825032070
           H         -0.468133430388    -1.121951928091    -1.275811377765     1.007825032070
           C          0.565866569612    -1.105951928091    -0.999811377765    12.000000000000

  Nuclear repulsion =  134.731788310367733
  Reference energy  = -157.289728721906243

  ==> Basis Set <==

  Basis Set: 6-31G(D)
    Number of shells: 44
    Number of basis function: 80
    Number of Cartesian functions: 80
    Spherical Harmonics?: false
    Max angular momentum: 2

  ==> CGRSolver (by Rob Parrish) <==

   Number of roots    =         1
   Preconditioning    =    JACOBI
   Convergence cutoff =     1E-06
   Maximum iterations =       100

  ==> CPHFRHamiltonian (by Rob Parrish) <== 

  ==> DFJK: Density-Fitted J/K Matrices <==

    J tasked:                  Yes
    K tasked:                  Yes
    wK tasked:                  No
    OpenMP threads:              1
    Integrals threads:           1
    Memory (MB):               715
    Algorithm:                Core
    Integral Cache:           NONE
    Schwarz Cutoff:          1E-12
    Fitting Condition:       1E-12

   => Auxiliary Basis Set <=

  Basis Set: 
    Number of shells: 186
    Number of basis function: 574
    Number of Cartesian functions: 574
    Spherical Harmonics?: false
    Max angular momentum: 3

  ==> CPHF Iterations <==

  => Iterations <=

             Iter  Converged  Remaining    Residual
  CGR           1          0          1   7.510E-02
  CGR           2          0          1   8.563E-03
  CGR           3          0          1   2.299E-03
  CGR           4          0          1   4.337E-04
  CGR           5          0          1   7.823E-05
  CGR           6          0          1   1.450E-05
  CGR           7          0          1   2.027E-06
  CGR           8          1          0   4.607E-07

    CGRSolver converged.

  ==> DFCorrGrad: Density-Fitted Correlated Gradients <==

    OpenMP threads:              1
    Integrals threads:           1
    Memory (MB):               715
    Schwarz Cutoff:          0E+00
    Fitting Condition:       1E-12

   => Auxiliary Basis Set <=

  Basis Set: 
    Number of shells: 186
    Number of basis function: 510
    Number of Cartesian functions: 574
    Spherical Harmonics?: true
    Max angular momentum: 3

	-----------------------------------------------------------
	 ==================> DF-MP2 Energies <==================== 
	-----------------------------------------------------------
	 Reference Energy          =    -157.2897287219062434 [Eh]
	 Singles Energy            =      -0.0000000000000000 [Eh]
	 Same-Spin Energy          =      -0.1250582698165306 [Eh]
	 Opposite-Spin Energy      =      -0.4208578684060312 [Eh]
	 Correlation Energy        =      -0.5459161382225618 [Eh]
	 Total Energy              =    -157.8356448601288093 [Eh]
	-----------------------------------------------------------
	 ================> DF-SCS-MP2 Energies <================== 
	-----------------------------------------------------------
	 SCS Same-Spin Scale       =       0.3333333333333333 [-]
	 SCS Opposite-Spin Scale   =       1.2000000000000000 [-]
	 SCS Same-Spin Energy      =      -0.0416860899388435 [Eh]
	 SCS Opposite-Spin Energy  =      -0.5050294420872374 [Eh]
	 SCS Correlation Energy    =      -0.5467155320260809 [Eh]
	 SCS Total Energy          =    -157.8364442539323136 [Eh]
	-----------------------------------------------------------


  -Total Gradient:
     Atom            X                  Y                   Z
    ------   -----------------  -----------------  -----------------
       1        0.010817936548     0.009655873301    -0.009331599495
       2        0.009788099697    -0.013565014414     0.000058156195
       3        0.006968995464     0.001341548146     0.012790618330
       4       -0.026830610365    -0.008282635451    -0.007405020546
       5       -0.010257775866    -0.011682906164     0.008750738837
       6       -0.003058810822    -0.009291869522    -0.015510121773
       7        0.019485450907     0.029986889620     0.004982217892
       8       -0.016630124151     0.002427567514    -0.006807433975
       9        0.006808965825     0.010679650978    -0.013242099324
      10        0.009796891175    -0.020273072039     0.028165025873
      11       -0.005735424028     0.016172234041     0.004891657510
      12       -0.007548776427    -0.008429469888     0.012425186366
      13        0.010656881054     0.004960292360     0.007496348901
      14       -0.004261699013    -0.003699088482    -0.027263674791


			-----------------------------------------
			 OPTKING 2.0: for geometry optimizations 
			  - R.A. King,  Bethel University        
			-----------------------------------------

	Internal coordinates to be generated automatically.
	Detected frag 1 with atoms:  1 2 3 4 5 6 7 8 9 10 11 12 13 14
	---Fragment 1 Bond Connectivity---
	 1 : 4
	 2 : 4
	 3 : 4
	 4 : 1 2 3 7
	 5 : 7
	 6 : 7
	 7 : 4 5 6 10
	 8 : 10
	 9 : 10
	 10 : 7 8 9 14
	 11 : 14
	 12 : 14
	 13 : 14
	 14 : 10 11 12 13

	Assuming in current code that numbering for constraints corresponds to unified fragment.
	Fixed dihedral atom list: 
	     4     7    10    14
	---Fragment 1 Geometry and Gradient---
	 H          -3.5737242642        0.3818155216        1.4894606371
	 H          -3.3072728794        3.4582896659        0.3178304347
	 H          -2.7441344918        0.8807032207       -1.6663820048
	 C          -2.5570516047        1.5817916160        0.2195646758
	 H           1.2734232667        2.8214519591       -0.3057791892
	 H           0.4457232205        2.3244539862        2.8519531789
	 C           0.2567506072        1.6214758648        0.9660064983
	 H           3.2916507766       -1.0487071610        1.3439517248
	 H           0.3210012957       -2.2770291474        2.0941729996
	 C           1.3376739552       -1.0770530530        0.8242770383
	 H           1.8214438452       -3.9626648579       -1.9876354474
	 H           2.0860055038       -0.8899701658       -3.1611553760
	 H          -0.8846439771       -2.1201818784       -2.4109341012
	 C           1.0693328443       -2.0899462602       -1.8893696885
	             0.0108179365        0.0096558733       -0.0093315995
	             0.0097880997       -0.0135650144        0.0000581562
	             0.0069689955        0.0013415481        0.0127906183
	            -0.0268306104       -0.0082826355       -0.0074050205
	            -0.0102577759       -0.0116829062        0.0087507388
	            -0.0030588108       -0.0092918695       -0.0155101218
	             0.0194854509        0.0299868896        0.0049822179
	            -0.0166301242        0.0024275675       -0.0068074340
	             0.0068089658        0.0106796510       -0.0132420993
	             0.0097968912       -0.0202730720        0.0281650259
	            -0.0057354240        0.0161722340        0.0048916575
	            -0.0075487764       -0.0084294699        0.0124251864
	             0.0106568811        0.0049602924        0.0074963489
	            -0.0042616990       -0.0036990885       -0.0272636748

	Previous optimization step data not found.  Starting new optimization.

	---Fragment 1 Intrafragment Coordinates---
	 - Coordinate -           - BOHR/RAD -       - ANG/DEG -
	 R(1,4)           =         2.021436	       1.069698
	 R(2,4)           =         2.023298	       1.070683
	 R(3,4)           =         2.020723	       1.069320
	 R(4,7)           =         2.911397	       1.540645
	 R(5,7)           =         2.022623	       1.070326
	 R(6,7)           =         2.021555	       1.069761
	 R(7,10)          =         2.910419	       1.540128
	 R(8,10)          =         2.022101	       1.070050
	 R(9,10)          =         2.021436	       1.069698
	 R(10,14)         =         2.908924	       1.539336
	 R(11,14)         =         2.020495	       1.069200
	 R(12,14)         =         2.022623	       1.070326
	 R(13,14)         =         2.022614	       1.070321
	 B(1,4,2)         =         1.910870	     109.484805
	 B(1,4,3)         =         1.911121	     109.499161
	 B(1,4,7)         =         1.910399	     109.457783
	 B(2,4,3)         =         1.910042	     109.437340
	 B(2,4,7)         =         1.910564	     109.467262
	 B(3,4,7)         =         1.910803	     109.480971
	 B(4,7,5)         =         1.909937	     109.431343
	 B(4,7,6)         =         1.911630	     109.528316
	 B(4,7,10)        =         1.911154	     109.501062
	 B(5,7,6)         =         1.910605	     109.469614
	 B(5,7,10)        =         1.910047	     109.437654
	 B(6,7,10)        =         1.910425	     109.459295
	 B(7,10,8)        =         1.910675	     109.473632
	 B(7,10,9)        =         1.910303	     109.452301
	 B(7,10,14)       =         1.911361	     109.512905
	 B(8,10,9)        =         1.910146	     109.443289
	 B(8,10,14)       =         1.911092	     109.497516
	 B(9,10,14)       =         1.910222	     109.447648
	 B(10,14,11)      =         1.911092	     109.497530
	 B(10,14,12)      =         1.910939	     109.488733
	 B(10,14,13)      =         1.912272	     109.565126
	 B(11,14,12)      =         1.909429	     109.402238
	 B(11,14,13)      =         1.910505	     109.463859
	 B(12,14,13)      =         1.909559	     109.409679
	 D(1,4,7,5)       =         3.140997	     179.965873
	 D(1,4,7,6)       =        -1.047644	     -60.025575
	 D(1,4,7,10)      =         1.047427	      60.013132
	 D(2,4,7,5)       =        -1.047689	     -60.028143
	 D(2,4,7,6)       =         1.046856	      59.980409
	 D(2,4,7,10)      =        -3.141259	    -179.980883
	 D(3,4,7,5)       =         1.046044	      59.933911
	 D(3,4,7,6)       =         3.140588	     179.942463
	 D(3,4,7,10)      =        -1.047526	     -60.018830
	 D(4,7,10,8)      =        -3.140990	    -179.965470
	 D(4,7,10,9)      =        -1.047368	     -60.009777
	 D(4,7,10,14)     =         1.046766	      59.975282
	 D(5,7,10,8)      =         1.048693	      60.085655
	 D(5,7,10,9)      =        -3.140871	    -179.958653
	 D(5,7,10,14)     =        -1.046737	     -59.973593
	 D(6,7,10,8)      =        -1.045182	     -59.884544
	 D(6,7,10,9)      =         1.048439	      60.071149
	 D(6,7,10,14)     =        -3.140612	    -179.943792
	 D(7,10,14,11)    =         3.140671	     179.947190
	 D(7,10,14,12)    =         1.047282	      60.004845
	 D(7,10,14,13)    =        -1.046989	     -59.988058
	 D(8,10,14,11)    =         1.045497	      59.902549
	 D(8,10,14,12)    =        -1.047892	     -60.039796
	 D(8,10,14,13)    =         3.141022	     179.967301
	 D(9,10,14,11)    =        -1.048330	     -60.064903
	 D(9,10,14,12)    =         3.141466	     179.992752
	 D(9,10,14,13)    =         1.047195	      59.999849

	Current energy   :      -157.8356448601

	Generating empirical Hessian (Schlegel '84) for each fragment.
	Adding user-defined constraint: Fragment 1; Coordinate 49:
		Value =     1.046766; Fixed value    =     1.047198
		Force =     0.000216; Force constant =     0.500000
	Removing off-diagonal coupling between coordinate 49 and others.
	Taking RFO optimization step.
	Going to follow RFO solution 1.
	Using RFO vector 1.

	Determining step-restricting scale parameter for RS-RFO.
	Maximum step size allowed    0.10000

	 Iter      |step|        alpha        rfo_root  
	------------------------------------------------
	    0     0.32713       1.00000           1
	    1     0.23906       3.68452           1
	    2     0.17193      12.41641           1
	    3     0.12951      29.63748           1
	    4     0.10796      48.96031           1
	    5     0.10086      58.58830           1
	    6     0.10001      59.88367           1
	    7     0.10000      59.90197           1
	------------------------------------------------
	Norm of target step-size    0.10000
	Projected energy change by RFO approximation:        -0.0067820477

	Back-transformation to cartesian coordinates...
	Could not converge backtransformation.
	Using first guess instead.

	--- Internal Coordinate Step in ANG or DEG, aJ/ANG or AJ/DEG ---
	 ---------------------------------------------------------------------------
	   Coordinate                Previous        Force       Change         New 
	   ----------                --------       ------       ------       ------
	    1 R(1,4)          =      1.069698     0.140347     0.011685     1.081382
	    2 R(2,4)          =      1.070683     0.133528     0.011514     1.082197
	    3 R(3,4)          =      1.069320     0.107500     0.009796     1.079116
	    4 R(4,7)          =      1.540645    -0.003503     0.000401     1.541046
	    5 R(5,7)          =      1.070326     0.144916     0.012036     1.082362
	    6 R(6,7)          =      1.069761     0.148188     0.012434     1.082195
	    7 R(7,10)         =      1.540128     0.037468     0.003718     1.543846
	    8 R(8,10)         =      1.070050     0.146528     0.012305     1.082354
	    9 R(9,10)         =      1.069698     0.148982     0.012359     1.082057
	   10 R(10,14)        =      1.539336     0.001761     0.000894     1.540231
	   11 R(11,14)        =      1.069200     0.143043     0.012273     1.081473
	   12 R(12,14)        =      1.070326     0.136830     0.011404     1.081730
	   13 R(13,14)        =      1.070321     0.101356     0.009299     1.079620
	   14 B(1,4,2)        =    109.484805    -0.000264    -0.349552   109.135252
	   15 B(1,4,3)        =    109.499161    -0.000281    -0.391374   109.107787
	   16 B(1,4,7)        =    109.457783     0.000139     0.163207   109.620990
	   17 B(2,4,3)        =    109.437340    -0.000442    -0.582814   108.854526
	   18 B(2,4,7)        =    109.467262     0.000282     0.385405   109.852668
	   19 B(3,4,7)        =    109.480971     0.000566     0.764910   110.245881
	   20 B(4,7,5)        =    109.431343    -0.000394    -0.480078   108.951265
	   21 B(4,7,6)        =    109.528316    -0.000578    -0.663145   108.865171
	   22 B(4,7,10)       =    109.501062     0.001795     2.211282   111.712345
	   23 B(5,7,6)        =    109.469614     0.000152     0.044736   109.514350
	   24 B(5,7,10)       =    109.437654    -0.000481    -0.547321   108.890334
	   25 B(6,7,10)       =    109.459295    -0.000495    -0.575590   108.883704
	   26 B(7,10,8)       =    109.473632    -0.000499    -0.582834   108.890799
	   27 B(7,10,9)       =    109.452301    -0.000484    -0.551354   108.900946
	   28 B(7,10,14)      =    109.512905     0.001800     2.216355   111.729260
	   29 B(8,10,9)       =    109.443289     0.000154     0.047276   109.490564
	   30 B(8,10,14)      =    109.497516    -0.000575    -0.658540   108.838976
	   31 B(9,10,14)      =    109.447648    -0.000396    -0.481947   108.965701
	   32 B(10,14,11)     =    109.497530     0.000282     0.385000   109.882531
	   33 B(10,14,12)     =    109.488733     0.000131     0.153967   109.642700
	   34 B(10,14,13)     =    109.565126     0.000555     0.751134   110.316259
	   35 B(11,14,12)     =    109.402238    -0.000256    -0.337356   109.064882
	   36 B(11,14,13)     =    109.463859    -0.000442    -0.586523   108.877336
	   37 B(12,14,13)     =    109.409679    -0.000271    -0.378621   109.031058
	   38 D(1,4,7,5)      =    179.965873     0.000052     0.309620   180.275493
	   39 D(1,4,7,6)      =    -60.025575    -0.000042    -0.321024   -60.346599
	   40 D(1,4,7,10)     =     60.013132    -0.000010    -0.081294    59.931838
	   41 D(2,4,7,5)      =    -60.028143     0.000037     0.218502   -59.809640
	   42 D(2,4,7,6)      =     59.980409    -0.000057    -0.412142    59.568268
	   43 D(2,4,7,10)     =   -179.980883    -0.000025    -0.172412  -180.153295
	   44 D(3,4,7,5)      =     59.933911     0.000032     0.215768    60.149678
	   45 D(3,4,7,6)      =    179.942463    -0.000062    -0.414876   179.527586
	   46 D(3,4,7,10)     =    -60.018830    -0.000030    -0.175146   -60.193976
	   47 D(4,7,10,8)     =   -179.965470     0.000066     0.374801  -179.590668
	   48 D(4,7,10,9)     =    -60.009777    -0.000029    -0.246159   -60.255935
	   49 D(4,7,10,14)    =     59.975282     0.000045     0.183799    60.159082
	   50 D(5,7,10,8)     =     60.085655    -0.000007    -0.055632    60.030023
	   51 D(5,7,10,9)     =   -179.958653    -0.000102    -0.676592  -180.635244
	   52 D(5,7,10,14)    =    -59.973593    -0.000029    -0.246634   -60.220227
	   53 D(6,7,10,8)     =    -59.884544     0.000087     0.561458   -59.323086
	   54 D(6,7,10,9)     =     60.071149    -0.000008    -0.059502    60.011647
	   55 D(6,7,10,14)    =   -179.943792     0.000065     0.370456  -179.573336
	   56 D(7,10,14,11)   =    179.947190    -0.000024    -0.166392   179.780799
	   57 D(7,10,14,12)   =     60.004845    -0.000010    -0.084318    59.920527
	   58 D(7,10,14,13)   =    -59.988058    -0.000030    -0.180210   -60.168268
	   59 D(8,10,14,11)   =     59.902549    -0.000056    -0.402345    59.500204
	   60 D(8,10,14,12)   =    -60.039796    -0.000042    -0.320272   -60.360068
	   61 D(8,10,14,13)   =    179.967301    -0.000062    -0.416164   179.551138
	   62 D(9,10,14,11)   =    -60.064903     0.000037     0.222852   -59.842051
	   63 D(9,10,14,12)   =    179.992752     0.000051     0.304926   180.297677
	   64 D(9,10,14,13)   =     59.999849     0.000031     0.209034    60.208883
	 ---------------------------------------------------------------------------
	 Forces used to impose fixed constraints are not included.
	  Forces zeroed: 49 

  ==> Convergence Check <==

  Measures of convergence in internal coordinates in au.
  Criteria marked as inactive (o), active & met (*), and active & unmet ( ).
  --------------------------------------------------------------------------------------------- ~
   Step     Total Energy     Delta E     MAX Force     RMS Force      MAX Disp      RMS Disp    ~
  --------------------------------------------------------------------------------------------- ~
    Convergence Criteria    1.00e-06 *    3.00e-04 *             o    1.20e-03 *             o  ~
  --------------------------------------------------------------------------------------------- ~
      1    -157.83564486   -1.58e+02      2.37e-02      8.53e-03 o    3.87e-02      1.26e-02 o  ~
  ---------------------------------------------------------------------------------------------

	Writing optimization data to binary file.
	Structure for next step:
	Cartesian Geometry (in Angstrom)
	    H    -1.9296306124   0.2333149490   0.8035014713
	    H    -1.7588763483   1.8849779251   0.2113731109
	    H    -1.5095950614   0.5294397215  -0.8798715286
	    C    -1.3754655885   0.8759973903   0.1332419431
	    H     0.6615014273   1.5029155700  -0.1624962674
	    H     0.2278670027   1.2118767342   1.5264255823
	    C     0.1182960906   0.8530250114   0.5113566423
	    H     1.7539347852  -0.5349525179   0.6989013410
	    H     0.1736866703  -1.2175237206   1.0998681712
	    C     0.7092612639  -0.5701772974   0.4179966333
	    H     1.0219065681  -2.1358037803  -1.0400696913
	    H     1.1332238909  -0.5053655866  -1.6982843033
	    H    -0.4385877734  -1.1950578595  -1.3095900160
	    C     0.5966096597  -1.1419935325  -1.0077123777
			--------------------------
			 OPTKING Finished Execution 
			--------------------------

    Structure for next step:
    Molecular point group: c1
    Full point group: C1

    Geometry (in Angstrom), charge = 0, multiplicity = 1:

    H           -1.928160998191     0.233757964367     0.805180562967
    H           -1.757406734142     1.885420940523     0.213052202594
    H           -1.508125447203     0.529882736903    -0.878192436910
    C           -1.373995974339     0.876440405675     0.134921034772
    H            0.662971041463     1.503358585329    -0.160817175718
    H            0.229336616908     1.212319749597     1.528104673997
    C            0.119765704754     0.853468026737     0.513035733952
    H            1.755404399358    -0.534509502571     0.700580432701
    H            0.175156284513    -1.217080705226     1.101547262897
    C            0.710730878112    -0.569734281985     0.419675724983
    H            1.023376182290    -2.135360764932    -1.038390599690
    H            1.134693505085    -0.504922571226    -1.696605211665
    H           -0.437118159240    -1.194614844097    -1.307910924387
    C            0.598079273860    -1.141550517113    -1.006033286001

gradient() will perform analytic gradient computation.
    SCF Algorithm Type (re)set to DF.

*** tstart() called on lski1497
*** at Mon Feb 20 17:34:58 2017


         ---------------------------------------------------------
                                   SCF
            by Justin Turney, Rob Parrish, and Andy Simmonett
                              RHF Reference
                        1 Threads,   1000 MiB Core
         ---------------------------------------------------------

  ==> Geometry <==

    Molecular point group: c1
    Full point group: C1

    Geometry (in Angstrom), charge = 0, multiplicity = 1:

       Center              X                  Y                   Z               Mass       
    ------------   -----------------  -----------------  -----------------  -----------------
           H         -1.928160998191     0.233757964367     0.805180562967     1.007825032070
           H         -1.757406734142     1.885420940523     0.213052202594     1.007825032070
           H         -1.508125447203     0.529882736903    -0.878192436910     1.007825032070
           C         -1.373995974339     0.876440405675     0.134921034772    12.000000000000
           H          0.662971041463     1.503358585329    -0.160817175718     1.007825032070
           H          0.229336616908     1.212319749597     1.528104673997     1.007825032070
           C          0.119765704754     0.853468026737     0.513035733952    12.000000000000
           H          1.755404399358    -0.534509502571     0.700580432701     1.007825032070
           H          0.175156284513    -1.217080705226     1.101547262897     1.007825032070
           C          0.710730878112    -0.569734281985     0.419675724983    12.000000000000
           H          1.023376182290    -2.135360764932    -1.038390599690     1.007825032070
           H          1.134693505085    -0.504922571226    -1.696605211665     1.007825032070
           H         -0.437118159240    -1.194614844097    -1.307910924387     1.007825032070
           C          0.598079273860    -1.141550517113    -1.006033286001    12.000000000000

  Running in c1 symmetry.

  Rotational constants: A =      0.42545  B =      0.16733  C =      0.13934 [cm^-1]
  Rotational constants: A =  12754.76599  B =   5016.34779  C =   4177.42752 [MHz]
  Nuclear repulsion =  133.364496401519489

  Charge       = 0
  Multiplicity = 1
  Electrons    = 34
  Nalpha       = 17
  Nbeta        = 17

  ==> Algorithm <==

  SCF Algorithm Type is DF.
  DIIS enabled.
  MOM disabled.
  Fractional occupation disabled.
  Guess Type is READ.
  Energy threshold   = 1.00e-10
  Density threshold  = 1.00e-10
  Integral threshold = 0.00e+00

  ==> Primary Basis <==

  Basis Set: 6-31G(D)
    Number of shells: 44
    Number of basis function: 80
    Number of Cartesian functions: 80
    Spherical Harmonics?: false
    Max angular momentum: 2

  ==> Pre-Iterations <==

   -------------------------------------------------------
    Irrep   Nso     Nmo     Nalpha   Nbeta   Ndocc  Nsocc
   -------------------------------------------------------
     A         80      80       0       0       0       0
   -------------------------------------------------------
    Total      80      80      17      17      17       0
   -------------------------------------------------------

  ==> Integral Setup <==

  ==> DFJK: Density-Fitted J/K Matrices <==

    J tasked:                  Yes
    K tasked:                  Yes
    wK tasked:                  No
    OpenMP threads:              1
    Integrals threads:           1
    Memory (MB):               715
    Algorithm:                Core
    Integral Cache:           NONE
    Schwarz Cutoff:          1E-12
    Fitting Condition:       1E-12

   => Auxiliary Basis Set <=

  Basis Set: 
    Number of shells: 186
    Number of basis function: 574
    Number of Cartesian functions: 574
    Spherical Harmonics?: false
    Max angular momentum: 3

  Minimum eigenvalue in the overlap matrix is 5.3624950441E-03.
  Using Symmetric Orthogonalization.
  SCF Guess was Projection but file not found.
  Switching over to SAD guess.

  SCF Guess: Superposition of Atomic Densities via on-the-fly atomic UHF.

  ==> Iterations <==

                           Total Energy        Delta E     RMS |[F,P]|

   @DF-RHF iter   0:  -158.88057779443392   -1.58881e+02   4.65168e-02 
   @DF-RHF iter   1:  -157.20330880615001    1.67727e+00   3.96949e-03 
   @DF-RHF iter   2:  -157.28566896700187   -8.23602e-02   1.10415e-03 DIIS
   @DF-RHF iter   3:  -157.29382377665792   -8.15481e-03   2.52859e-04 DIIS
   @DF-RHF iter   4:  -157.29419675495404   -3.72978e-04   8.07353e-05 DIIS
   @DF-RHF iter   5:  -157.29423327114256   -3.65162e-05   1.37950e-05 DIIS
   @DF-RHF iter   6:  -157.29423472398145   -1.45284e-06   2.07341e-06 DIIS
   @DF-RHF iter   7:  -157.29423474745073   -2.34693e-08   6.63650e-07 DIIS
   @DF-RHF iter   8:  -157.29423474947470   -2.02397e-09   1.18746e-07 DIIS
   @DF-RHF iter   9:  -157.29423474957269   -9.79981e-11   2.97734e-08 DIIS
   @DF-RHF iter  10:  -157.29423474957952   -6.82121e-12   6.30025e-09 DIIS
   @DF-RHF iter  11:  -157.29423474957997   -4.54747e-13   1.75411e-09 DIIS
   @DF-RHF iter  12:  -157.29423474957986    1.13687e-13   3.87471e-10 DIIS
   @DF-RHF iter  13:  -157.29423474957974    1.13687e-13   7.59421e-11 DIIS

  ==> Post-Iterations <==

    Orbital Energies (a.u.)
    -----------------------

    Doubly Occupied:                                                      

       1A    -11.212748     2A    -11.212180     3A    -11.204987  
       4A    -11.204939     5A     -1.069280     6A     -0.973366  
       7A     -0.874266     8A     -0.777006     9A     -0.629147  
      10A     -0.622736    11A     -0.576029    12A     -0.532019  
      13A     -0.531817    14A     -0.504382    15A     -0.467212  
      16A     -0.455985    17A     -0.452691  

    Virtual:                                                              

      18A      0.231239    19A      0.279220    20A      0.285527  
      21A      0.299715    22A      0.317374    23A      0.317866  
      24A      0.339925    25A      0.348086    26A      0.359763  
      27A      0.382989    28A      0.407127    29A      0.409270  
      30A      0.451737    31A      0.711908    32A      0.724540  
      33A      0.730805    34A      0.743525    35A      0.766756  
      36A      0.839995    37A      0.868464    38A      0.923059  
      39A      0.950624    40A      0.997870    41A      1.101078  
      42A      1.111072    43A      1.162640    44A      1.165867  
      45A      1.183643    46A      1.193426    47A      1.201507  
      48A      1.227286    49A      1.237639    50A      1.254761  
      51A      1.260357    52A      1.287513    53A      1.303721  
      54A      1.550547    55A      1.707600    56A      1.716195  
      57A      1.824814    58A      1.862471    59A      1.968477  
      60A      2.032295    61A      2.172390    62A      2.255581  
      63A      2.302880    64A      2.306476    65A      2.346713  
      66A      2.443568    67A      2.465578    68A      2.640240  
      69A      2.651776    70A      2.652324    71A      2.684171  
      72A      2.743956    73A      2.784513    74A      2.938323  
      75A      2.951351    76A      3.077161    77A      4.564391  
      78A      4.687259    79A      4.817610    80A      4.937079  

    Final Occupation by Irrep:
              A 
    DOCC [    17 ]

  Energy converged.

  @DF-RHF Final Energy:  -157.29423474957974

   => Energetics <=

    Nuclear Repulsion Energy =            133.3644964015194887
    One-Electron Energy =                -474.7158857683454585
    Two-Electron Energy =                 184.0571546172461979
    DFT Exchange-Correlation Energy =       0.0000000000000000
    Empirical Dispersion Energy =           0.0000000000000000
    PCM Polarization Energy =               0.0000000000000000
    EFP Energy =                            0.0000000000000000
    Total Energy =                       -157.2942347495797719


  Saving occupied orbitals to File 180.

*** tstop() called on lski1497 at Mon Feb 20 17:35:06 2017
Module time:
	user time   =       4.85 seconds =       0.08 minutes
	system time =       0.20 seconds =       0.00 minutes
	total time  =          8 seconds =       0.13 minutes
Total time:
	user time   =      27.53 seconds =       0.46 minutes
	system time =       0.92 seconds =       0.02 minutes
	total time  =         40 seconds =       0.67 minutes


Properties will be evaluated at   0.000000,   0.000000,   0.000000 Bohr

Properties computed using the SCF density matrix

  Nuclear Dipole Moment: (a.u.)
     X:    -0.6092      Y:    -0.2079      Z:    -0.6876

  Electronic Dipole Moment: (a.u.)
     X:     0.6287      Y:     0.2141      Z:     0.7093

  Dipole Moment: (a.u.)
     X:     0.0195      Y:     0.0062      Z:     0.0217     Total:     0.0298

  Dipole Moment: (Debye)
     X:     0.0496      Y:     0.0158      Z:     0.0552     Total:     0.0758


  //>>>>>>>>>>>>>>>>>>>>>>>>>>>>>>>>>>>//
  //               DFMP2               //
  //<<<<<<<<<<<<<<<<<<<<<<<<<<<<<<<<<<<//


*** tstart() called on lski1497
*** at Mon Feb 20 17:35:06 2017


*** tstop() called on lski1497 at Mon Feb 20 17:35:07 2017
Module time:
	user time   =       0.52 seconds =       0.01 minutes
	system time =       0.01 seconds =       0.00 minutes
	total time  =          1 seconds =       0.02 minutes
Total time:
	user time   =      28.07 seconds =       0.47 minutes
	system time =       0.93 seconds =       0.02 minutes
	total time  =         41 seconds =       0.68 minutes
	 --------------------------------------------------------
	                          DF-MP2                         
	      2nd-Order Density-Fitted Moller-Plesset Theory     
	              RMP2 Wavefunction,   1 Threads             
	                                                         
	        Rob Parrish, Justin Turney, Andy Simmonett,      
	           Ed Hohenstein, and C. David Sherrill          
	 --------------------------------------------------------

   => Auxiliary Basis Set <=

  Basis Set: 
    Number of shells: 132
    Number of basis function: 364
    Number of Cartesian functions: 414
    Spherical Harmonics?: true
    Max angular momentum: 3

	 --------------------------------------------------------
	                 NBF =    80, NAUX =   364
	 --------------------------------------------------------
	   CLASS    FOCC     OCC    AOCC    AVIR     VIR    FVIR
	   PAIRS       0      17      17      63      63       0
	 --------------------------------------------------------

DGAS Warning! /src/lib/libfock/apps.cc:80 is not currently checking restricted

         ------------------------------------------------------------
                                     CPHF                           
                                  Rob Parrish                       
         ------------------------------------------------------------

  ==> Geometry <==

    Molecular point group: c1
    Full point group: C1

    Geometry (in Angstrom), charge = 0, multiplicity = 1:

       Center              X                  Y                   Z               Mass       
    ------------   -----------------  -----------------  -----------------  -----------------
           H         -1.928160998191     0.233757964367     0.805180562967     1.007825032070
           H         -1.757406734142     1.885420940523     0.213052202594     1.007825032070
           H         -1.508125447203     0.529882736903    -0.878192436910     1.007825032070
           C         -1.373995974339     0.876440405675     0.134921034772    12.000000000000
           H          0.662971041463     1.503358585329    -0.160817175718     1.007825032070
           H          0.229336616908     1.212319749597     1.528104673997     1.007825032070
           C          0.119765704754     0.853468026737     0.513035733952    12.000000000000
           H          1.755404399358    -0.534509502571     0.700580432701     1.007825032070
           H          0.175156284513    -1.217080705226     1.101547262897     1.007825032070
           C          0.710730878112    -0.569734281985     0.419675724983    12.000000000000
           H          1.023376182290    -2.135360764932    -1.038390599690     1.007825032070
           H          1.134693505085    -0.504922571226    -1.696605211665     1.007825032070
           H         -0.437118159240    -1.194614844097    -1.307910924387     1.007825032070
           C          0.598079273860    -1.141550517113    -1.006033286001    12.000000000000

  Nuclear repulsion =  133.364496401519489
  Reference energy  = -157.294234749579743

  ==> Basis Set <==

  Basis Set: 6-31G(D)
    Number of shells: 44
    Number of basis function: 80
    Number of Cartesian functions: 80
    Spherical Harmonics?: false
    Max angular momentum: 2

  ==> CGRSolver (by Rob Parrish) <==

   Number of roots    =         1
   Preconditioning    =    JACOBI
   Convergence cutoff =     1E-06
   Maximum iterations =       100

  ==> CPHFRHamiltonian (by Rob Parrish) <== 

  ==> DFJK: Density-Fitted J/K Matrices <==

    J tasked:                  Yes
    K tasked:                  Yes
    wK tasked:                  No
    OpenMP threads:              1
    Integrals threads:           1
    Memory (MB):               715
    Algorithm:                Core
    Integral Cache:           NONE
    Schwarz Cutoff:          1E-12
    Fitting Condition:       1E-12

   => Auxiliary Basis Set <=

  Basis Set: 
    Number of shells: 186
    Number of basis function: 574
    Number of Cartesian functions: 574
    Spherical Harmonics?: false
    Max angular momentum: 3

  ==> CPHF Iterations <==

  => Iterations <=

             Iter  Converged  Remaining    Residual
  CGR           1          0          1   7.481E-02
  CGR           2          0          1   8.595E-03
  CGR           3          0          1   2.322E-03
  CGR           4          0          1   4.339E-04
  CGR           5          0          1   7.740E-05
  CGR           6          0          1   1.434E-05
  CGR           7          0          1   1.924E-06
  CGR           8          1          0   4.340E-07

    CGRSolver converged.

  ==> DFCorrGrad: Density-Fitted Correlated Gradients <==

    OpenMP threads:              1
    Integrals threads:           1
    Memory (MB):               715
    Schwarz Cutoff:          0E+00
    Fitting Condition:       1E-12

   => Auxiliary Basis Set <=

  Basis Set: 
    Number of shells: 186
    Number of basis function: 510
    Number of Cartesian functions: 574
    Spherical Harmonics?: true
    Max angular momentum: 3

	-----------------------------------------------------------
	 ==================> DF-MP2 Energies <==================== 
	-----------------------------------------------------------
	 Reference Energy          =    -157.2942347495797435 [Eh]
	 Singles Energy            =      -0.0000000000000000 [Eh]
	 Same-Spin Energy          =      -0.1246960500398141 [Eh]
	 Opposite-Spin Energy      =      -0.4216720393734575 [Eh]
	 Correlation Energy        =      -0.5463680894132716 [Eh]
	 Total Energy              =    -157.8406028389930214 [Eh]
	-----------------------------------------------------------
	 ================> DF-SCS-MP2 Energies <================== 
	-----------------------------------------------------------
	 SCS Same-Spin Scale       =       0.3333333333333333 [-]
	 SCS Opposite-Spin Scale   =       1.2000000000000000 [-]
	 SCS Same-Spin Energy      =      -0.0415653500132714 [Eh]
	 SCS Opposite-Spin Energy  =      -0.5060064472481490 [Eh]
	 SCS Correlation Energy    =      -0.5475717972614204 [Eh]
	 SCS Total Energy          =    -157.8418065468411555 [Eh]
	-----------------------------------------------------------


  -Total Gradient:
     Atom            X                  Y                   Z
    ------   -----------------  -----------------  -----------------
       1        0.006427480194     0.004595116934    -0.004117009839
       2        0.005192502239    -0.006102416664    -0.000213946318
       3        0.004361480614     0.000792397632     0.007277477374
       4       -0.019185732973    -0.003114350948    -0.005913386545
       5       -0.006091704127    -0.007213764578     0.002689304509
       6       -0.003226827256    -0.006002957571    -0.006851174363
       7        0.012943278766     0.020658649618     0.005642282521
       8       -0.007582718175     0.002232606943    -0.005394890914
       9        0.001572929373     0.005741984104    -0.008055778687
      10        0.008969377827    -0.013297080061     0.019036825774
      11       -0.002911595858     0.007446112681     0.002881991796
      12       -0.003503663756    -0.003566534274     0.007106797166
      13        0.006094416965     0.002919246485     0.004614029430
      14       -0.003059223835    -0.005089010299    -0.018702521905


			-----------------------------------------
			 OPTKING 2.0: for geometry optimizations 
			  - R.A. King,  Bethel University        
			-----------------------------------------

	Previous internal coordinate definitions found.
	---Fragment 1 Geometry and Gradient---
	 H          -3.6436962267        0.4417385340        1.5215707515
	 H          -3.3210174316        3.5629292228        0.4026103149
	 H          -2.8499440692        1.0013332553       -1.6595431977
	 C          -2.5964760992        1.6562323385        0.2549638053
	 H           1.2528337024        2.8409360058       -0.3039004196
	 H           0.4333833982        2.2909523122        2.8876993362
	 C           0.2263243821        1.6128208337        0.9694970336
	 H           3.3172335672       -1.0100765753        1.3239051519
	 H           0.3309974082       -2.2999492145        2.0816226493
	 C           1.3430867138       -1.0766417615        0.7930721848
	 H           1.9339007154       -4.0352470406       -1.9622738524
	 H           2.1442599694       -0.9541653779       -3.2061192057
	 H          -0.8260336087       -2.2574948896       -2.4715934533
	 C           1.1302060334       -2.1572178442       -1.9011273911
	             0.0064274802        0.0045951169       -0.0041170098
	             0.0051925022       -0.0061024167       -0.0002139463
	             0.0043614806        0.0007923976        0.0072774774
	            -0.0191857330       -0.0031143509       -0.0059133865
	            -0.0060917041       -0.0072137646        0.0026893045
	            -0.0032268273       -0.0060029576       -0.0068511744
	             0.0129432788        0.0206586496        0.0056422825
	            -0.0075827182        0.0022326069       -0.0053948909
	             0.0015729294        0.0057419841       -0.0080557787
	             0.0089693778       -0.0132970801        0.0190368258
	            -0.0029115959        0.0074461127        0.0028819918
	            -0.0035036638       -0.0035665343        0.0071067972
	             0.0060944170        0.0029192465        0.0046140294
	            -0.0030592238       -0.0050890103       -0.0187025219

	---Fragment 1 Intrafragment Coordinates---
	 - Coordinate -           - BOHR/RAD -       - ANG/DEG -
	 R(1,4)           =         2.043516	       1.081382
	 R(2,4)           =         2.045056	       1.082197
	 R(3,4)           =         2.039234	       1.079116
	 R(4,7)           =         2.912155	       1.541046
	 R(5,7)           =         2.045368	       1.082362
	 R(6,7)           =         2.045052	       1.082195
	 R(7,10)          =         2.917446	       1.543846
	 R(8,10)          =         2.045353	       1.082354
	 R(9,10)          =         2.044790	       1.082057
	 R(10,14)         =         2.910614	       1.540231
	 R(11,14)         =         2.043687	       1.081473
	 R(12,14)         =         2.044173	       1.081730
	 R(13,14)         =         2.040186	       1.079620
	 B(1,4,2)         =         1.904769	     109.135252
	 B(1,4,3)         =         1.904290	     109.107787
	 B(1,4,7)         =         1.913247	     109.620990
	 B(2,4,3)         =         1.899870	     108.854526
	 B(2,4,7)         =         1.917291	     109.852668
	 B(3,4,7)         =         1.924154	     110.245881
	 B(4,7,5)         =         1.901558	     108.951265
	 B(4,7,6)         =         1.900056	     108.865171
	 B(4,7,10)        =         1.949748	     111.712345
	 B(5,7,6)         =         1.911386	     109.514350
	 B(5,7,10)        =         1.900495	     108.890334
	 B(6,7,10)        =         1.900379	     108.883704
	 B(7,10,8)        =         1.900503	     108.890799
	 B(7,10,9)        =         1.900680	     108.900946
	 B(7,10,14)       =         1.950043	     111.729260
	 B(8,10,9)        =         1.910971	     109.490564
	 B(8,10,14)       =         1.899598	     108.838976
	 B(9,10,14)       =         1.901810	     108.965701
	 B(10,14,11)      =         1.917812	     109.882531
	 B(10,14,12)      =         1.913626	     109.642700
	 B(10,14,13)      =         1.925382	     110.316259
	 B(11,14,12)      =         1.903541	     109.064882
	 B(11,14,13)      =         1.900268	     108.877336
	 B(12,14,13)      =         1.902951	     109.031058
	 D(1,4,7,5)       =        -3.136784	    -179.724507
	 D(1,4,7,6)       =        -1.053247	     -60.346599
	 D(1,4,7,10)      =         1.046008	      59.931838
	 D(2,4,7,5)       =        -1.043875	     -59.809640
	 D(2,4,7,6)       =         1.039662	      59.568268
	 D(2,4,7,10)      =         3.138917	     179.846705
	 D(3,4,7,5)       =         1.049810	      60.149678
	 D(3,4,7,6)       =         3.133347	     179.527586
	 D(3,4,7,10)      =        -1.050583	     -60.193976
	 D(4,7,10,8)      =        -3.134448	    -179.590668
	 D(4,7,10,9)      =        -1.051664	     -60.255935
	 D(4,7,10,14)     =         1.049974	      60.159082
	 D(5,7,10,8)      =         1.047722	      60.030023
	 D(5,7,10,9)      =         3.130506	     179.364756
	 D(5,7,10,14)     =        -1.051041	     -60.220227
	 D(6,7,10,8)      =        -1.035383	     -59.323086
	 D(6,7,10,9)      =         1.047401	      60.011647
	 D(6,7,10,14)     =        -3.134146	    -179.573336
	 D(7,10,14,11)    =         3.137767	     179.780799
	 D(7,10,14,12)    =         1.045810	      59.920527
	 D(7,10,14,13)    =        -1.050134	     -60.168268
	 D(8,10,14,11)    =         1.038474	      59.500204
	 D(8,10,14,12)    =        -1.053482	     -60.360068
	 D(8,10,14,13)    =         3.133759	     179.551138
	 D(9,10,14,11)    =        -1.044441	     -59.842051
	 D(9,10,14,12)    =        -3.136397	    -179.702323
	 D(9,10,14,13)    =         1.050843	      60.208883

	Current energy   :      -157.8406028390

	Energy change for the previous step:
		Projected    :        -0.0067820477
		Actual       :        -0.0049579789

	Performing BFGS update.
	Previous computed or guess Hessian on step 1.
	Steps to be used in Hessian update: 1
	Adding user-defined constraint: Fragment 1; Coordinate 49:
		Value =     1.049974; Fixed value    =     1.047200
		Force =    -0.001456; Force constant =     0.525000
	Removing off-diagonal coupling between coordinate 49 and others.
	Taking RFO optimization step.
	Going to follow RFO solution 1.
	Using RFO vector 1.

	Determining step-restricting scale parameter for RS-RFO.
	Maximum step size allowed    0.10000

	 Iter      |step|        alpha        rfo_root  
	------------------------------------------------
	    0     0.18605       1.00000           1
	    1     0.15208       3.98453           1
	    2     0.12218      12.70912           1
	    3     0.10584      23.00641           1
	    4     0.10057      27.90196           1
	    5     0.10001      28.48545           1
	------------------------------------------------
	Norm of target step-size    0.10001
	Projected energy change by RFO approximation:        -0.0027777380

	Back-transformation to cartesian coordinates...
	Could not converge backtransformation.
	Using first guess instead.

	--- Internal Coordinate Step in ANG or DEG, aJ/ANG or AJ/DEG ---
	 ---------------------------------------------------------------------------
	   Coordinate                Previous        Force       Change         New 
	   ----------                --------       ------       ------       ------
	    1 R(1,4)          =      1.081382     0.070660     0.010926     1.092308
	    2 R(2,4)          =      1.082197     0.062158     0.009422     1.091619
	    3 R(3,4)          =      1.079116     0.062853     0.011286     1.090402
	    4 R(4,7)          =      1.541046    -0.031117    -0.008079     1.532967
	    5 R(5,7)          =      1.082362     0.074667     0.011591     1.093953
	    6 R(6,7)          =      1.082195     0.072035     0.010917     1.093111
	    7 R(7,10)         =      1.543846    -0.025371    -0.009281     1.534565
	    8 R(8,10)         =      1.082354     0.071234     0.010806     1.093161
	    9 R(9,10)         =      1.082057     0.076539     0.011847     1.093904
	   10 R(10,14)        =      1.540231    -0.028072    -0.007488     1.532743
	   11 R(11,14)        =      1.081473     0.066518     0.010029     1.091501
	   12 R(12,14)        =      1.081730     0.068991     0.010684     1.092414
	   13 R(13,14)        =      1.079620     0.059956     0.010864     1.090484
	   14 B(1,4,2)        =    109.135252    -0.000203    -0.664056   108.471197
	   15 B(1,4,3)        =    109.107787    -0.000209    -0.696651   108.411137
	   16 B(1,4,7)        =    109.620990     0.000165     0.628006   110.248995
	   17 B(2,4,3)        =    108.854526    -0.000261    -0.712206   108.142320
	   18 B(2,4,7)        =    109.852668     0.000179     0.540166   110.392834
	   19 B(3,4,7)        =    110.245881     0.000317     0.847914   111.093795
	   20 B(4,7,5)        =    108.951265    -0.000119     0.017477   108.968742
	   21 B(4,7,6)        =    108.865171    -0.000167    -0.058860   108.806311
	   22 B(4,7,10)       =    111.712345     0.000675     1.169207   112.881551
	   23 B(5,7,6)        =    109.514350    -0.000059    -0.778011   108.736339
	   24 B(5,7,10)       =    108.890334    -0.000159    -0.152904   108.737430
	   25 B(6,7,10)       =    108.883704    -0.000179    -0.249782   108.633922
	   26 B(7,10,8)       =    108.890799    -0.000181    -0.255903   108.634896
	   27 B(7,10,9)       =    108.900946    -0.000160    -0.157026   108.743920
	   28 B(7,10,14)      =    111.729260     0.000675     1.162989   112.892249
	   29 B(8,10,9)       =    109.490564    -0.000058    -0.772541   108.718024
	   30 B(8,10,14)      =    108.838976    -0.000164    -0.046565   108.792411
	   31 B(9,10,14)      =    108.965701    -0.000120     0.015857   108.981558
	   32 B(10,14,11)     =    109.882531     0.000177     0.527817   110.410347
	   33 B(10,14,12)     =    109.642700     0.000159     0.610607   110.253307
	   34 B(10,14,13)     =    110.316259     0.000308     0.814453   111.130712
	   35 B(11,14,12)     =    109.064882    -0.000195    -0.633199   108.431684
	   36 B(11,14,13)     =    108.877336    -0.000260    -0.715708   108.161629
	   37 B(12,14,13)     =    109.031058    -0.000200    -0.661053   108.370005
	   38 D(1,4,7,5)      =   -179.724507     0.000029     0.449537  -179.274970
	   39 D(1,4,7,6)      =    -60.346599    -0.000026    -0.512526   -60.859125
	   40 D(1,4,7,10)     =     59.931838    -0.000005    -0.120816    59.811022
	   41 D(2,4,7,5)      =    -59.809640     0.000021     0.364045   -59.445596
	   42 D(2,4,7,6)      =     59.568268    -0.000034    -0.598018    58.970249
	   43 D(2,4,7,10)     =    179.846705    -0.000013    -0.206309   179.640396
	   44 D(3,4,7,5)      =     60.149678     0.000019     0.368946    60.518624
	   45 D(3,4,7,6)      =    179.527586    -0.000036    -0.593117   178.934469
	   46 D(3,4,7,10)     =    -60.193976    -0.000015    -0.201408   -60.395384
	   47 D(4,7,10,8)     =   -179.590668     0.000036     0.626124  -178.964545
	   48 D(4,7,10,9)     =    -60.255935    -0.000026    -0.540349   -60.796285
	   49 D(4,7,10,14)    =     60.159082     0.000013     0.117897    60.276978
	   50 D(5,7,10,8)     =     60.030023    -0.000003    -0.040133    59.989890
	   51 D(5,7,10,9)     =    179.364756    -0.000065    -1.206606   178.158150
	   52 D(5,7,10,14)    =    -60.220227    -0.000026    -0.548359   -60.768587
	   53 D(6,7,10,8)     =    -59.323086     0.000058     1.127000   -58.196086
	   54 D(6,7,10,9)     =     60.011647    -0.000003    -0.039473    59.972174
	   55 D(6,7,10,14)    =   -179.573336     0.000036     0.618773  -178.954563
	   56 D(7,10,14,11)   =    179.780799    -0.000012    -0.187146   179.593652
	   57 D(7,10,14,12)   =     59.920527    -0.000005    -0.121062    59.799465
	   58 D(7,10,14,13)   =    -60.168268    -0.000016    -0.213982   -60.382250
	   59 D(8,10,14,11)   =     59.500204    -0.000033    -0.575212    58.924992
	   60 D(8,10,14,12)   =    -60.360068    -0.000025    -0.509128   -60.869196
	   61 D(8,10,14,13)   =    179.551138    -0.000036    -0.602048   178.949090
	   62 D(9,10,14,11)   =    -59.842051     0.000021     0.373875   -59.468176
	   63 D(9,10,14,12)   =   -179.702323     0.000029     0.439959  -179.262363
	   64 D(9,10,14,13)   =     60.208883     0.000018     0.347040    60.555923
	 ---------------------------------------------------------------------------
	 Forces used to impose fixed constraints are not included.
	  Forces zeroed: 49 

  ==> Convergence Check <==

  Measures of convergence in internal coordinates in au.
  Criteria marked as inactive (o), active & met (*), and active & unmet ( ).
  ---------------------------------------------------------------------------------------------
   Step     Total Energy     Delta E     MAX Force     RMS Force      MAX Disp      RMS Disp   
  ---------------------------------------------------------------------------------------------
    Convergence Criteria    1.00e-06 *    3.00e-04 *             o    1.20e-03 *             o
  ---------------------------------------------------------------------------------------------
      2    -157.84060284   -4.96e-03      9.29e-03      4.15e-03 o    2.24e-02      1.25e-02 o  ~
  ---------------------------------------------------------------------------------------------

	Writing optimization data to binary file.
	Structure for next step:
	Cartesian Geometry (in Angstrom)
	    H    -1.9507850685   0.2441785297   0.8104933486
	    H    -1.7596791261   1.9094528136   0.2354544249
	    H    -1.5387316002   0.5590149961  -0.8823009432
	    C    -1.3767821648   0.8913318714   0.1435225434
	    H     0.6634356671   1.5090912082  -0.1611538742
	    H     0.2324587403   1.2024839577   1.5359313101
	    C     0.1109939045   0.8450273098   0.5100838184
	    H     1.7593227311  -0.5219050835   0.7010282651
	    H     0.1761724340  -1.2222006690   1.1039506459
	    C     0.7069212610  -0.5654502703   0.4085296063
	    H     1.0517992178  -2.1511198016  -1.0317030572
	    H     1.1462204339  -0.5190162285  -1.7143882409
	    H    -0.4275435017  -1.2309975281  -1.3274384862
	    C     0.6109036450  -1.1530158833  -1.0038613666
			--------------------------
			 OPTKING Finished Execution 
			--------------------------

    Structure for next step:
    Molecular point group: c1
    Full point group: C1

    Geometry (in Angstrom), charge = 0, multiplicity = 1:

    H           -1.950303723041     0.244316807686     0.811122579836
    H           -1.759197780644     1.909591091644     0.236083656196
    H           -1.538250254729     0.559153274080    -0.881671711917
    C           -1.376300819340     0.891470149396     0.144151774717
    H            0.663917012637     1.509229486210    -0.160524642946
    H            0.232940085792     1.202622235704     1.536560541368
    C            0.111475249977     0.845165587870     0.510713049706
    H            1.759804076592    -0.521766805489     0.701657496408
    H            0.176653779500    -1.222062390947     1.104579877217
    C            0.707402606454    -0.565311992247     0.409158837619
    H            1.052280563249    -2.150981523610    -1.031073825926
    H            1.146701779446    -0.518877950515    -1.713759009623
    H           -0.427062156156    -1.230859250080    -1.326809254942
    C            0.611384990450    -1.152877605316    -1.003232135301

gradient() will perform analytic gradient computation.
    SCF Algorithm Type (re)set to DF.

*** tstart() called on lski1497
*** at Mon Feb 20 17:35:30 2017


         ---------------------------------------------------------
                                   SCF
            by Justin Turney, Rob Parrish, and Andy Simmonett
                              RHF Reference
                        1 Threads,   1000 MiB Core
         ---------------------------------------------------------

  ==> Geometry <==

    Molecular point group: c1
    Full point group: C1

    Geometry (in Angstrom), charge = 0, multiplicity = 1:

       Center              X                  Y                   Z               Mass       
    ------------   -----------------  -----------------  -----------------  -----------------
           H         -1.950303723041     0.244316807686     0.811122579836     1.007825032070
           H         -1.759197780644     1.909591091644     0.236083656196     1.007825032070
           H         -1.538250254729     0.559153274080    -0.881671711917     1.007825032070
           C         -1.376300819340     0.891470149396     0.144151774717    12.000000000000
           H          0.663917012637     1.509229486210    -0.160524642946     1.007825032070
           H          0.232940085792     1.202622235704     1.536560541368     1.007825032070
           C          0.111475249977     0.845165587870     0.510713049706    12.000000000000
           H          1.759804076592    -0.521766805489     0.701657496408     1.007825032070
           H          0.176653779500    -1.222062390947     1.104579877217     1.007825032070
           C          0.707402606454    -0.565311992247     0.409158837619    12.000000000000
           H          1.052280563249    -2.150981523610    -1.031073825926     1.007825032070
           H          1.146701779446    -0.518877950515    -1.713759009623     1.007825032070
           H         -0.427062156156    -1.230859250080    -1.326809254942     1.007825032070
           C          0.611384990450    -1.152877605316    -1.003232135301    12.000000000000

  Running in c1 symmetry.

  Rotational constants: A =      0.43049  B =      0.16479  C =      0.13795 [cm^-1]
  Rotational constants: A =  12905.74327  B =   4940.34475  C =   4135.78242 [MHz]
  Nuclear repulsion =  132.942688157409805

  Charge       = 0
  Multiplicity = 1
  Electrons    = 34
  Nalpha       = 17
  Nbeta        = 17

  ==> Algorithm <==

  SCF Algorithm Type is DF.
  DIIS enabled.
  MOM disabled.
  Fractional occupation disabled.
  Guess Type is READ.
  Energy threshold   = 1.00e-10
  Density threshold  = 1.00e-10
  Integral threshold = 0.00e+00

  ==> Primary Basis <==

  Basis Set: 6-31G(D)
    Number of shells: 44
    Number of basis function: 80
    Number of Cartesian functions: 80
    Spherical Harmonics?: false
    Max angular momentum: 2

  ==> Pre-Iterations <==

   -------------------------------------------------------
    Irrep   Nso     Nmo     Nalpha   Nbeta   Ndocc  Nsocc
   -------------------------------------------------------
     A         80      80       0       0       0       0
   -------------------------------------------------------
    Total      80      80      17      17      17       0
   -------------------------------------------------------

  ==> Integral Setup <==

  ==> DFJK: Density-Fitted J/K Matrices <==

    J tasked:                  Yes
    K tasked:                  Yes
    wK tasked:                  No
    OpenMP threads:              1
    Integrals threads:           1
    Memory (MB):               715
    Algorithm:                Core
    Integral Cache:           NONE
    Schwarz Cutoff:          1E-12
    Fitting Condition:       1E-12

   => Auxiliary Basis Set <=

  Basis Set: 
    Number of shells: 186
    Number of basis function: 574
    Number of Cartesian functions: 574
    Spherical Harmonics?: false
    Max angular momentum: 3

  Minimum eigenvalue in the overlap matrix is 5.3421096341E-03.
  Using Symmetric Orthogonalization.
  SCF Guess was Projection but file not found.
  Switching over to SAD guess.

  SCF Guess: Superposition of Atomic Densities via on-the-fly atomic UHF.

  ==> Iterations <==

                           Total Energy        Delta E     RMS |[F,P]|

   @DF-RHF iter   0:  -158.83704172344778   -1.58837e+02   4.61578e-02 
   @DF-RHF iter   1:  -157.20395144559046    1.63309e+00   3.95772e-03 
   @DF-RHF iter   2:  -157.28667925511439   -8.27278e-02   1.11291e-03 DIIS
   @DF-RHF iter   3:  -157.29497168804784   -8.29243e-03   2.64675e-04 DIIS
   @DF-RHF iter   4:  -157.29537060921723   -3.98921e-04   8.22727e-05 DIIS
   @DF-RHF iter   5:  -157.29540966293808   -3.90537e-05   1.36351e-05 DIIS
   @DF-RHF iter   6:  -157.29541111824580   -1.45531e-06   1.92696e-06 DIIS
   @DF-RHF iter   7:  -157.29541113984607   -2.16003e-08   6.25471e-07 DIIS
   @DF-RHF iter   8:  -157.29541114156660   -1.72054e-09   1.13089e-07 DIIS
   @DF-RHF iter   9:  -157.29541114165681   -9.02105e-11   2.74792e-08 DIIS
   @DF-RHF iter  10:  -157.29541114166244   -5.62750e-12   6.30652e-09 DIIS
   @DF-RHF iter  11:  -157.29541114166278   -3.41061e-13   1.73432e-09 DIIS
   @DF-RHF iter  12:  -157.29541114166273    5.68434e-14   3.53002e-10 DIIS
   @DF-RHF iter  13:  -157.29541114166233    3.97904e-13   7.40860e-11 DIIS

  ==> Post-Iterations <==

    Orbital Energies (a.u.)
    -----------------------

    Doubly Occupied:                                                      

       1A    -11.215529     2A    -11.214945     3A    -11.208892  
       4A    -11.208884     5A     -1.069752     6A     -0.973046  
       7A     -0.872358     8A     -0.773002     9A     -0.626847  
      10A     -0.620129    11A     -0.573612    12A     -0.532021  
      13A     -0.529850    14A     -0.502470    15A     -0.463511  
      16A     -0.456701    17A     -0.454279  

    Virtual:                                                              

      18A      0.228674    19A      0.275900    20A      0.282869  
      21A      0.296733    22A      0.316070    23A      0.316329  
      24A      0.335601    25A      0.344278    26A      0.357698  
      27A      0.380300    28A      0.405779    29A      0.409061  
      30A      0.457957    31A      0.709105    32A      0.726673  
      33A      0.727630    34A      0.744116    35A      0.769243  
      36A      0.846470    37A      0.872442    38A      0.926870  
      39A      0.954374    40A      1.001780    41A      1.098089  
      42A      1.109709    43A      1.151115    44A      1.154644  
      45A      1.174559    46A      1.181958    47A      1.189706  
      48A      1.217332    49A      1.235040    50A      1.245114  
      51A      1.250314    52A      1.278205    53A      1.290637  
      54A      1.540570    55A      1.708478    56A      1.719259  
      57A      1.820230    58A      1.861586    59A      1.970160  
      60A      2.028045    61A      2.173067    62A      2.255077  
      63A      2.298646    64A      2.302384    65A      2.341428  
      66A      2.435729    67A      2.453971    68A      2.626086  
      69A      2.637683    70A      2.644867    71A      2.680498  
      72A      2.737110    73A      2.780350    74A      2.953388  
      75A      2.954919    76A      3.076281    77A      4.559381  
      78A      4.680411    79A      4.814872    80A      4.934439  

    Final Occupation by Irrep:
              A 
    DOCC [    17 ]

  Energy converged.

  @DF-RHF Final Energy:  -157.29541114166233

   => Energetics <=

    Nuclear Repulsion Energy =            132.9426881574098047
    One-Electron Energy =                -473.8845408287565988
    Two-Electron Energy =                 183.6464415296843526
    DFT Exchange-Correlation Energy =       0.0000000000000000
    Empirical Dispersion Energy =           0.0000000000000000
    PCM Polarization Energy =               0.0000000000000000
    EFP Energy =                            0.0000000000000000
    Total Energy =                       -157.2954111416624414


  Saving occupied orbitals to File 180.

*** tstop() called on lski1497 at Mon Feb 20 17:35:37 2017
Module time:
	user time   =       4.79 seconds =       0.08 minutes
	system time =       0.25 seconds =       0.00 minutes
	total time  =          7 seconds =       0.12 minutes
Total time:
	user time   =      50.06 seconds =       0.83 minutes
	system time =       1.81 seconds =       0.03 minutes
	total time  =         71 seconds =       1.18 minutes


Properties will be evaluated at   0.000000,   0.000000,   0.000000 Bohr

Properties computed using the SCF density matrix

  Nuclear Dipole Moment: (a.u.)
     X:    -0.6023      Y:    -0.2059      Z:    -0.6786

  Electronic Dipole Moment: (a.u.)
     X:     0.6205      Y:     0.2120      Z:     0.6988

  Dipole Moment: (a.u.)
     X:     0.0181      Y:     0.0061      Z:     0.0202     Total:     0.0278

  Dipole Moment: (Debye)
     X:     0.0460      Y:     0.0156      Z:     0.0514     Total:     0.0708


  //>>>>>>>>>>>>>>>>>>>>>>>>>>>>>>>>>>>//
  //               DFMP2               //
  //<<<<<<<<<<<<<<<<<<<<<<<<<<<<<<<<<<<//


*** tstart() called on lski1497
*** at Mon Feb 20 17:35:37 2017


*** tstop() called on lski1497 at Mon Feb 20 17:35:38 2017
Module time:
	user time   =       0.50 seconds =       0.01 minutes
	system time =       0.01 seconds =       0.00 minutes
	total time  =          1 seconds =       0.02 minutes
Total time:
	user time   =      50.58 seconds =       0.84 minutes
	system time =       1.82 seconds =       0.03 minutes
	total time  =         72 seconds =       1.20 minutes
	 --------------------------------------------------------
	                          DF-MP2                         
	      2nd-Order Density-Fitted Moller-Plesset Theory     
	              RMP2 Wavefunction,   1 Threads             
	                                                         
	        Rob Parrish, Justin Turney, Andy Simmonett,      
	           Ed Hohenstein, and C. David Sherrill          
	 --------------------------------------------------------

   => Auxiliary Basis Set <=

  Basis Set: 
    Number of shells: 132
    Number of basis function: 364
    Number of Cartesian functions: 414
    Spherical Harmonics?: true
    Max angular momentum: 3

	 --------------------------------------------------------
	                 NBF =    80, NAUX =   364
	 --------------------------------------------------------
	   CLASS    FOCC     OCC    AOCC    AVIR     VIR    FVIR
	   PAIRS       0      17      17      63      63       0
	 --------------------------------------------------------

DGAS Warning! /src/lib/libfock/apps.cc:80 is not currently checking restricted

         ------------------------------------------------------------
                                     CPHF                           
                                  Rob Parrish                       
         ------------------------------------------------------------

  ==> Geometry <==

    Molecular point group: c1
    Full point group: C1

    Geometry (in Angstrom), charge = 0, multiplicity = 1:

       Center              X                  Y                   Z               Mass       
    ------------   -----------------  -----------------  -----------------  -----------------
           H         -1.950303723041     0.244316807686     0.811122579836     1.007825032070
           H         -1.759197780644     1.909591091644     0.236083656196     1.007825032070
           H         -1.538250254729     0.559153274080    -0.881671711917     1.007825032070
           C         -1.376300819340     0.891470149396     0.144151774717    12.000000000000
           H          0.663917012637     1.509229486210    -0.160524642946     1.007825032070
           H          0.232940085792     1.202622235704     1.536560541368     1.007825032070
           C          0.111475249977     0.845165587870     0.510713049706    12.000000000000
           H          1.759804076592    -0.521766805489     0.701657496408     1.007825032070
           H          0.176653779500    -1.222062390947     1.104579877217     1.007825032070
           C          0.707402606454    -0.565311992247     0.409158837619    12.000000000000
           H          1.052280563249    -2.150981523610    -1.031073825926     1.007825032070
           H          1.146701779446    -0.518877950515    -1.713759009623     1.007825032070
           H         -0.427062156156    -1.230859250080    -1.326809254942     1.007825032070
           C          0.611384990450    -1.152877605316    -1.003232135301    12.000000000000

  Nuclear repulsion =  132.942688157409805
  Reference energy  = -157.295411141662328

  ==> Basis Set <==

  Basis Set: 6-31G(D)
    Number of shells: 44
[...]
    Number of shells: 186
    Number of basis function: 574
    Number of Cartesian functions: 574
    Spherical Harmonics?: false
    Max angular momentum: 3

  ==> CPHF Iterations <==

  => Iterations <=

             Iter  Converged  Remaining    Residual
  CGR           1          0          1   7.652E-02
  CGR           2          0          1   8.981E-03
  CGR           3          0          1   2.426E-03
  CGR           4          0          1   4.350E-04
  CGR           5          0          1   7.982E-05
  CGR           6          0          1   1.502E-05
  CGR           7          0          1   1.964E-06
  CGR           8          1          0   4.255E-07

    CGRSolver converged.

  ==> DFCorrGrad: Density-Fitted Correlated Gradients <==

    OpenMP threads:              1
    Integrals threads:           1
    Memory (MB):               715
    Schwarz Cutoff:          0E+00
    Fitting Condition:       1E-12

   => Auxiliary Basis Set <=

  Basis Set: 
    Number of shells: 186
    Number of basis function: 510
    Number of Cartesian functions: 574
    Spherical Harmonics?: true
    Max angular momentum: 3

	-----------------------------------------------------------
	 ==================> DF-MP2 Energies <==================== 
	-----------------------------------------------------------
	 Reference Energy          =    -157.2962140246692968 [Eh]
	 Singles Energy            =      -0.0000000000000000 [Eh]
	 Same-Spin Energy          =      -0.1246805317539627 [Eh]
	 Opposite-Spin Energy      =      -0.4225059894518298 [Eh]
	 Correlation Energy        =      -0.5471865212057925 [Eh]
	 Total Energy              =    -157.8434005458750846 [Eh]
	-----------------------------------------------------------
	 ================> DF-SCS-MP2 Energies <================== 
	-----------------------------------------------------------
	 SCS Same-Spin Scale       =       0.3333333333333333 [-]
	 SCS Opposite-Spin Scale   =       1.2000000000000000 [-]
	 SCS Same-Spin Energy      =      -0.0415601772513209 [Eh]
	 SCS Opposite-Spin Energy  =      -0.5070071873421957 [Eh]
	 SCS Correlation Energy    =      -0.5485673645935166 [Eh]
	 SCS Total Energy          =    -157.8447813892628062 [Eh]
	-----------------------------------------------------------


  -Total Gradient:
     Atom            X                  Y                   Z
    ------   -----------------  -----------------  -----------------
       1        0.000001351717    -0.000001938325     0.000004511828
       2       -0.000002412269     0.000008427052    -0.000001884682
       3       -0.000012232289    -0.000004541901    -0.000010219863
       4        0.000139395263     0.000104878296    -0.000585218407
       5       -0.000018862975     0.000002880155    -0.000006905823
       6        0.000031837284    -0.000000040531     0.000011133264
       7       -0.000407723629    -0.000256028682     0.000872409125
       8        0.000005490777     0.000012807930     0.000030730939
       9       -0.000002727607    -0.000010248751    -0.000017245348
      10        0.000814963063     0.000395281700    -0.000415083460
      11        0.000001197797    -0.000009444555     0.000000159783
      12        0.000003226620     0.000003582674     0.000000868974
      13       -0.000008711237    -0.000002551070    -0.000013676266
      14       -0.000544792513    -0.000243063991     0.000130419936


			-----------------------------------------
			 OPTKING 2.0: for geometry optimizations 
			  - R.A. King,  Bethel University        
			-----------------------------------------

	Previous internal coordinate definitions found.
	---Fragment 1 Geometry and Gradient---
	 H          -3.6994413596        0.4168047611        1.4265459670
	 H          -3.3384963564        3.6295366904        0.5844694919
	 H          -2.9204954410        1.2525283331       -1.7129113124
	 C          -2.5939423447        1.7276951920        0.2693515966
	 H           1.2755420080        2.8644431428       -0.2803357555
	 H           0.4689009865        2.2897036815        2.8844411734
	 C           0.2031791179        1.5884755335        0.9533207112
	 H           3.3076487540       -0.9990614118        1.3579197377
	 H           0.3552323117       -2.3071222662        2.1122554967
	 C           1.3245073057       -1.0663860471        0.7627947981
	 H           2.1264567194       -4.0437550779       -1.9460100252
	 H           2.0561002598       -0.9784164782       -3.2725775039
	 H          -0.7929943442       -2.5216192205       -2.4586119122
	 C           1.1638088877       -2.2164460073       -1.8758817009
	             0.0000013517       -0.0000019383        0.0000045118
	            -0.0000024123        0.0000084271       -0.0000018847
	            -0.0000122323       -0.0000045419       -0.0000102199
	             0.0001393953        0.0001048783       -0.0005852184
	            -0.0000188630        0.0000028802       -0.0000069058
	             0.0000318373       -0.0000000405        0.0000111333
	            -0.0004077236       -0.0002560287        0.0008724091
	             0.0000054908        0.0000128079        0.0000307309
	            -0.0000027276       -0.0000102488       -0.0000172453
	             0.0008149631        0.0003952817       -0.0004150835
	             0.0000011978       -0.0000094446        0.0000001598
	             0.0000032266        0.0000035827        0.0000008690
	            -0.0000087112       -0.0000025511       -0.0000136763
	            -0.0005447925       -0.0002430640        0.0001304199

	---Fragment 1 Intrafragment Coordinates---
	 - Coordinate -           - BOHR/RAD -       - ANG/DEG -
	 R(1,4)           =         2.068734	       1.094727
	 R(2,4)           =         2.066558	       1.093575
	 R(3,4)           =         2.064410	       1.092438
	 R(4,7)           =         2.882895	       1.525562
	 R(5,7)           =         2.073635	       1.097321
	 R(6,7)           =         2.071607	       1.096247
	 R(7,10)          =         2.888246	       1.528394
	 R(8,10)          =         2.071607	       1.096247
	 R(9,10)          =         2.073636	       1.097321
	 R(10,14)         =         2.882894	       1.525562
	 R(11,14)         =         2.066559	       1.093576
	 R(12,14)         =         2.068734	       1.094727
	 R(13,14)         =         2.064409	       1.092438
	 B(1,4,2)         =         1.881085	     107.778234
	 B(1,4,3)         =         1.882555	     107.862437
	 B(1,4,7)         =         1.933895	     110.804011
	 B(2,4,3)         =         1.876800	     107.532737
	 B(2,4,7)         =         1.936743	     110.967174
	 B(3,4,7)         =         1.949989	     111.726151
	 B(4,7,5)         =         1.908047	     109.323026
	 B(4,7,6)         =         1.906324	     109.224307
	 B(4,7,10)        =         1.988241	     113.917840
	 B(5,7,6)         =         1.854550	     106.257877
	 B(5,7,10)        =         1.902430	     109.001215
	 B(6,7,10)        =         1.899521	     108.834546
	 B(7,10,8)        =         1.899521	     108.834517
	 B(7,10,9)        =         1.902430	     109.001185
	 B(7,10,14)       =         1.988242	     113.917887
	 B(8,10,9)        =         1.854550	     106.257863
	 B(8,10,14)       =         1.906324	     109.224304
	 B(9,10,14)       =         1.908047	     109.323051
	 B(10,14,11)      =         1.936745	     110.967315
	 B(10,14,12)      =         1.933895	     110.804047
	 B(10,14,13)      =         1.949989	     111.726134
	 B(11,14,12)      =         1.881086	     107.778262
	 B(11,14,13)      =         1.876800	     107.532710
	 B(12,14,13)      =         1.882552	     107.862268
	 D(1,4,7,5)       =         3.104258	     177.860888
	 D(1,4,7,6)       =        -1.156461	     -66.260345
	 D(1,4,7,10)      =         0.971377	      55.655830
	 D(2,4,7,5)       =        -1.089849	     -62.443769
	 D(2,4,7,6)       =         0.932617	      53.434998
	 D(2,4,7,10)      =         3.060455	     175.351173
	 D(3,4,7,5)       =         1.004524	      57.554977
	 D(3,4,7,6)       =         3.026990	     173.433744
	 D(3,4,7,10)      =        -1.128357	     -64.650081
	 D(4,7,10,8)      =        -3.102364	    -177.752378
	 D(4,7,10,9)      =        -1.086739	     -62.265533
	 D(4,7,10,14)     =         1.049231	      60.116506
	 D(5,7,10,8)      =         1.044852	      59.865626
	 D(5,7,10,9)      =         3.060478	     175.352470
	 D(5,7,10,14)     =        -1.086738	     -62.265490
	 D(6,7,10,8)      =        -0.970774	     -55.621268
	 D(6,7,10,9)      =         1.044851	      59.865577
	 D(6,7,10,14)     =        -3.102364	    -177.752384
	 D(7,10,14,11)    =         3.060455	     175.351138
	 D(7,10,14,12)    =         0.971374	      55.655643
	 D(7,10,14,13)    =        -1.128357	     -64.650067
	 D(8,10,14,11)    =         0.932616	      53.434971
	 D(8,10,14,12)    =        -1.156464	     -66.260524
	 D(8,10,14,13)    =         3.026990	     173.433766
	 D(9,10,14,11)    =        -1.089850	     -62.443792
	 D(9,10,14,12)    =         3.104255	     177.860713
	 D(9,10,14,13)    =         1.004524	      57.555003

	Current energy   :      -157.8434005459

	Energy change for the previous step:
		Projected    :        -0.0000032669
		Actual       :         0.0000011721

	Performing BFGS update.
	Previous computed or guess Hessian on step 1.
	Steps to be used in Hessian update: 7 6
	Adding user-defined constraint: Fragment 1; Coordinate 49:
		Value =     1.049231; Fixed value    =     1.047200
		Force =    -0.001371; Force constant =     0.675000
	Removing off-diagonal coupling between coordinate 49 and others.
	Taking RFO optimization step.
	Going to follow RFO solution 1.
	Using RFO vector 1.
	Norm of target step-size    0.00344
	Projected energy change by RFO approximation:        -0.0000008759

	Back-transformation to cartesian coordinates...
	Successfully converged to displaced geometry.

	--- Internal Coordinate Step in ANG or DEG, aJ/ANG or AJ/DEG ---
	 ---------------------------------------------------------------------------
	   Coordinate                Previous        Force       Change         New 
	   ----------                --------       ------       ------       ------
	    1 R(1,4)          =      1.094727    -0.000025    -0.000006     1.094721
	    2 R(2,4)          =      1.093575    -0.000069    -0.000015     1.093560
	    3 R(3,4)          =      1.092438    -0.000105    -0.000021     1.092418
	    4 R(4,7)          =      1.525562    -0.000193    -0.000039     1.525523
	    5 R(5,7)          =      1.097321     0.000032     0.000004     1.097324
	    6 R(6,7)          =      1.096247    -0.000119    -0.000024     1.096223
	    7 R(7,10)         =      1.528394     0.000095     0.000023     1.528417
	    8 R(8,10)         =      1.096247    -0.000120    -0.000024     1.096223
	    9 R(9,10)         =      1.097321     0.000032     0.000003     1.097324
	   10 R(10,14)        =      1.525562    -0.000191    -0.000038     1.525523
	   11 R(11,14)        =      1.093576    -0.000073    -0.000016     1.093560
	   12 R(12,14)        =      1.094727    -0.000025    -0.000006     1.094721
	   13 R(13,14)        =      1.092438    -0.000103    -0.000020     1.092418
	   14 B(1,4,2)        =    107.778234    -0.000000     0.000106   107.778340
	   15 B(1,4,3)        =    107.862437     0.000000     0.001598   107.864035
	   16 B(1,4,7)        =    110.804011     0.000001     0.003223   110.807234
	   17 B(2,4,3)        =    107.532737     0.000000     0.001376   107.534114
	   18 B(2,4,7)        =    110.967174     0.000000     0.001126   110.968300
	   19 B(3,4,7)        =    111.726151    -0.000001    -0.007238   111.718914
	   20 B(4,7,5)        =    109.323026    -0.000002     0.012334   109.335360
	   21 B(4,7,6)        =    109.224307     0.000002    -0.015420   109.208887
	   22 B(4,7,10)       =    113.917840    -0.000000    -0.004679   113.913161
	   23 B(5,7,6)        =    106.257877     0.000000     0.002420   106.260297
	   24 B(5,7,10)       =    109.001215    -0.000000     0.001364   109.002580
	   25 B(6,7,10)       =    108.834546     0.000001     0.004452   108.838999
	   26 B(7,10,8)       =    108.834517     0.000001     0.004491   108.839008
	   27 B(7,10,9)       =    109.001185    -0.000000     0.001393   109.002579
	   28 B(7,10,14)      =    113.917887    -0.000001    -0.004734   113.913152
	   29 B(8,10,9)       =    106.257863     0.000000     0.002408   106.260271
	   30 B(8,10,14)      =    109.224304     0.000002    -0.015407   109.208897
	   31 B(9,10,14)      =    109.323051    -0.000002     0.012323   109.335375
	   32 B(10,14,11)     =    110.967315     0.000000     0.000978   110.968294
	   33 B(10,14,12)     =    110.804047     0.000001     0.003209   110.807256
	   34 B(10,14,13)     =    111.726134    -0.000001    -0.007194   111.718940
	   35 B(11,14,12)     =    107.778262    -0.000000     0.000065   107.778327
	   36 B(11,14,13)     =    107.532710     0.000000     0.001388   107.534098
	   37 B(12,14,13)     =    107.862268     0.000000     0.001751   107.864020
	   38 D(1,4,7,5)      =    177.860888    -0.000000    -0.036707   177.824181
	   39 D(1,4,7,6)      =    -66.260345    -0.000000    -0.035551   -66.295896
	   40 D(1,4,7,10)     =     55.655830     0.000000    -0.044417    55.611413
	   41 D(2,4,7,5)      =    -62.443769    -0.000000    -0.033715   -62.477484
	   42 D(2,4,7,6)      =     53.434998    -0.000000    -0.032559    53.402440
	   43 D(2,4,7,10)     =    175.351173     0.000000    -0.041425   175.309748
	   44 D(3,4,7,5)      =     57.554977    -0.000000    -0.036068    57.518909
	   45 D(3,4,7,6)      =    173.433744    -0.000000    -0.034912   173.398832
	   46 D(3,4,7,10)     =    -64.650081     0.000000    -0.043778   -64.693859
	   47 D(4,7,10,8)     =   -177.752378    -0.000001    -0.031875  -177.784253
	   48 D(4,7,10,9)     =    -62.265533    -0.000001    -0.025813   -62.291347
	   49 D(4,7,10,14)    =     60.116506    -0.000002    -0.012107    60.104399
	   50 D(5,7,10,8)     =     59.865626    -0.000000    -0.045611    59.820015
	   51 D(5,7,10,9)     =    175.352470    -0.000000    -0.039550   175.312921
	   52 D(5,7,10,14)    =    -62.265490    -0.000001    -0.025844   -62.291334
	   53 D(6,7,10,8)     =    -55.621268    -0.000000    -0.051649   -55.672917
	   54 D(6,7,10,9)     =     59.865577    -0.000000    -0.045588    59.819989
	   55 D(6,7,10,14)    =   -177.752384    -0.000001    -0.031882  -177.784266
	   56 D(7,10,14,11)   =    175.351138     0.000000    -0.041376   175.309762
	   57 D(7,10,14,12)   =     55.655643     0.000000    -0.044210    55.611433
	   58 D(7,10,14,13)   =    -64.650067     0.000000    -0.043785   -64.693853
	   59 D(8,10,14,11)   =     53.434971    -0.000000    -0.032531    53.402440
	   60 D(8,10,14,12)   =    -66.260524    -0.000000    -0.035366   -66.295889
	   61 D(8,10,14,13)   =    173.433766    -0.000000    -0.034941   173.398825
	   62 D(9,10,14,11)   =    -62.443792    -0.000000    -0.033674   -62.477466
	   63 D(9,10,14,12)   =    177.860713    -0.000000    -0.036508   177.824205
	   64 D(9,10,14,13)   =     57.555003    -0.000000    -0.036084    57.518919
	 ---------------------------------------------------------------------------
	 Forces used to impose fixed constraints are not included.
	  Forces zeroed: 49 

  ==> Convergence Check <==

  Measures of convergence in internal coordinates in au.
  Criteria marked as inactive (o), active & met (*), and active & unmet ( ).
  ---------------------------------------------------------------------------------------------
   Step     Total Energy     Delta E     MAX Force     RMS Force      MAX Disp      RMS Disp   
  ---------------------------------------------------------------------------------------------
    Convergence Criteria    1.00e-06 *    3.00e-04 *             o    1.20e-03 *             o
  ---------------------------------------------------------------------------------------------
      8    -157.84340055    1.17e-06      6.37e-05 *    2.11e-05 o    9.01e-04 *    4.30e-04 o  ~
  ---------------------------------------------------------------------------------------------


  **** Optimization is complete! (in 8 steps) ****

  ==> Optimization Summary <==

  Measures of convergence in internal coordinates in au.
  --------------------------------------------------------------------------------------------------------------- ~
   Step         Total Energy             Delta E       MAX Force       RMS Force        MAX Disp        RMS Disp  ~
  --------------------------------------------------------------------------------------------------------------- ~
      1    -157.835644860129   -157.835644860129      0.02365563      0.00854024      0.03868269      0.01264023  ~
      2    -157.840602838993     -0.004957978864      0.00929018      0.00414969      0.02238836      0.01253520  ~
      3    -157.842645735782     -0.002042896789      0.00414998      0.00139657      0.03195508      0.01251479  ~
      4    -157.843226400907     -0.000580665126      0.00088797      0.00043363      0.02813357      0.01250373  ~
      5    -157.843353907256     -0.000127506348      0.00039434      0.00013471      0.02486363      0.01250113  ~
      6    -157.843391838317     -0.000037931061      0.00029009      0.00008389      0.02130206      0.01089439  ~
      7    -157.843401717987     -0.000009879670      0.00030890      0.00006996      0.00152992      0.00068037  ~
      8    -157.843400545875      0.000001172111      0.00010834      0.00002506      0.00090145      0.00042977  ~
  --------------------------------------------------------------------------------------------------------------- ~

	Writing optimization data to binary file.
	Final energy is   -157.8434005458751
	Final (previous) structure:
	Cartesian Geometry (in Angstrom)
	    H    -1.9576600520   0.2205635800   0.7548956128
	    H    -1.7666561828   1.9206680943   0.3092879342
	    H    -1.5454596252   0.6628094470  -0.9064336269
	    C    -1.3726551692   0.9142569190   0.1425347260
	    H     0.6749877592   1.5157980265  -0.1483472926
	    H     0.2481317151   1.2116590027   1.5263805285
	    C     0.1075177585   0.8405850487   0.5044755928
	    H     1.7503323347  -0.5286805291   0.7185801763
	    H     0.1879808431  -1.2208765207   1.1177574676
	    C     0.7008990788  -0.5643071917   0.4036536220
	    H     1.1252724310  -2.1398630244  -1.0297841530
	    H     1.0880413960  -0.5177557008  -1.7317734284
	    H    -0.4196345335  -1.3343834202  -1.3010413887
	    C     0.6158611385  -1.1728927111  -0.9926738422
	Saving final (previous) structure.
			--------------------------
			 OPTKING Finished Execution 
			--------------------------

    Final optimized geometry and variables:
    Molecular point group: c1
    Full point group: C1

    Geometry (in Angstrom), charge = 0, multiplicity = 1:

    H           -1.957660051998     0.220563579990     0.754895612768
    H           -1.766656182790     1.920668094278     0.309287934215
    H           -1.545459625183     0.662809446992    -0.906433626867
    C           -1.372655169191     0.914256918997     0.142534726015
    H            0.674987759219     1.515798026479    -0.148347292586
    H            0.248131715149     1.211659002692     1.526380528486
    C            0.107517758456     0.840585048736     0.504475592824
    H            1.750332334656    -0.528680529120     0.718580176288
    H            0.187980843102    -1.220876520682     1.117757467557
    C            0.700899078786    -0.564307191672     0.403653621983
    H            1.125272430953    -2.139863024356    -1.029784153003
    H            1.088041396043    -0.517755700773    -1.731773428406
    H           -0.419634533471    -1.334383420229    -1.301041388680
    C            0.615861138546    -1.172892711132    -0.992673842151

	Cleaning optimization helper files.

*** Psi4 exiting successfully. Buy a developer a beer!
