    -----------------------------------------------------------------------
          Psi4: An Open-Source Ab Initio Electronic Structure Package
                              Psi4 1.0.0 Driver

                          Git: Rev {master} 6a9a71b 

    J. M. Turney, A. C. Simmonett, R. M. Parrish, E. G. Hohenstein,
    F. A. Evangelista, J. T. Fermann, B. J. Mintz, L. A. Burns, J. J. Wilke,
    M. L. Abrams, N. J. Russ, M. L. Leininger, C. L. Janssen, E. T. Seidl,
    W. D. Allen, H. F. Schaefer, R. A. King, E. F. Valeev, C. D. Sherrill,
    and T. D. Crawford, WIREs Comput. Mol. Sci. 2, 556-565 (2012)
    (doi: 10.1002/wcms.93)

                         Additional Contributions by
    A. E. DePrince, U. Bozkaya, A. Yu. Sokolov, D. G. A. Smith, R. Di Remigio,
    R. M. Richard, J. F. Gonthier, H. R. McAlexander, M. Saitow, and
    B. P. Pritchard
    -----------------------------------------------------------------------


    Psi4 started on: Mon Feb 20 17:19:35 2017

    Process ID:  27965
    PSI4DATADIR: /Users/sternc1/anaconda/share/psi4
    Memory level set to 256.000 MB

  ==> Input File <==

--------------------------------------------------------------------------

memory 1000 mb

molecule butane {
  symmetry C1
  0 1 
  H      1.604   0.760   -8.260
  H      1.745   2.388   -8.880
  H      2.043   1.024   -9.930
  C      2.142   1.395   -8.932
  H      4.169   2.051   -9.210
  H      3.731   1.788   -7.539
  C      3.631   1.416   -8.537
  H      3.929   -0.552   -7.731
  H      3.808   -0.510   -9.472
  C      4.203   -0.012   -8.612
  H      6.134   -0.938   -8.769
  H      6.133   0.552   -7.857
  H      6.013   0.594   -9.599
  C      5.737   0.054   -8.717
  units Angstrom
}

dih_string = "4 7 10 14 160"
set optking fixed_dihedral = $dih_string

optimize('MP2/6-31G(d)')
--------------------------------------------------------------------------

  Memory set to 1000.000 MiB by Python script.
gradient() will perform analytic gradient computation.
    SCF Algorithm Type (re)set to DF.

*** tstart() called on lski1497
*** at Mon Feb 20 17:19:36 2017


         ---------------------------------------------------------
                                   SCF
            by Justin Turney, Rob Parrish, and Andy Simmonett
                              RHF Reference
                        1 Threads,   1000 MiB Core
         ---------------------------------------------------------

  ==> Geometry <==

    Molecular point group: c1
    Full point group: C1

    Geometry (in Angstrom), charge = 0, multiplicity = 1:

       Center              X                  Y                   Z               Mass       
    ------------   -----------------  -----------------  -----------------  -----------------
           H         -2.324709851376     0.046324854388     0.443872926296     1.007825032070
           H         -2.183709851376     1.674324854388    -0.176127073704     1.007825032070
           H         -1.885709851376     0.310324854388    -1.226127073704     1.007825032070
           C         -1.786709851376     0.681324854388    -0.228127073704    12.000000000000
           H          0.240290148624     1.337324854388    -0.506127073704     1.007825032070
           H         -0.197709851376     1.074324854388     1.164872926296     1.007825032070
           C         -0.297709851376     0.702324854388     0.166872926296    12.000000000000
           H          0.000290148624    -1.265675145612     0.972872926296     1.007825032070
           H         -0.120709851376    -1.223675145612    -0.768127073704     1.007825032070
           C          0.274290148624    -0.725675145612     0.091872926296    12.000000000000
           H          2.205290148624    -1.651675145612    -0.065127073704     1.007825032070
           H          2.204290148624    -0.161675145612     0.846872926296     1.007825032070
           H          2.084290148624    -0.119675145612    -0.895127073704     1.007825032070
           C          1.808290148624    -0.659675145612    -0.013127073704    12.000000000000

  Running in c1 symmetry.

  Rotational constants: A =      0.74159  B =      0.12545  C =      0.11800 [cm^-1]
  Rotational constants: A =  22232.31494  B =   3760.75927  C =   3537.48422 [MHz]
  Nuclear repulsion =  131.918953698964117

  Charge       = 0
  Multiplicity = 1
  Electrons    = 34
  Nalpha       = 17
  Nbeta        = 17

  ==> Algorithm <==

  SCF Algorithm Type is DF.
  DIIS enabled.
  MOM disabled.
  Fractional occupation disabled.
  Guess Type is SAD.
  Energy threshold   = 1.00e-10
  Density threshold  = 1.00e-10
  Integral threshold = 0.00e+00

  ==> Primary Basis <==

  Basis Set: 6-31G(D)
    Number of shells: 44
    Number of basis function: 80
    Number of Cartesian functions: 80
    Spherical Harmonics?: false
    Max angular momentum: 2

  ==> Pre-Iterations <==

   -------------------------------------------------------
    Irrep   Nso     Nmo     Nalpha   Nbeta   Ndocc  Nsocc
   -------------------------------------------------------
     A         80      80       0       0       0       0
   -------------------------------------------------------
    Total      80      80      17      17      17       0
   -------------------------------------------------------

  ==> Integral Setup <==

  ==> DFJK: Density-Fitted J/K Matrices <==

    J tasked:                  Yes
    K tasked:                  Yes
    wK tasked:                  No
    OpenMP threads:              1
    Integrals threads:           1
    Memory (MB):               715
    Algorithm:                Core
    Integral Cache:           NONE
    Schwarz Cutoff:          1E-12
    Fitting Condition:       1E-12

   => Auxiliary Basis Set <=

  Basis Set: 
    Number of shells: 186
    Number of basis function: 574
    Number of Cartesian functions: 574
    Spherical Harmonics?: false
    Max angular momentum: 3

  Minimum eigenvalue in the overlap matrix is 4.5106444697E-03.
  Using Symmetric Orthogonalization.
  SCF Guess: Superposition of Atomic Densities via on-the-fly atomic UHF.

  ==> Iterations <==

                           Total Energy        Delta E     RMS |[F,P]|

   @DF-RHF iter   0:  -158.96940520214520   -1.58969e+02   4.74462e-02 
   @DF-RHF iter   1:  -157.20595430857435    1.76345e+00   3.90236e-03 
   @DF-RHF iter   2:  -157.28418958615185   -7.82353e-02   1.09628e-03 DIIS
   @DF-RHF iter   3:  -157.29218784936177   -7.99826e-03   2.46049e-04 DIIS
   @DF-RHF iter   4:  -157.29252072853342   -3.32879e-04   7.61058e-05 DIIS
   @DF-RHF iter   5:  -157.29255503296190   -3.43044e-05   1.26890e-05 DIIS
   @DF-RHF iter   6:  -157.29255618692224   -1.15396e-06   2.61793e-06 DIIS
   @DF-RHF iter   7:  -157.29255621922556   -3.23033e-08   6.85386e-07 DIIS
   @DF-RHF iter   8:  -157.29255622170257   -2.47701e-09   9.92215e-08 DIIS
   @DF-RHF iter   9:  -157.29255622178903   -8.64588e-11   2.24525e-08 DIIS
   @DF-RHF iter  10:  -157.29255622179369   -4.66116e-12   4.29212e-09 DIIS
   @DF-RHF iter  11:  -157.29255622179386   -1.70530e-13   1.22982e-09 DIIS
   @DF-RHF iter  12:  -157.29255622179380    5.68434e-14   3.43069e-10 DIIS
   @DF-RHF iter  13:  -157.29255622179369    1.13687e-13   7.08635e-11 DIIS

  ==> Post-Iterations <==

    Orbital Energies (a.u.)
    -----------------------

    Doubly Occupied:                                                      

       1A    -11.207598     2A    -11.206961     3A    -11.200200  
       4A    -11.200084     5A     -1.071061     6A     -0.981177  
       7A     -0.861996     8A     -0.794802     9A     -0.646737  
      10A     -0.587267    11A     -0.582616    12A     -0.565409  
      13A     -0.514291    14A     -0.505235    15A     -0.473754  
      16A     -0.468728    17A     -0.441157  

    Virtual:                                                              

      18A      0.233800    19A      0.266055    20A      0.289943  
      21A      0.299577    22A      0.325842    23A      0.338993  
      24A      0.340747    25A      0.348012    26A      0.355328  
      27A      0.360736    28A      0.419264    29A      0.430964  
      30A      0.435757    31A      0.699866    32A      0.714127  
      33A      0.747618    34A      0.751679    35A      0.766222  
      36A      0.846044    37A      0.853497    38A      0.931745  
      39A      0.951738    40A      1.020738    41A      1.074010  
      42A      1.089069    43A      1.158515    44A      1.191627  
      45A      1.204687    46A      1.209167    47A      1.218012  
      48A      1.224690    49A      1.245258    50A      1.254962  
      51A      1.262104    52A      1.295329    53A      1.296428  
      54A      1.588159    55A      1.667493    56A      1.719949  
      57A      1.742693    58A      1.930132    59A      1.937314  
      60A      2.145333    61A      2.196262    62A      2.224170  
      63A      2.291897    64A      2.320164    65A      2.328810  
      66A      2.412831    67A      2.541146    68A      2.635432  
      69A      2.646825    70A      2.663395    71A      2.740432  
      72A      2.752189    73A      2.772204    74A      2.887041  
      75A      3.008409    76A      3.111575    77A      4.579577  
      78A      4.681302    79A      4.799751    80A      4.957047  

    Final Occupation by Irrep:
              A 
    DOCC [    17 ]

  Energy converged.

  @DF-RHF Final Energy:  -157.29255622179369

   => Energetics <=

    Nuclear Repulsion Energy =            131.9189536989641169
    One-Electron Energy =                -471.8048732186464918
    Two-Electron Energy =                 182.5933632978886010
    DFT Exchange-Correlation Energy =       0.0000000000000000
    Empirical Dispersion Energy =           0.0000000000000000
    PCM Polarization Energy =               0.0000000000000000
    EFP Energy =                            0.0000000000000000
    Total Energy =                       -157.2925562217937738


  Saving occupied orbitals to File 180.

*** tstop() called on lski1497 at Mon Feb 20 17:19:45 2017
Module time:
	user time   =       5.13 seconds =       0.09 minutes
	system time =       0.18 seconds =       0.00 minutes
	total time  =          9 seconds =       0.15 minutes
Total time:
	user time   =       5.13 seconds =       0.09 minutes
	system time =       0.18 seconds =       0.00 minutes
	total time  =          9 seconds =       0.15 minutes


Properties will be evaluated at   0.000000,   0.000000,   0.000000 Bohr

Properties computed using the SCF density matrix

  Nuclear Dipole Moment: (a.u.)
     X:     0.0205      Y:     0.0190      Z:    -0.1952

  Electronic Dipole Moment: (a.u.)
     X:    -0.0219      Y:    -0.0213      Z:     0.2105

  Dipole Moment: (a.u.)
     X:    -0.0014      Y:    -0.0023      Z:     0.0152     Total:     0.0155

  Dipole Moment: (Debye)
     X:    -0.0035      Y:    -0.0058      Z:     0.0387     Total:     0.0393


  //>>>>>>>>>>>>>>>>>>>>>>>>>>>>>>>>>>>//
  //               DFMP2               //
  //<<<<<<<<<<<<<<<<<<<<<<<<<<<<<<<<<<<//


*** tstart() called on lski1497
*** at Mon Feb 20 17:19:45 2017


*** tstop() called on lski1497 at Mon Feb 20 17:19:45 2017
Module time:
	user time   =       0.55 seconds =       0.01 minutes
	system time =       0.00 seconds =       0.00 minutes
	total time  =          0 seconds =       0.00 minutes
Total time:
	user time   =       5.70 seconds =       0.10 minutes
	system time =       0.18 seconds =       0.00 minutes
	total time  =          9 seconds =       0.15 minutes
	 --------------------------------------------------------
	                          DF-MP2                         
	      2nd-Order Density-Fitted Moller-Plesset Theory     
	              RMP2 Wavefunction,   1 Threads             
	                                                         
	        Rob Parrish, Justin Turney, Andy Simmonett,      
	           Ed Hohenstein, and C. David Sherrill          
	 --------------------------------------------------------

   => Auxiliary Basis Set <=

  Basis Set: 
    Number of shells: 132
    Number of basis function: 364
    Number of Cartesian functions: 414
    Spherical Harmonics?: true
    Max angular momentum: 3

	 --------------------------------------------------------
	                 NBF =    80, NAUX =   364
	 --------------------------------------------------------
	   CLASS    FOCC     OCC    AOCC    AVIR     VIR    FVIR
	   PAIRS       0      17      17      63      63       0
	 --------------------------------------------------------

DGAS Warning! /src/lib/libfock/apps.cc:80 is not currently checking restricted

         ------------------------------------------------------------
                                     CPHF                           
                                  Rob Parrish                       
         ------------------------------------------------------------

  ==> Geometry <==

    Molecular point group: c1
    Full point group: C1

    Geometry (in Angstrom), charge = 0, multiplicity = 1:

       Center              X                  Y                   Z               Mass       
    ------------   -----------------  -----------------  -----------------  -----------------
           H         -2.324709851376     0.046324854388     0.443872926296     1.007825032070
           H         -2.183709851376     1.674324854388    -0.176127073704     1.007825032070
           H         -1.885709851376     0.310324854388    -1.226127073704     1.007825032070
           C         -1.786709851376     0.681324854388    -0.228127073704    12.000000000000
           H          0.240290148624     1.337324854388    -0.506127073704     1.007825032070
           H         -0.197709851376     1.074324854388     1.164872926296     1.007825032070
           C         -0.297709851376     0.702324854388     0.166872926296    12.000000000000
           H          0.000290148624    -1.265675145612     0.972872926296     1.007825032070
           H         -0.120709851376    -1.223675145612    -0.768127073704     1.007825032070
           C          0.274290148624    -0.725675145612     0.091872926296    12.000000000000
           H          2.205290148624    -1.651675145612    -0.065127073704     1.007825032070
           H          2.204290148624    -0.161675145612     0.846872926296     1.007825032070
           H          2.084290148624    -0.119675145612    -0.895127073704     1.007825032070
           C          1.808290148624    -0.659675145612    -0.013127073704    12.000000000000

  Nuclear repulsion =  131.918953698964117
  Reference energy  = -157.292556221793689

  ==> Basis Set <==

  Basis Set: 6-31G(D)
    Number of shells: 44
    Number of basis function: 80
    Number of Cartesian functions: 80
    Spherical Harmonics?: false
    Max angular momentum: 2

  ==> CGRSolver (by Rob Parrish) <==

   Number of roots    =         1
   Preconditioning    =    JACOBI
   Convergence cutoff =     1E-06
   Maximum iterations =       100

  ==> CPHFRHamiltonian (by Rob Parrish) <== 

  ==> DFJK: Density-Fitted J/K Matrices <==

    J tasked:                  Yes
    K tasked:                  Yes
    wK tasked:                  No
    OpenMP threads:              1
    Integrals threads:           1
    Memory (MB):               715
    Algorithm:                Core
    Integral Cache:           NONE
    Schwarz Cutoff:          1E-12
    Fitting Condition:       1E-12

   => Auxiliary Basis Set <=

  Basis Set: 
    Number of shells: 186
    Number of basis function: 574
    Number of Cartesian functions: 574
    Spherical Harmonics?: false
    Max angular momentum: 3

  ==> CPHF Iterations <==

  => Iterations <=

             Iter  Converged  Remaining    Residual
  CGR           1          0          1   7.265E-02
  CGR           2          0          1   8.727E-03
  CGR           3          0          1   2.769E-03
  CGR           4          0          1   3.638E-04
  CGR           5          0          1   5.980E-05
  CGR           6          0          1   1.302E-05
  CGR           7          0          1   2.577E-06
  CGR           8          1          0   5.394E-07

    CGRSolver converged.

  ==> DFCorrGrad: Density-Fitted Correlated Gradients <==

    OpenMP threads:              1
    Integrals threads:           1
    Memory (MB):               715
    Schwarz Cutoff:          0E+00
    Fitting Condition:       1E-12

   => Auxiliary Basis Set <=

  Basis Set: 
    Number of shells: 186
    Number of basis function: 510
    Number of Cartesian functions: 574
    Spherical Harmonics?: true
    Max angular momentum: 3

	-----------------------------------------------------------
	 ==================> DF-MP2 Energies <==================== 
	-----------------------------------------------------------
	 Reference Energy          =    -157.2925562217936886 [Eh]
	 Singles Energy            =      -0.0000000000000000 [Eh]
	 Same-Spin Energy          =      -0.1243697764673530 [Eh]
	 Opposite-Spin Energy      =      -0.4201811811208359 [Eh]
	 Correlation Energy        =      -0.5445509575881889 [Eh]
	 Total Energy              =    -157.8371071793818885 [Eh]
	-----------------------------------------------------------
	 ================> DF-SCS-MP2 Energies <================== 
	-----------------------------------------------------------
	 SCS Same-Spin Scale       =       0.3333333333333333 [-]
	 SCS Opposite-Spin Scale   =       1.2000000000000000 [-]
	 SCS Same-Spin Energy      =      -0.0414565921557843 [Eh]
	 SCS Opposite-Spin Energy  =      -0.5042174173450030 [Eh]
	 SCS Correlation Energy    =      -0.5456740095007874 [Eh]
	 SCS Total Energy          =    -157.8382302312944887 [Eh]
	-----------------------------------------------------------


  -Total Gradient:
     Atom            X                  Y                   Z
    ------   -----------------  -----------------  -----------------
       1        0.010885429515     0.009501600461    -0.008918210794
       2        0.010573972485    -0.013614093422     0.000292890770
       3        0.004055140375     0.005435236101     0.015405958762
       4       -0.026770260895    -0.007760179823    -0.009946013262
       5       -0.009157357392    -0.011643263773     0.009074309797
       6       -0.004525339099    -0.008871881115    -0.015152054412
       7        0.024341865956     0.031777979090     0.010608435463
       8        0.007289070478     0.011601786410    -0.012749411741
       9        0.007426916018     0.009945421099     0.013110764462
      10       -0.025006302245    -0.033286102262    -0.000152282113
      11       -0.010962108142     0.014196568508     0.000760536673
      12       -0.008819303107    -0.007543267287    -0.012327214767
      13       -0.006422096418    -0.007590178467     0.012614786205
      14        0.027090372470     0.007850374479    -0.002622495043


			-----------------------------------------
			 OPTKING 2.0: for geometry optimizations 
			  - R.A. King,  Bethel University        
			-----------------------------------------

	Previous internal coordinate definitions found.
	---Fragment 1 Geometry and Gradient---
	 H          -4.3930649575        0.0875412879        0.8387982685
	 H          -4.1266135728        3.1640154323       -0.3328319339
	 H          -3.5634751852        0.5864289870       -2.3170443734
	 C          -3.3763922980        1.2875173823       -0.4310976928
	 H           0.4540825733        2.5271777255       -0.9564415577
	 H          -0.3736174729        2.0301797525        2.2012908103
	 C          -0.5625900862        1.3272016311        0.3153441297
	 H           0.0005483014       -2.3917793984        1.8384633928
	 H          -0.2281085606       -2.3124109008       -1.4515498046
	 C           0.5183332618       -1.3713272866        0.1736146697
	 H           4.1673944244       -3.1212136857       -0.1230723331
	 H           4.1655046983       -0.3055217477        1.6003579001
	 H           3.9387375624       -0.2261532501       -1.6915450234
	 C           3.4171731497       -1.2466053619       -0.0248065742
	             0.0108854295        0.0095016005       -0.0089182108
	             0.0105739725       -0.0136140934        0.0002928908
	             0.0040551404        0.0054352361        0.0154059588
	            -0.0267702609       -0.0077601798       -0.0099460133
	            -0.0091573574       -0.0116432638        0.0090743098
	            -0.0045253391       -0.0088718811       -0.0151520544
	             0.0243418660        0.0317779791        0.0106084355
	             0.0072890705        0.0116017864       -0.0127494117
	             0.0074269160        0.0099454211        0.0131107645
	            -0.0250063022       -0.0332861023       -0.0001522821
	            -0.0109621081        0.0141965685        0.0007605367
	            -0.0088193031       -0.0075432673       -0.0123272148
	            -0.0064220964       -0.0075901785        0.0126147862
	             0.0270903725        0.0078503745       -0.0026224950

	Previous optimization step data not found.  Starting new optimization.

	---Fragment 1 Intrafragment Coordinates---
	 - Coordinate -           - BOHR/RAD -       - ANG/DEG -
	 R(1,4)           =         2.021436	       1.069698
	 R(2,4)           =         2.023298	       1.070683
	 R(3,4)           =         2.020723	       1.069320
	 R(4,7)           =         2.911397	       1.540645
	 R(5,7)           =         2.022623	       1.070326
	 R(6,7)           =         2.021555	       1.069761
	 R(7,10)          =         2.910419	       1.540128
	 R(8,10)          =         2.020184	       1.069036
	 R(9,10)          =         2.020884	       1.069406
	 R(10,14)         =         2.908298	       1.539005
	 R(11,14)         =         2.021545	       1.069756
	 R(12,14)         =         2.021583	       1.069776
	 R(13,14)         =         2.022713	       1.070374
	 B(1,4,2)         =         1.910870	     109.484805
	 B(1,4,3)         =         1.911121	     109.499161
	 B(1,4,7)         =         1.910399	     109.457783
	 B(2,4,3)         =         1.910042	     109.437340
	 B(2,4,7)         =         1.910564	     109.467262
	 B(3,4,7)         =         1.910803	     109.480971
	 B(4,7,5)         =         1.909937	     109.431343
	 B(4,7,6)         =         1.911630	     109.528316
	 B(4,7,10)        =         1.911154	     109.501062
	 B(5,7,6)         =         1.910605	     109.469614
	 B(5,7,10)        =         1.910047	     109.437654
	 B(6,7,10)        =         1.910425	     109.459295
	 B(7,10,8)        =         1.910311	     109.452765
	 B(7,10,9)        =         1.911082	     109.496934
	 B(7,10,14)       =         1.911075	     109.496525
	 B(8,10,9)        =         1.910107	     109.441049
	 B(8,10,14)       =         1.910662	     109.472843
	 B(9,10,14)       =         1.910563	     109.467193
	 B(10,14,11)      =         1.910762	     109.478586
	 B(10,14,12)      =         1.911429	     109.516821
	 B(10,14,13)      =         1.912263	     109.564597
	 B(11,14,12)      =         1.910687	     109.474292
	 B(11,14,13)      =         1.909304	     109.395055
	 B(12,14,13)      =         1.909353	     109.397859
	 D(1,4,7,5)       =         3.140997	     179.965873
	 D(1,4,7,6)       =        -1.047644	     -60.025575
	 D(1,4,7,10)      =         1.047427	      60.013132
	 D(2,4,7,5)       =        -1.047689	     -60.028143
	 D(2,4,7,6)       =         1.046856	      59.980409
	 D(2,4,7,10)      =        -3.141259	    -179.980883
	 D(3,4,7,5)       =         1.046044	      59.933911
	 D(3,4,7,6)       =         3.140588	     179.942463
	 D(3,4,7,10)      =        -1.047526	     -60.018830
	 D(4,7,10,8)      =        -1.396104	     -79.990844
	 D(4,7,10,9)      =         0.697724	      39.976642
	 D(4,7,10,14)     =         2.792579	     160.002980
	 D(5,7,10,8)      =         2.793579	     160.060280
	 D(5,7,10,9)      =        -1.395779	     -79.972233
	 D(5,7,10,14)     =         0.699076	      40.054104
	 D(6,7,10,8)      =         0.699704	      40.090082
	 D(6,7,10,9)      =         2.793532	     160.057568
	 D(6,7,10,14)     =        -1.394799	     -79.916094
	 D(7,10,14,11)    =         3.141517	     179.995688
	 D(7,10,14,12)    =         1.046490	      59.959458
	 D(7,10,14,13)    =        -1.047824	     -60.035895
	 D(8,10,14,11)    =         1.047229	      60.001801
	 D(8,10,14,12)    =        -1.047798	     -60.034428
	 D(8,10,14,13)    =         3.141073	     179.970219
	 D(9,10,14,11)    =        -1.046496	     -59.959777
	 D(9,10,14,12)    =        -3.141523	    -179.996007
	 D(9,10,14,13)    =         1.047348	      60.008640

	Current energy   :      -157.8371071794

	Generating empirical Hessian (Schlegel '84) for each fragment.
	Adding user-defined constraint: Fragment 1; Coordinate 49:
		Value =     2.792579; Fixed value    =     2.792530
		Force =    -0.000024; Force constant =     0.500000
	Removing off-diagonal coupling between coordinate 49 and others.
	Taking RFO optimization step.
	Going to follow RFO solution 1.
	Using RFO vector 1.

	Determining step-restricting scale parameter for RS-RFO.
	Maximum step size allowed    0.10000

	 Iter      |step|        alpha        rfo_root  
	------------------------------------------------
	    0     0.23066       1.00000           1
	    1     0.17546       5.32860           1
	    2     0.13463      16.67802           1
	    3     0.11088      32.88859           1
	    4     0.10158      43.39842           1
	    5     0.10004      45.48455           1
	    6     0.10000      45.54263           1
	------------------------------------------------
	Norm of target step-size    0.10000
	Projected energy change by RFO approximation:        -0.0057907541

	Back-transformation to cartesian coordinates...
	Successfully converged to displaced geometry.

	--- Internal Coordinate Step in ANG or DEG, aJ/ANG or AJ/DEG ---
	 ---------------------------------------------------------------------------
	   Coordinate                Previous        Force       Change         New 
	   ----------                --------       ------       ------       ------
	    1 R(1,4)          =      1.069698     0.137733     0.013936     1.083634
	    2 R(2,4)          =      1.070683     0.136209     0.013809     1.084492
	    3 R(3,4)          =      1.069320     0.137090     0.013861     1.083181
	    4 R(4,7)          =      1.540645    -0.017406    -0.002045     1.538600
	    5 R(5,7)          =      1.070326     0.141841     0.014370     1.084696
	    6 R(6,7)          =      1.069761     0.145362     0.014710     1.084471
	    7 R(7,10)         =      1.540128    -0.008638    -0.001014     1.539114
	    8 R(8,10)         =      1.069036     0.150237     0.015181     1.084217
	    9 R(9,10)         =      1.069406     0.147622     0.014928     1.084334
	   10 R(10,14)        =      1.539005    -0.010609    -0.001243     1.537762
	   11 R(11,14)        =      1.069756     0.142281     0.014398     1.084154
	   12 R(12,14)        =      1.069776     0.137473     0.013912     1.083688
	   13 R(13,14)        =      1.070374     0.130831     0.013256     1.083629
	   14 B(1,4,2)        =    109.484805    -0.000306    -0.542050   108.942755
	   15 B(1,4,3)        =    109.499161    -0.000212    -0.398874   109.100288
	   16 B(1,4,7)        =    109.457783     0.000197     0.346200   109.803983
	   17 B(2,4,3)        =    109.437340    -0.000281    -0.499044   108.938297
	   18 B(2,4,7)        =    109.467262     0.000458     0.827568   110.294830
	   19 B(3,4,7)        =    109.480971     0.000144     0.253896   109.734867
	   20 B(4,7,5)        =    109.431343    -0.000170    -0.248865   109.182478
	   21 B(4,7,6)        =    109.528316    -0.000188    -0.238689   109.289627
	   22 B(4,7,10)       =    109.501062     0.000769     1.258474   110.759537
	   23 B(5,7,6)        =    109.469614    -0.000010    -0.189884   109.279729
	   24 B(5,7,10)       =    109.437654    -0.000194    -0.280256   109.157398
	   25 B(6,7,10)       =    109.459295    -0.000206    -0.308140   109.151154
	   26 B(7,10,8)       =    109.452765    -0.000208    -0.312893   109.139872
	   27 B(7,10,9)       =    109.496934    -0.000202    -0.296100   109.200833
	   28 B(7,10,14)      =    109.496525     0.000775     1.267963   110.764489
	   29 B(8,10,9)       =    109.441049    -0.000008    -0.185038   109.256011
	   30 B(8,10,14)      =    109.472843    -0.000185    -0.229860   109.242983
	   31 B(9,10,14)      =    109.467193    -0.000172    -0.251901   109.215292
	   32 B(10,14,11)     =    109.478586     0.000461     0.833481   110.312067
	   33 B(10,14,12)     =    109.516821     0.000187     0.329759   109.846580
	   34 B(10,14,13)     =    109.564597     0.000132     0.231823   109.796420
	   35 B(11,14,12)     =    109.474292    -0.000304    -0.539612   108.934679
	   36 B(11,14,13)     =    109.395055    -0.000277    -0.491822   108.903232
	   37 B(12,14,13)     =    109.397859    -0.000201    -0.378204   109.019655
	   38 D(1,4,7,5)      =    179.965873     0.000019     0.179567   180.145439
	   39 D(1,4,7,6)      =    -60.025575    -0.000034    -0.347392   -60.372967
	   40 D(1,4,7,10)     =     60.013132    -0.000010    -0.096346    59.916786
	   41 D(2,4,7,5)      =    -60.028143     0.000025     0.242061   -59.786082
	   42 D(2,4,7,6)      =     59.980409    -0.000028    -0.284897    59.695512
	   43 D(2,4,7,10)     =   -179.980883    -0.000004    -0.033852  -180.014735
	   44 D(3,4,7,5)      =     59.933911     0.000031     0.299074    60.232984
	   45 D(3,4,7,6)      =    179.942463    -0.000022    -0.227885   179.714578
	   46 D(3,4,7,10)     =    -60.018830     0.000002     0.023161   -59.995669
	   47 D(4,7,10,8)     =    -79.990844     0.000043     0.424020   -79.566824
	   48 D(4,7,10,9)     =     39.976642    -0.000016    -0.169040    39.807602
	   49 D(4,7,10,14)    =    160.002980     0.000016     0.119845   160.122825
	   50 D(5,7,10,8)     =    160.060280     0.000010     0.129283   160.189563
	   51 D(5,7,10,9)     =    -79.972233    -0.000049    -0.463777   -80.436010
	   52 D(5,7,10,14)    =     40.054104    -0.000017    -0.174891    39.879213
	   53 D(6,7,10,8)     =     40.090082     0.000069     0.715360    40.805442
	   54 D(6,7,10,9)     =    160.057568     0.000010     0.122300   160.179869
	   55 D(6,7,10,14)    =    -79.916094     0.000042     0.411186   -79.504908
	   56 D(7,10,14,11)   =    179.995688    -0.000003    -0.028869   179.966819
	   57 D(7,10,14,12)   =     59.959458    -0.000009    -0.089099    59.870359
	   58 D(7,10,14,13)   =    -60.035895     0.000002     0.028298   -60.007597
	   59 D(8,10,14,11)   =     60.001801    -0.000028    -0.283864    59.717937
	   60 D(8,10,14,12)   =    -60.034428    -0.000033    -0.344095   -60.378523
	   61 D(8,10,14,13)   =    179.970219    -0.000022    -0.226698   179.743521
	   62 D(9,10,14,11)   =    -59.959777     0.000025     0.233203   -59.726575
	   63 D(9,10,14,12)   =   -179.996007     0.000019     0.172973  -179.823034
	   64 D(9,10,14,13)   =     60.008640     0.000030     0.290370    60.299010
	 ---------------------------------------------------------------------------
	 Forces used to impose fixed constraints are not included.
	  Forces zeroed: 49 

  ==> Convergence Check <==

  Measures of convergence in internal coordinates in au.
  Criteria marked as inactive (o), active & met (*), and active & unmet ( ).
  --------------------------------------------------------------------------------------------- ~
   Step     Total Energy     Delta E     MAX Force     RMS Force      MAX Disp      RMS Disp    ~
  --------------------------------------------------------------------------------------------- ~
    Convergence Criteria    1.00e-06 *    3.00e-04 *             o    1.20e-03 *             o  ~
  --------------------------------------------------------------------------------------------- ~
      1    -157.83710718   -1.58e+02      1.82e-02      7.31e-03 o    2.87e-02      1.25e-02 o  ~
  ---------------------------------------------------------------------------------------------

	Writing optimization data to binary file.
	Structure for next step:
	Cartesian Geometry (in Angstrom)
	    H    -2.3489453352   0.0311787521   0.4481561487
	    H    -2.2161253093   1.6771487179  -0.1735484059
	    H    -1.9080765615   0.3052885210  -1.2389156745
	    C    -1.8002797771   0.6769921708  -0.2272352086
	    H     0.2265486800   1.3468540825  -0.5167912764
	    H    -0.2122565222   1.0738696581   1.1750621086
	    C    -0.3122327622   0.6960562591   0.1634601617
	    H     0.0125194193  -1.2686210579   0.9839776186
	    H    -0.1056717312  -1.2300252305  -0.7799056967
	    C     0.2889265035  -0.7189565634   0.0912322371
	    H     2.2376284913  -1.6555189954  -0.0603365406
	    H     2.2276494207  -0.1488969752   0.8573969528
	    H     2.1083730796  -0.1113834494  -0.9028300620
	    C     1.8220044850  -0.6554379282  -0.0105013947
			--------------------------
			 OPTKING Finished Execution 
			--------------------------

    Structure for next step:
    Molecular point group: c1
    Full point group: C1

    Geometry (in Angstrom), charge = 0, multiplicity = 1:

    H           -2.348994138104     0.031111653737     0.448257577641
    H           -2.216174112176     1.677081619521    -0.173446977048
    H           -1.908125364384     0.305221422667    -1.238814245579
    C           -1.800328579943     0.676925072492    -0.227133779746
    H            0.226499877178     1.346786984100    -0.516689847502
    H           -0.212305325028     1.073802559726     1.175163537545
    C           -0.312281565035     0.695989160738     0.163561590642
    H            0.012470616437    -1.268688156236     0.984079047500
    H           -0.105720534091    -1.230092328891    -0.779804267828
    C            0.288877700659    -0.719023661751     0.091333666016
    H            2.237579688394    -1.655586093753    -0.060235111675
    H            2.227600617832    -0.148964073587     0.857498381664
    H            2.108324276774    -0.111450547780    -0.902728633136
    C            1.821955682144    -0.655505026513    -0.010399965807

gradient() will perform analytic gradient computation.
    SCF Algorithm Type (re)set to DF.

*** tstart() called on lski1497
*** at Mon Feb 20 17:20:09 2017


         ---------------------------------------------------------
                                   SCF
            by Justin Turney, Rob Parrish, and Andy Simmonett
                              RHF Reference
                        1 Threads,   1000 MiB Core
         ---------------------------------------------------------

  ==> Geometry <==

    Molecular point group: c1
    Full point group: C1

    Geometry (in Angstrom), charge = 0, multiplicity = 1:

       Center              X                  Y                   Z               Mass       
    ------------   -----------------  -----------------  -----------------  -----------------
           H         -2.348994138104     0.031111653737     0.448257577641     1.007825032070
           H         -2.216174112176     1.677081619521    -0.173446977048     1.007825032070
           H         -1.908125364384     0.305221422667    -1.238814245579     1.007825032070
           C         -1.800328579943     0.676925072492    -0.227133779746    12.000000000000
           H          0.226499877178     1.346786984100    -0.516689847502     1.007825032070
           H         -0.212305325028     1.073802559726     1.175163537545     1.007825032070
           C         -0.312281565035     0.695989160738     0.163561590642    12.000000000000
           H          0.012470616437    -1.268688156236     0.984079047500     1.007825032070
           H         -0.105720534091    -1.230092328891    -0.779804267828     1.007825032070
           C          0.288877700659    -0.719023661751     0.091333666016    12.000000000000
           H          2.237579688394    -1.655586093753    -0.060235111675     1.007825032070
           H          2.227600617832    -0.148964073587     0.857498381664     1.007825032070
           H          2.108324276774    -0.111450547780    -0.902728633136     1.007825032070
           C          1.821955682144    -0.655505026513    -0.010399965807    12.000000000000

  Running in c1 symmetry.

  Rotational constants: A =      0.74292  B =      0.12355  C =      0.11654 [cm^-1]
  Rotational constants: A =  22272.11394  B =   3704.06364  C =   3493.89966 [MHz]
  Nuclear repulsion =  131.113044707123123

  Charge       = 0
  Multiplicity = 1
  Electrons    = 34
  Nalpha       = 17
  Nbeta        = 17

  ==> Algorithm <==

  SCF Algorithm Type is DF.
  DIIS enabled.
  MOM disabled.
  Fractional occupation disabled.
  Guess Type is READ.
  Energy threshold   = 1.00e-10
  Density threshold  = 1.00e-10
  Integral threshold = 0.00e+00

  ==> Primary Basis <==

  Basis Set: 6-31G(D)
    Number of shells: 44
    Number of basis function: 80
    Number of Cartesian functions: 80
    Spherical Harmonics?: false
    Max angular momentum: 2

  ==> Pre-Iterations <==

   -------------------------------------------------------
    Irrep   Nso     Nmo     Nalpha   Nbeta   Ndocc  Nsocc
   -------------------------------------------------------
     A         80      80       0       0       0       0
   -------------------------------------------------------
    Total      80      80      17      17      17       0
   -------------------------------------------------------

  ==> Integral Setup <==

  ==> DFJK: Density-Fitted J/K Matrices <==

    J tasked:                  Yes
    K tasked:                  Yes
    wK tasked:                  No
    OpenMP threads:              1
    Integrals threads:           1
    Memory (MB):               715
    Algorithm:                Core
    Integral Cache:           NONE
    Schwarz Cutoff:          1E-12
    Fitting Condition:       1E-12

   => Auxiliary Basis Set <=

  Basis Set: 
    Number of shells: 186
    Number of basis function: 574
    Number of Cartesian functions: 574
    Spherical Harmonics?: false
    Max angular momentum: 3

  Minimum eigenvalue in the overlap matrix is 4.5896681306E-03.
  Using Symmetric Orthogonalization.
  SCF Guess was Projection but file not found.
  Switching over to SAD guess.

  SCF Guess: Superposition of Atomic Densities via on-the-fly atomic UHF.

  ==> Iterations <==

                           Total Energy        Delta E     RMS |[F,P]|

   @DF-RHF iter   0:  -158.87218706778580   -1.58872e+02   4.65520e-02 
   @DF-RHF iter   1:  -157.20800232793974    1.66418e+00   3.87972e-03 
   @DF-RHF iter   2:  -157.28683555959500   -7.88332e-02   1.10838e-03 DIIS
   @DF-RHF iter   3:  -157.29506326725536   -8.22771e-03   2.54678e-04 DIIS
   @DF-RHF iter   4:  -157.29542094870837   -3.57681e-04   7.51453e-05 DIIS
   @DF-RHF iter   5:  -157.29545664254286   -3.56938e-05   1.23453e-05 DIIS
   @DF-RHF iter   6:  -157.29545776212032   -1.11958e-06   2.55514e-06 DIIS
   @DF-RHF iter   7:  -157.29545779262114   -3.05008e-08   7.22038e-07 DIIS
   @DF-RHF iter   8:  -157.29545779525913   -2.63799e-09   1.01895e-07 DIIS
   @DF-RHF iter   9:  -157.29545779534990   -9.07789e-11   2.33737e-08 DIIS
   @DF-RHF iter  10:  -157.29545779535468   -4.77485e-12   4.41244e-09 DIIS
   @DF-RHF iter  11:  -157.29545779535479   -1.13687e-13   9.90880e-10 DIIS
   @DF-RHF iter  12:  -157.29545779535513   -3.41061e-13   2.91709e-10 DIIS
   @DF-RHF iter  13:  -157.29545779535508    5.68434e-14   8.01836e-11 DIIS

  ==> Post-Iterations <==

    Orbital Energies (a.u.)
    -----------------------

    Doubly Occupied:                                                      

       1A    -11.212560     2A    -11.211975     3A    -11.206190  
       4A    -11.206134     5A     -1.068656     6A     -0.978699  
       7A     -0.859175     8A     -0.788833     9A     -0.642758  
      10A     -0.583630    11A     -0.580004    12A     -0.563787  
      13A     -0.511966    14A     -0.501594    15A     -0.468724  
      16A     -0.465240    17A     -0.446926  

    Virtual:                                                              

      18A      0.232127    19A      0.263517    20A      0.285964  
      21A      0.296286    22A      0.323125    23A      0.335204  
      24A      0.335868    25A      0.344435    26A      0.351883  
      27A      0.355128    28A      0.418353    29A      0.430512  
      30A      0.436821    31A      0.701708    32A      0.710070  
      33A      0.748927    34A      0.755993    35A      0.769524  
      36A      0.848611    37A      0.858114    38A      0.929695  
      39A      0.951456    40A      1.017048    41A      1.070992  
      42A      1.095045    43A      1.146482    44A      1.175786  
      45A      1.191290    46A      1.195236    47A      1.205077  
      48A      1.211252    49A      1.237305    50A      1.238993  
      51A      1.246297    52A      1.278157    53A      1.288601  
      54A      1.581793    55A      1.665151    56A      1.722775  
      57A      1.734999    58A      1.928750    59A      1.930017  
      60A      2.143413    61A      2.201939    62A      2.211272  
      63A      2.286021    64A      2.310008    65A      2.325204  
      66A      2.408403    67A      2.515718    68A      2.615138  
      69A      2.628101    70A      2.647008    71A      2.724028  
      72A      2.733999    73A      2.762004    74A      2.885250  
      75A      3.012405    76A      3.104745    77A      4.567699  
      78A      4.672376    79A      4.794087    80A      4.950348  

    Final Occupation by Irrep:
              A 
    DOCC [    17 ]

  Energy converged.

  @DF-RHF Final Energy:  -157.29545779535508

   => Energetics <=

    Nuclear Repulsion Energy =            131.1130447071231231
    One-Electron Energy =                -470.2233024733180855
    Two-Electron Energy =                 181.8147999708399709
    DFT Exchange-Correlation Energy =       0.0000000000000000
    Empirical Dispersion Energy =           0.0000000000000000
    PCM Polarization Energy =               0.0000000000000000
    EFP Energy =                            0.0000000000000000
    Total Energy =                       -157.2954577953550199


  Saving occupied orbitals to File 180.

*** tstop() called on lski1497 at Mon Feb 20 17:20:17 2017
Module time:
	user time   =       4.81 seconds =       0.08 minutes
	system time =       0.14 seconds =       0.00 minutes
	total time  =          8 seconds =       0.13 minutes
Total time:
	user time   =      27.68 seconds =       0.46 minutes
	system time =       0.83 seconds =       0.01 minutes
	total time  =         41 seconds =       0.68 minutes


Properties will be evaluated at   0.000000,   0.000000,   0.000000 Bohr

Properties computed using the SCF density matrix

  Nuclear Dipole Moment: (a.u.)
     X:     0.0198      Y:     0.0180      Z:    -0.1938

  Electronic Dipole Moment: (a.u.)
     X:    -0.0211      Y:    -0.0196      Z:     0.2071

  Dipole Moment: (a.u.)
     X:    -0.0012      Y:    -0.0015      Z:     0.0133     Total:     0.0135

  Dipole Moment: (Debye)
     X:    -0.0031      Y:    -0.0039      Z:     0.0339     Total:     0.0343


  //>>>>>>>>>>>>>>>>>>>>>>>>>>>>>>>>>>>//
  //               DFMP2               //
  //<<<<<<<<<<<<<<<<<<<<<<<<<<<<<<<<<<<//


*** tstart() called on lski1497
*** at Mon Feb 20 17:20:17 2017


*** tstop() called on lski1497 at Mon Feb 20 17:20:18 2017
Module time:
	user time   =       0.54 seconds =       0.01 minutes
	system time =       0.01 seconds =       0.00 minutes
	total time  =          1 seconds =       0.02 minutes
Total time:
	user time   =      28.24 seconds =       0.47 minutes
	system time =       0.84 seconds =       0.01 minutes
	total time  =         42 seconds =       0.70 minutes
	 --------------------------------------------------------
	                          DF-MP2                         
	      2nd-Order Density-Fitted Moller-Plesset Theory     
	              RMP2 Wavefunction,   1 Threads             
	                                                         
	        Rob Parrish, Justin Turney, Andy Simmonett,      
	           Ed Hohenstein, and C. David Sherrill          
	 --------------------------------------------------------

   => Auxiliary Basis Set <=

  Basis Set: 
    Number of shells: 132
    Number of basis function: 364
    Number of Cartesian functions: 414
    Spherical Harmonics?: true
    Max angular momentum: 3

	 --------------------------------------------------------
	                 NBF =    80, NAUX =   364
	 --------------------------------------------------------
	   CLASS    FOCC     OCC    AOCC    AVIR     VIR    FVIR
	   PAIRS       0      17      17      63      63       0
	 --------------------------------------------------------

DGAS Warning! /src/lib/libfock/apps.cc:80 is not currently checking restricted

         ------------------------------------------------------------
                                     CPHF                           
                                  Rob Parrish                       
         ------------------------------------------------------------

  ==> Geometry <==

    Molecular point group: c1
    Full point group: C1

    Geometry (in Angstrom), charge = 0, multiplicity = 1:

       Center              X                  Y                   Z               Mass       
    ------------   -----------------  -----------------  -----------------  -----------------
           H         -2.348994138104     0.031111653737     0.448257577641     1.007825032070
           H         -2.216174112176     1.677081619521    -0.173446977048     1.007825032070
           H         -1.908125364384     0.305221422667    -1.238814245579     1.007825032070
           C         -1.800328579943     0.676925072492    -0.227133779746    12.000000000000
           H          0.226499877178     1.346786984100    -0.516689847502     1.007825032070
           H         -0.212305325028     1.073802559726     1.175163537545     1.007825032070
           C         -0.312281565035     0.695989160738     0.163561590642    12.000000000000
           H          0.012470616437    -1.268688156236     0.984079047500     1.007825032070
           H         -0.105720534091    -1.230092328891    -0.779804267828     1.007825032070
           C          0.288877700659    -0.719023661751     0.091333666016    12.000000000000
           H          2.237579688394    -1.655586093753    -0.060235111675     1.007825032070
           H          2.227600617832    -0.148964073587     0.857498381664     1.007825032070
           H          2.108324276774    -0.111450547780    -0.902728633136     1.007825032070
           C          1.821955682144    -0.655505026513    -0.010399965807    12.000000000000

  Nuclear repulsion =  131.113044707123123
  Reference energy  = -157.295457795355077

  ==> Basis Set <==

  Basis Set: 6-31G(D)
    Number of shells: 44
    Number of basis function: 80
    Number of Cartesian functions: 80
    Spherical Harmonics?: false
    Max angular momentum: 2

  ==> CGRSolver (by Rob Parrish) <==

   Number of roots    =         1
   Preconditioning    =    JACOBI
   Convergence cutoff =     1E-06
   Maximum iterations =       100

  ==> CPHFRHamiltonian (by Rob Parrish) <== 

  ==> DFJK: Density-Fitted J/K Matrices <==

    J tasked:                  Yes
    K tasked:                  Yes
    wK tasked:                  No
    OpenMP threads:              1
    Integrals threads:           1
    Memory (MB):               715
    Algorithm:                Core
    Integral Cache:           NONE
    Schwarz Cutoff:          1E-12
    Fitting Condition:       1E-12

   => Auxiliary Basis Set <=

  Basis Set: 
    Number of shells: 186
    Number of basis function: 574
    Number of Cartesian functions: 574
    Spherical Harmonics?: false
    Max angular momentum: 3

  ==> CPHF Iterations <==

  => Iterations <=

             Iter  Converged  Remaining    Residual
  CGR           1          0          1   7.330E-02
  CGR           2          0          1   8.912E-03
  CGR           3          0          1   2.824E-03
  CGR           4          0          1   3.658E-04
  CGR           5          0          1   6.159E-05
  CGR           6          0          1   1.334E-05
  CGR           7          0          1   2.523E-06
  CGR           8          1          0   5.281E-07

    CGRSolver converged.

  ==> DFCorrGrad: Density-Fitted Correlated Gradients <==

    OpenMP threads:              1
    Integrals threads:           1
    Memory (MB):               715
    Schwarz Cutoff:          0E+00
    Fitting Condition:       1E-12

   => Auxiliary Basis Set <=

  Basis Set: 
    Number of shells: 186
    Number of basis function: 510
    Number of Cartesian functions: 574
    Spherical Harmonics?: true
    Max angular momentum: 3

	-----------------------------------------------------------
	 ==================> DF-MP2 Energies <==================== 
	-----------------------------------------------------------
	 Reference Energy          =    -157.2954577953550768 [Eh]
	 Singles Energy            =      -0.0000000000000000 [Eh]
	 Same-Spin Energy          =      -0.1243104173460238 [Eh]
	 Opposite-Spin Energy      =      -0.4214799349892357 [Eh]
	 Correlation Energy        =      -0.5457903523352595 [Eh]
	 Total Energy              =    -157.8412481476903224 [Eh]
	-----------------------------------------------------------
	 ================> DF-SCS-MP2 Energies <================== 
	-----------------------------------------------------------
	 SCS Same-Spin Scale       =       0.3333333333333333 [-]
	 SCS Opposite-Spin Scale   =       1.2000000000000000 [-]
	 SCS Same-Spin Energy      =      -0.0414368057820079 [Eh]
	 SCS Opposite-Spin Energy  =      -0.5057759219870829 [Eh]
	 SCS Correlation Energy    =      -0.5472127277690908 [Eh]
	 SCS Total Energy          =    -157.8426705231241556 [Eh]
	-----------------------------------------------------------


  -Total Gradient:
     Atom            X                  Y                   Z
    ------   -----------------  -----------------  -----------------
       1        0.005305352113     0.003803124000    -0.002773303236
       2        0.005063048011    -0.004682945231     0.000278449712
       3        0.002711850677     0.002186986855     0.006060808955
       4       -0.015717846181    -0.004523524616    -0.006467924344
       5       -0.004050561930    -0.005943773701     0.002371928245
       6       -0.003689661413    -0.005639600030    -0.005106025004
       7        0.014775988583     0.019026414677     0.006484409801
       8        0.004565369082     0.006493678141    -0.003424316569
       9        0.003535883074     0.005406008927     0.004329639707
      10       -0.015183188699    -0.019771069118    -0.000093557816
      11       -0.005186249502     0.004882765722     0.000162942255
      12       -0.004561668156    -0.003108210006    -0.004372803575
      13       -0.003564875146    -0.003021749089     0.004786182381
      14        0.015996559487     0.004891893468    -0.002236430510


			-----------------------------------------
			 OPTKING 2.0: for geometry optimizations 
			  - R.A. King,  Bethel University        
			-----------------------------------------

	Previous internal coordinate definitions found.
	---Fragment 1 Geometry and Gradient---
	 H          -4.4389556088        0.0587925051        0.8470840587
	 H          -4.1879621348        3.1692249634       -0.3277672852
	 H          -3.6058343659        0.5767848987       -2.3410196537
	 C          -3.4021279653        1.2792029995       -0.4292206392
	 H           0.4280227370        2.5450585593       -0.9764023074
	 H          -0.4011989209        2.0291927587        2.2207372473
	 C          -0.5901266343        1.3152289053        0.3090866122
	 H           0.0235660498       -2.3974731633        1.8596398929
	 H          -0.1997828561       -2.3245376198       -1.4736165034
	 C           0.5458997401       -1.3587578038        0.1725956155
	 H           4.2284128116       -3.1286043066       -0.1138278647
	 H           4.2095551011       -0.2815013027        1.6204371007
	 H           3.9841554824       -0.2106110127       -1.7059098889
	 C           3.4429972655       -1.2387249788       -0.0196530872
	             0.0053053521        0.0038031240       -0.0027733032
	             0.0050630480       -0.0046829452        0.0002784497
	             0.0027118507        0.0021869869        0.0060608090
	            -0.0157178462       -0.0045235246       -0.0064679243
	            -0.0040505619       -0.0059437737        0.0023719282
	            -0.0036896614       -0.0056396000       -0.0051060250
	             0.0147759886        0.0190264147        0.0064844098
	             0.0045653691        0.0064936781       -0.0034243166
	             0.0035358831        0.0054060089        0.0043296397
	            -0.0151831887       -0.0197710691       -0.0000935578
	            -0.0051862495        0.0048827657        0.0001629423
	            -0.0045616682       -0.0031082100       -0.0043728036
	            -0.0035648751       -0.0030217491        0.0047861824
	             0.0159965595        0.0048918935       -0.0022364305

	---Fragment 1 Intrafragment Coordinates---
	 - Coordinate -           - BOHR/RAD -       - ANG/DEG -
	 R(1,4)           =         2.047771	       1.083634
	 R(2,4)           =         2.049393	       1.084492
	 R(3,4)           =         2.046915	       1.083181
	 R(4,7)           =         2.907533	       1.538600
	 R(5,7)           =         2.049778	       1.084696
	 R(6,7)           =         2.049353	       1.084471
	 R(7,10)          =         2.908503	       1.539114
	 R(8,10)          =         2.048873	       1.084217
	 R(9,10)          =         2.049094	       1.084334
	 R(10,14)         =         2.905949	       1.537762
	 R(11,14)         =         2.048753	       1.084154
	 R(12,14)         =         2.047873	       1.083688
	 R(13,14)         =         2.047763	       1.083629
	 B(1,4,2)         =         1.901410	     108.942755
	 B(1,4,3)         =         1.904159	     109.100288
	 B(1,4,7)         =         1.916441	     109.803983
	 B(2,4,3)         =         1.901332	     108.938297
	 B(2,4,7)         =         1.925008	     110.294830
	 B(3,4,7)         =         1.915235	     109.734867
	 B(4,7,5)         =         1.905594	     109.182478
	 B(4,7,6)         =         1.907464	     109.289627
	 B(4,7,10)        =         1.933119	     110.759537
	 B(5,7,6)         =         1.907291	     109.279729
	 B(5,7,10)        =         1.905156	     109.157398
	 B(6,7,10)        =         1.905047	     109.151154
	 B(7,10,8)        =         1.904850	     109.139872
	 B(7,10,9)        =         1.905914	     109.200833
	 B(7,10,14)       =         1.933205	     110.764489
	 B(8,10,9)        =         1.906877	     109.256011
	 B(8,10,14)       =         1.906650	     109.242983
	 B(9,10,14)       =         1.906166	     109.215292
	 B(10,14,11)      =         1.925309	     110.312067
	 B(10,14,12)      =         1.917184	     109.846580
	 B(10,14,13)      =         1.916309	     109.796420
	 B(11,14,12)      =         1.901269	     108.934679
	 B(11,14,13)      =         1.900720	     108.903232
	 B(12,14,13)      =         1.902752	     109.019655
	 D(1,4,7,5)       =        -3.139054	    -179.854561
	 D(1,4,7,6)       =        -1.053707	     -60.372967
	 D(1,4,7,10)      =         1.045745	      59.916786
	 D(2,4,7,5)       =        -1.043464	     -59.786082
	 D(2,4,7,6)       =         1.041883	      59.695512
	 D(2,4,7,10)      =         3.141335	     179.985265
	 D(3,4,7,5)       =         1.051264	      60.232984
	 D(3,4,7,6)       =         3.136611	     179.714578
	 D(3,4,7,10)      =        -1.047122	     -59.995669
	 D(4,7,10,8)      =        -1.388703	     -79.566824
	 D(4,7,10,9)      =         0.694774	      39.807602
	 D(4,7,10,14)     =         2.794671	     160.122825
	 D(5,7,10,8)      =         2.795835	     160.189563
	 D(5,7,10,9)      =        -1.403873	     -80.436010
	 D(5,7,10,14)     =         0.696024	      39.879213
	 D(6,7,10,8)      =         0.712189	      40.805442
	 D(6,7,10,9)      =         2.795666	     160.179869
	 D(6,7,10,14)     =        -1.387622	     -79.504908
	 D(7,10,14,11)    =         3.141014	     179.966819
	 D(7,10,14,12)    =         1.044935	      59.870359
	 D(7,10,14,13)    =        -1.047330	     -60.007597
	 D(8,10,14,11)    =         1.042275	      59.717937
	 D(8,10,14,12)    =        -1.053804	     -60.378523
	 D(8,10,14,13)    =         3.137116	     179.743521
	 D(9,10,14,11)    =        -1.042425	     -59.726575
	 D(9,10,14,12)    =        -3.138504	    -179.823034
	 D(9,10,14,13)    =         1.052416	      60.299010

	Current energy   :      -157.8412481477

	Energy change for the previous step:
		Projected    :        -0.0057907541
		Actual       :        -0.0041409683

	Performing BFGS update.
	Previous computed or guess Hessian on step 1.
	Steps to be used in Hessian update: 1
	Adding user-defined constraint: Fragment 1; Coordinate 49:
		Value =     2.794671; Fixed value    =     2.792530
		Force =    -0.001124; Force constant =     0.525000
	Removing off-diagonal coupling between coordinate 49 and others.
	Taking RFO optimization step.
	Going to follow RFO solution 1.
	Using RFO vector 1.

	Determining step-restricting scale parameter for RS-RFO.
	Maximum step size allowed    0.10000

	 Iter      |step|        alpha        rfo_root  
	------------------------------------------------
	    0     0.20429       1.00000           1
	    1     0.15899       4.60693           1
	    2     0.12451      13.21721           1
	    3     0.10652      23.02023           1
	    4     0.10067      27.78500           1
	    5     0.10001      28.39308           1
	------------------------------------------------
	Norm of target step-size    0.10001
	Projected energy change by RFO approximation:        -0.0025343868

	Back-transformation to cartesian coordinates...
	Could not converge backtransformation.
	Using first guess instead.

	--- Internal Coordinate Step in ANG or DEG, aJ/ANG or AJ/DEG ---
	 ---------------------------------------------------------------------------
	   Coordinate                Previous        Force       Change         New 
	   ----------                --------       ------       ------       ------
	    1 R(1,4)          =      1.083634     0.055046     0.008471     1.092105
	    2 R(2,4)          =      1.084492     0.051462     0.007606     1.092098
	    3 R(3,4)          =      1.083181     0.055044     0.008517     1.091698
	    4 R(4,7)          =      1.538600    -0.027414    -0.007307     1.531294
	    5 R(5,7)          =      1.084696     0.058212     0.009031     1.093726
	    6 R(6,7)          =      1.084471     0.058230     0.008937     1.093408
	    7 R(7,10)         =      1.539114    -0.018192    -0.004877     1.534237
	    8 R(8,10)         =      1.084217     0.059941     0.009168     1.093385
	    9 R(9,10)         =      1.084334     0.060250     0.009301     1.093635
	   10 R(10,14)        =      1.537762    -0.024187    -0.006665     1.531098
	   11 R(11,14)        =      1.084154     0.053550     0.007883     1.092036
	   12 R(12,14)        =      1.083688     0.054891     0.008438     1.092125
	   13 R(13,14)        =      1.083629     0.052732     0.008184     1.091814
	   14 B(1,4,2)        =    108.942755    -0.000205    -0.716957   108.225798
	   15 B(1,4,3)        =    109.100288    -0.000180    -0.760244   108.340043
	   16 B(1,4,7)        =    109.803983     0.000170     0.672708   110.476691
	   17 B(2,4,3)        =    108.938297    -0.000186    -0.650233   108.288063
	   18 B(2,4,7)        =    110.294830     0.000257     0.853891   111.148722
	   19 B(3,4,7)        =    109.734867     0.000134     0.538626   110.273493
	   20 B(4,7,5)        =    109.182478    -0.000072    -0.123606   109.058873
	   21 B(4,7,6)        =    109.289627    -0.000064     0.074729   109.364356
	   22 B(4,7,10)       =    110.759537     0.000389     1.223452   111.982989
	   23 B(5,7,6)        =    109.279729    -0.000091    -1.019715   108.260014
	   24 B(5,7,10)       =    109.157398    -0.000080    -0.122871   109.034528
	   25 B(6,7,10)       =    109.151154    -0.000086    -0.085124   109.066030
	   26 B(7,10,8)       =    109.139872    -0.000087    -0.081552   109.058320
	   27 B(7,10,9)       =    109.200833    -0.000084    -0.143931   109.056903
	   28 B(7,10,14)      =    110.764489     0.000390     1.222392   111.986881
	   29 B(8,10,9)       =    109.256011    -0.000089    -1.011336   108.244676
	   30 B(8,10,14)      =    109.242983    -0.000061     0.096090   109.339073
	   31 B(9,10,14)      =    109.215292    -0.000074    -0.134953   109.080339
	   32 B(10,14,11)     =    110.312067     0.000257     0.846973   111.159040
	   33 B(10,14,12)     =    109.846580     0.000162     0.641660   110.488240
	   34 B(10,14,13)     =    109.796420     0.000124     0.502624   110.299044
	   35 B(11,14,12)     =    108.934679    -0.000202    -0.708746   108.225934
	   36 B(11,14,13)     =    108.903232    -0.000182    -0.629530   108.273702
	   37 B(12,14,13)     =    109.019655    -0.000170    -0.714978   108.304677
	   38 D(1,4,7,5)      =   -179.854561     0.000016     0.421940  -179.432621
	   39 D(1,4,7,6)      =    -60.372967    -0.000028    -0.843473   -61.216440
	   40 D(1,4,7,10)     =     59.916786    -0.000006    -0.117806    59.798980
	   41 D(2,4,7,5)      =    -59.786082     0.000020     0.513952   -59.272130
	   42 D(2,4,7,6)      =     59.695512    -0.000024    -0.751461    58.944051
	   43 D(2,4,7,10)     =    179.985265    -0.000002    -0.025794   179.959471
	   44 D(3,4,7,5)      =     60.232984     0.000024     0.598885    60.831869
	   45 D(3,4,7,6)      =    179.714578    -0.000020    -0.666528   179.048050
	   46 D(3,4,7,10)     =    -59.995669     0.000002     0.059139   -59.936530
	   47 D(4,7,10,8)     =    -79.566824     0.000034     1.012784   -78.554041
	   48 D(4,7,10,9)     =     39.807602    -0.000014    -0.341963    39.465640
	   49 D(4,7,10,14)    =    160.122825     0.000008     0.169898   160.292724
	   50 D(5,7,10,8)     =    160.189563     0.000011     0.473884   160.663447
	   51 D(5,7,10,9)     =    -80.436010    -0.000037    -0.880862   -81.316872
	   52 D(5,7,10,14)    =     39.879213    -0.000015    -0.369002    39.510212
	   53 D(6,7,10,8)     =     40.805442     0.000059     1.828291    42.633733
	   54 D(6,7,10,9)     =    160.179869     0.000011     0.473545   160.653414
	   55 D(6,7,10,14)    =    -79.504908     0.000033     0.985406   -78.519503
	   56 D(7,10,14,11)   =    179.966819    -0.000002    -0.013315   179.953504
	   57 D(7,10,14,12)   =     59.870359    -0.000005    -0.091973    59.778387
	   58 D(7,10,14,13)   =    -60.007597     0.000002     0.070710   -59.936887
	   59 D(8,10,14,11)   =     59.717937    -0.000024    -0.755429    58.962508
	   60 D(8,10,14,12)   =    -60.378523    -0.000027    -0.834087   -61.212610
	   61 D(8,10,14,13)   =    179.743521    -0.000020    -0.671405   179.072116
	   62 D(9,10,14,11)   =    -59.726575     0.000019     0.493584   -59.232991
	   63 D(9,10,14,12)   =   -179.823034     0.000016     0.414926  -179.408108
	   64 D(9,10,14,13)   =     60.299010     0.000023     0.577608    60.876618
	 ---------------------------------------------------------------------------
	 Forces used to impose fixed constraints are not included.
	  Forces zeroed: 49 

  ==> Convergence Check <==

  Measures of convergence in internal coordinates in au.
  Criteria marked as inactive (o), active & met (*), and active & unmet ( ).
  ---------------------------------------------------------------------------------------------
   Step     Total Energy     Delta E     MAX Force     RMS Force      MAX Disp      RMS Disp   
  ---------------------------------------------------------------------------------------------
    Convergence Criteria    1.00e-06 *    3.00e-04 *             o    1.20e-03 *             o
  ---------------------------------------------------------------------------------------------
      2    -157.84124815   -4.14e-03      7.31e-03      3.24e-03 o    3.19e-02      1.25e-02 o  ~
  ---------------------------------------------------------------------------------------------

	Writing optimization data to binary file.
	Structure for next step:
	Cartesian Geometry (in Angstrom)
	    H    -2.3686425588   0.0332747995   0.4488638817
	    H    -2.2300210146   1.6855279514  -0.1694166063
	    H    -1.9282367029   0.3113502962  -1.2433272771
	    C    -1.8033817024   0.6816951479  -0.2239839533
	    H     0.2205507686   1.3527561085  -0.5210692218
	    H    -0.2116104429   1.0787160312   1.1757906358
	    C    -0.3209701315   0.6898222780   0.1597475712
	    H     0.0112956508  -1.2736251930   0.9839833883
	    H    -0.0991404592  -1.2350950598  -0.7842294615
	    C     0.2978946437  -0.7123519358   0.0904931013
	    H     2.2510677734  -1.6650802755  -0.0553844044
	    H     2.2469255659  -0.1515581646   0.8614292043
	    H     2.1286808492  -0.1170885241  -0.9045316776
	    C     1.8249666014  -0.6607348757  -0.0077242080
			--------------------------
			 OPTKING Finished Execution 
			--------------------------

    Structure for next step:
    Molecular point group: c1
    Full point group: C1

    Geometry (in Angstrom), charge = 0, multiplicity = 1:

    H           -2.368696721314     0.033266269453     0.448642252489
    H           -2.230075177174     1.685519421339    -0.169638235494
    H           -1.928290865447     0.311341766167    -1.243548906314
    C           -1.803435864995     0.681686617812    -0.224205582545
    H            0.220496606002     1.352747578378    -0.521290851018
    H           -0.211664605463     1.078707501161     1.175569006526
    C           -0.321024294063     0.689813747952     0.159525942002
    H            0.011241488253    -1.273633723066     0.983761759081
    H           -0.099194621711    -1.235103589853    -0.784451090701
    C            0.297840481111    -0.712360465858     0.090271472048
    H            2.251013610883    -1.665088805567    -0.055606033645
    H            2.246871403362    -0.151566694723     0.861207575055
    H            2.128626686635    -0.117097054132    -0.904753306857
    C            1.824912438802    -0.660743405732    -0.007945837222

gradient() will perform analytic gradient computation.
    SCF Algorithm Type (re)set to DF.

*** tstart() called on lski1497
*** at Mon Feb 20 17:20:40 2017


         ---------------------------------------------------------
                                   SCF
            by Justin Turney, Rob Parrish, and Andy Simmonett
                              RHF Reference
                        1 Threads,   1000 MiB Core
         ---------------------------------------------------------

  ==> Geometry <==

    Molecular point group: c1
    Full point group: C1

    Geometry (in Angstrom), charge = 0, multiplicity = 1:

       Center              X                  Y                   Z               Mass       
    ------------   -----------------  -----------------  -----------------  -----------------
           H         -2.368696721314     0.033266269453     0.448642252489     1.007825032070
           H         -2.230075177174     1.685519421339    -0.169638235494     1.007825032070
           H         -1.928290865447     0.311341766167    -1.243548906314     1.007825032070
           C         -1.803435864995     0.681686617812    -0.224205582545    12.000000000000
           H          0.220496606002     1.352747578378    -0.521290851018     1.007825032070
           H         -0.211664605463     1.078707501161     1.175569006526     1.007825032070
           C         -0.321024294063     0.689813747952     0.159525942002    12.000000000000
           H          0.011241488253    -1.273633723066     0.983761759081     1.007825032070
           H         -0.099194621711    -1.235103589853    -0.784451090701     1.007825032070
           C          0.297840481111    -0.712360465858     0.090271472048    12.000000000000
           H          2.251013610883    -1.665088805567    -0.055606033645     1.007825032070
           H          2.246871403362    -0.151566694723     0.861207575055     1.007825032070
           H          2.128626686635    -0.117097054132    -0.904753306857     1.007825032070
           C          1.824912438802    -0.660743405732    -0.007945837222    12.000000000000

  Running in c1 symmetry.

  Rotational constants: A =      0.74931  B =      0.12256  C =      0.11581 [cm^-1]
  Rotational constants: A =  22463.81522  B =   3674.14548  C =   3471.87637 [MHz]
  Nuclear repulsion =  130.794601357601579

  Charge       = 0
  Multiplicity = 1
  Electrons    = 34
  Nalpha       = 17
  Nbeta        = 17

  ==> Algorithm <==

  SCF Algorithm Type is DF.
  DIIS enabled.
  MOM disabled.
  Fractional occupation disabled.
  Guess Type is READ.
  Energy threshold   = 1.00e-10
  Density threshold  = 1.00e-10
  Integral threshold = 0.00e+00

  ==> Primary Basis <==

  Basis Set: 6-31G(D)
    Number of shells: 44
    Number of basis function: 80
    Number of Cartesian functions: 80
    Spherical Harmonics?: false
    Max angular momentum: 2

  ==> Pre-Iterations <==

   -------------------------------------------------------
    Irrep   Nso     Nmo     Nalpha   Nbeta   Ndocc  Nsocc
   -------------------------------------------------------
     A         80      80       0       0       0       0
   -------------------------------------------------------
    Total      80      80      17      17      17       0
   -------------------------------------------------------

  ==> Integral Setup <==

  ==> DFJK: Density-Fitted J/K Matrices <==

    J tasked:                  Yes
    K tasked:                  Yes
    wK tasked:                  No
    OpenMP threads:              1
    Integrals threads:           1
    Memory (MB):               715
    Algorithm:                Core
    Integral Cache:           NONE
    Schwarz Cutoff:          1E-12
    Fitting Condition:       1E-12

   => Auxiliary Basis Set <=

  Basis Set: 
    Number of shells: 186
    Number of basis function: 574
    Number of Cartesian functions: 574
    Spherical Harmonics?: false
    Max angular momentum: 3

  Minimum eigenvalue in the overlap matrix is 4.6028212352E-03.
  Using Symmetric Orthogonalization.
  SCF Guess was Projection but file not found.
  Switching over to SAD guess.

  SCF Guess: Superposition of Atomic Densities via on-the-fly atomic UHF.

  ==> Iterations <==

                           Total Energy        Delta E     RMS |[F,P]|

   @DF-RHF iter   0:  -158.84261301693275   -1.58843e+02   4.62794e-02 
   @DF-RHF iter   1:  -157.20858040870425    1.63403e+00   3.86707e-03 
   @DF-RHF iter   2:  -157.28752250609145   -7.89421e-02   1.11582e-03 DIIS
   @DF-RHF iter   3:  -157.29582882586689   -8.30632e-03   2.66772e-04 DIIS
   @DF-RHF iter   4:  -157.29621556817048   -3.86742e-04   7.50391e-05 DIIS
   @DF-RHF iter   5:  -157.29625291529462   -3.73471e-05   1.18851e-05 DIIS
   @DF-RHF iter   6:  -157.29625400092860   -1.08563e-06   2.08458e-06 DIIS
   @DF-RHF iter   7:  -157.29625402338453   -2.24559e-08   7.03008e-07 DIIS
   @DF-RHF iter   8:  -157.29625402559870   -2.21416e-09   1.01385e-07 DIIS
   @DF-RHF iter   9:  -157.29625402568510   -8.64020e-11   2.29959e-08 DIIS
   @DF-RHF iter  10:  -157.29625402568954   -4.43379e-12   4.41685e-09 DIIS
   @DF-RHF iter  11:  -157.29625402568976   -2.27374e-13   8.93522e-10 DIIS
   @DF-RHF iter  12:  -157.29625402568982   -5.68434e-14   2.11537e-10 DIIS
   @DF-RHF iter  13:  -157.29625402568976    5.68434e-14   5.83088e-11 DIIS

  ==> Post-Iterations <==

    Orbital Energies (a.u.)
    -----------------------

    Doubly Occupied:                                                      

       1A    -11.215163     2A    -11.214580     3A    -11.209478  
       4A    -11.209466     5A     -1.068813     6A     -0.978631  
       7A     -0.858475     8A     -0.785957     9A     -0.639676  
      10A     -0.582305    11A     -0.579040    12A     -0.563277  
      13A     -0.511577    14A     -0.498349    15A     -0.464964  
      16A     -0.463663    17A     -0.452244  

    Virtual:                                                              

      18A      0.231650    19A      0.262141    20A      0.283417  
      21A      0.293761    22A      0.321670    23A      0.332653  
      24A      0.332900    25A      0.341934    26A      0.349677  
      27A      0.351523    28A      0.419677    29A      0.432351  
      30A      0.440551    31A      0.702390    32A      0.706209  
      33A      0.749638    34A      0.758615    35A      0.771055  
      36A      0.851206    37A      0.861789    38A      0.931786  
      39A      0.955794    40A      1.016110    41A      1.069128  
      42A      1.100305    43A      1.137785    44A      1.167985  
      45A      1.182540    46A      1.186005    47A      1.197397  
      48A      1.202897    49A      1.230027    50A      1.231794  
      51A      1.238386    52A      1.268806    53A      1.282781  
      54A      1.579832    55A      1.664803    56A      1.729229  
      57A      1.731257    58A      1.924210    59A      1.926829  
      60A      2.138203    61A      2.202176    62A      2.213637  
      63A      2.279695    64A      2.302162    65A      2.325139  
      66A      2.404002    67A      2.498619    68A      2.604114  
      69A      2.620161    70A      2.639954    71A      2.720640  
      72A      2.729712    73A      2.761594    74A      2.889378  
      75A      3.023554    76A      3.102005    77A      4.563318  
      78A      4.667922    79A      4.791113    80A      4.947618  

    Final Occupation by Irrep:
              A 
    DOCC [    17 ]

  Energy converged.

  @DF-RHF Final Energy:  -157.29625402568976

   => Energetics <=

    Nuclear Repulsion Energy =            130.7946013576015787
    One-Electron Energy =                -469.5903958182683482
    Two-Electron Energy =                 181.4995404349770922
    DFT Exchange-Correlation Energy =       0.0000000000000000
    Empirical Dispersion Energy =           0.0000000000000000
    PCM Polarization Energy =               0.0000000000000000
    EFP Energy =                            0.0000000000000000
    Total Energy =                       -157.2962540256897057


  Saving occupied orbitals to File 180.

*** tstop() called on lski1497 at Mon Feb 20 17:20:48 2017
Module time:
	user time   =       4.71 seconds =       0.08 minutes
	system time =       0.14 seconds =       0.00 minutes
	total time  =          8 seconds =       0.13 minutes
Total time:
	user time   =      49.81 seconds =       0.83 minutes
	system time =       1.47 seconds =       0.02 minutes
	total time  =         72 seconds =       1.20 minutes


Properties will be evaluated at   0.000000,   0.000000,   0.000000 Bohr

Properties computed using the SCF density matrix

  Nuclear Dipole Moment: (a.u.)
     X:     0.0191      Y:     0.0179      Z:    -0.1970

  Electronic Dipole Moment: (a.u.)
     X:    -0.0201      Y:    -0.0190      Z:     0.2081

  Dipole Moment: (a.u.)
     X:    -0.0010      Y:    -0.0011      Z:     0.0112     Total:     0.0113

  Dipole Moment: (Debye)
     X:    -0.0027      Y:    -0.0027      Z:     0.0284     Total:     0.0286


  //>>>>>>>>>>>>>>>>>>>>>>>>>>>>>>>>>>>//
  //               DFMP2               //
  //<<<<<<<<<<<<<<<<<<<<<<<<<<<<<<<<<<<//


*** tstart() called on lski1497
*** at Mon Feb 20 17:20:48 2017


*** tstop() called on lski1497 at Mon Feb 20 17:20:48 2017
Module time:
	user time   =       0.52 seconds =       0.01 minutes
	system time =       0.00 seconds =       0.00 minutes
	total time  =          0 seconds =       0.00 minutes
Total time:
	user time   =      50.35 seconds =       0.84 minutes
	system time =       1.47 seconds =       0.02 minutes
	total time  =         72 seconds =       1.20 minutes
	 --------------------------------------------------------
	                          DF-MP2                         
	      2nd-Order Density-Fitted Moller-Plesset Theory     
	              RMP2 Wavefunction,   1 Threads             
	                                                         
	        Rob Parrish, Justin Turney, Andy Simmonett,      
	           Ed Hohenstein, and C. David Sherrill          
	 --------------------------------------------------------

   => Auxiliary Basis Set <=

  Basis Set: 
    Number of shells: 132
    Number of basis function: 364
    Number of Cartesian functions: 414
    Spherical Harmonics?: true
    Max angular momentum: 3

	 --------------------------------------------------------
	                 NBF =    80, NAUX =   364
	 --------------------------------------------------------
	   CLASS    FOCC     OCC    AOCC    AVIR     VIR    FVIR
	   PAIRS       0      17      17      63      63       0
	 --------------------------------------------------------

DGAS Warning! /src/lib/libfock/apps.cc:80 is not currently checking restricted

         ------------------------------------------------------------
                                     CPHF                           
                                  Rob Parrish                       
         ------------------------------------------------------------

  ==> Geometry <==

    Molecular point group: c1
    Full point group: C1

    Geometry (in Angstrom), charge = 0, multiplicity = 1:

       Center              X                  Y                   Z               Mass       
    ------------   -----------------  -----------------  -----------------  -----------------
           H         -2.368696721314     0.033266269453     0.448642252489     1.007825032070
           H         -2.230075177174     1.685519421339    -0.169638235494     1.007825032070
           H         -1.928290865447     0.311341766167    -1.243548906314     1.007825032070
           C         -1.803435864995     0.681686617812    -0.224205582545    12.000000000000
           H          0.220496606002     1.352747578378    -0.521290851018     1.007825032070
           H         -0.211664605463     1.078707501161     1.175569006526     1.007825032070
           C         -0.321024294063     0.689813747952     0.159525942002    12.000000000000
           H          0.011241488253    -1.273633723066     0.983761759081     1.007825032070
           H         -0.099194621711    -1.235103589853    -0.784451090701     1.007825032070
           C          0.297840481111    -0.712360465858     0.090271472048    12.000000000000
           H          2.251013610883    -1.665088805567    -0.055606033645     1.007825032070
           H          2.246871403362    -0.151566694723     0.861207575055     1.007825032070
           H          2.128626686635    -0.117097054132    -0.904753306857     1.007825032070
           C          1.824912438802    -0.660743405732    -0.007945837222    12.000000000000

  Nuclear repulsion =  130.794601357601579
  Reference energy  = -157.296254025689763

  ==> Basis Set <==

  Basis Set: 6-31G(D)
    Number of shells: 44
    Number of basis function: 80
    Number of Cartesian functions: 80
    Spherical Harmonics?: false
    Max angular momentum: 2

  ==> CGRSolver (by Rob Parrish) <==

   Number of roots    =         1
   Preconditioning    =    JACOBI
   Convergence cutoff =     1E-06
   Maximum iterations =       100

  ==> CPHFRHamiltonian (by Rob Parrish) <== 

  ==> DFJK: Density-Fitted J/K Matrices <==

    J tasked:                  Yes
    K tasked:                  Yes
[...]
  CGR           4          0          1   3.680E-04
  CGR           5          0          1   6.548E-05
  CGR           6          0          1   1.417E-05
  CGR           7          0          1   2.516E-06
  CGR           8          1          0   4.886E-07

    CGRSolver converged.

  ==> DFCorrGrad: Density-Fitted Correlated Gradients <==

    OpenMP threads:              1
    Integrals threads:           1
    Memory (MB):               715
    Schwarz Cutoff:          0E+00
    Fitting Condition:       1E-12

   => Auxiliary Basis Set <=

  Basis Set: 
    Number of shells: 186
    Number of basis function: 510
    Number of Cartesian functions: 574
    Spherical Harmonics?: true
    Max angular momentum: 3

	-----------------------------------------------------------
	 ==================> DF-MP2 Energies <==================== 
	-----------------------------------------------------------
	 Reference Energy          =    -157.2965374709301045 [Eh]
	 Singles Energy            =      -0.0000000000000000 [Eh]
	 Same-Spin Energy          =      -0.1244124572739892 [Eh]
	 Opposite-Spin Energy      =      -0.4222644818385381 [Eh]
	 Correlation Energy        =      -0.5466769391125272 [Eh]
	 Total Energy              =    -157.8432144100426342 [Eh]
	-----------------------------------------------------------
	 ================> DF-SCS-MP2 Energies <================== 
	-----------------------------------------------------------
	 SCS Same-Spin Scale       =       0.3333333333333333 [-]
	 SCS Opposite-Spin Scale   =       1.2000000000000000 [-]
	 SCS Same-Spin Energy      =      -0.0414708190913297 [Eh]
	 SCS Opposite-Spin Energy  =      -0.5067173782062457 [Eh]
	 SCS Correlation Energy    =      -0.5481881972975755 [Eh]
	 SCS Total Energy          =    -157.8447256682276816 [Eh]
	-----------------------------------------------------------


  -Total Gradient:
     Atom            X                  Y                   Z
    ------   -----------------  -----------------  -----------------
       1       -0.000086146740    -0.000112112859     0.000126042887
       2       -0.000072418498     0.000195814091     0.000001212585
       3       -0.000070847902    -0.000074937982    -0.000205624668
       4        0.000967256575     0.000392508955    -0.002448460230
       5        0.000015150086     0.000034176564     0.000057517293
       6       -0.000007088572     0.000009781081     0.000096304415
       7       -0.001089747172    -0.000516276358     0.002336601470
       8       -0.000011283650    -0.000027039356     0.000097898643
       9       -0.000026892405    -0.000046557171     0.000041043724
      10        0.000634983305     0.000088681013     0.002545507170
      11        0.000077888860    -0.000198248335    -0.000019710815
      12        0.000060375808     0.000085974156     0.000157404287
      13        0.000102195171     0.000104530736    -0.000167337558
      14       -0.000493424863     0.000063705464    -0.002618399205


			-----------------------------------------
			 OPTKING 2.0: for geometry optimizations 
			  - R.A. King,  Bethel University        
			-----------------------------------------

	Previous internal coordinate definitions found.
	---Fragment 1 Geometry and Gradient---
	 H          -4.4944759178        0.0415658781        0.8209644517
	 H          -4.2290716549        3.1851634134       -0.2809484872
	 H          -3.6621556788        0.6283776275       -2.3600620279
	 C          -3.4090914733        1.2925229321       -0.4185970664
	 H           0.4013466322        2.5531573683       -0.9969507531
	 H          -0.3613224499        2.0851215132        2.1935268772
	 C          -0.6180833255        1.2931620795        0.2962854256
	 H          -0.0093705722       -2.4413463755        1.8247081029
	 H          -0.1725747551       -2.3332881585       -1.4831381699
	 C           0.5747481266       -1.3347946719        0.1733281711
	 H           4.2605533981       -3.1549516449       -0.0598873045
	 H           4.2708594510       -0.2564981851        1.6031567216
	 H           4.0393433965       -0.2658651172       -1.7288585017
	 C           3.4488042257       -1.2543703864       -0.0117542629
	            -0.0000861467       -0.0001121129        0.0001260429
	            -0.0000724185        0.0001958141        0.0000012126
	            -0.0000708479       -0.0000749380       -0.0002056247
	             0.0009672566        0.0003925090       -0.0024484602
	             0.0000151501        0.0000341766        0.0000575173
	            -0.0000070886        0.0000097811        0.0000963044
	            -0.0010897472       -0.0005162764        0.0023366015
	            -0.0000112837       -0.0000270394        0.0000978986
	            -0.0000268924       -0.0000465572        0.0000410437
	             0.0006349833        0.0000886810        0.0025455072
	             0.0000778889       -0.0001982483       -0.0000197108
	             0.0000603758        0.0000859742        0.0001574043
	             0.0001021952        0.0001045307       -0.0001673376
	            -0.0004934249        0.0000637055       -0.0026183992

	---Fragment 1 Intrafragment Coordinates---
	 - Coordinate -           - BOHR/RAD -       - ANG/DEG -
	 R(1,4)           =         2.068687	       1.094702
	 R(2,4)           =         2.067221	       1.093926
	 R(3,4)           =         2.067466	       1.094056
	 R(4,7)           =         2.881108	       1.524617
	 R(5,7)           =         2.073472	       1.097234
	 R(6,7)           =         2.071871	       1.096387
	 R(7,10)          =         2.888619	       1.528592
	 R(8,10)          =         2.071885	       1.096394
	 R(9,10)          =         2.073490	       1.097244
	 R(10,14)         =         2.881132	       1.524629
	 R(11,14)         =         2.067236	       1.093934
	 R(12,14)         =         2.068686	       1.094701
	 R(13,14)         =         2.067444	       1.094044
	 B(1,4,2)         =         1.881393	     107.795903
	 B(1,4,3)         =         1.879902	     107.710473
	 B(1,4,7)         =         1.938765	     111.083048
	 B(2,4,3)         =         1.883974	     107.943764
	 B(2,4,7)         =         1.947147	     111.563283
	 B(3,4,7)         =         1.930132	     110.588392
	 B(4,7,5)         =         1.898273	     108.763012
	 B(4,7,6)         =         1.925540	     110.325328
	 B(4,7,10)        =         1.970629	     112.908728
	 B(5,7,6)         =         1.852432	     106.136537
	 B(5,7,10)        =         1.899975	     108.860553
	 B(6,7,10)        =         1.912990	     109.606257
	 B(7,10,8)        =         1.912974	     109.605346
	 B(7,10,9)        =         1.899981	     108.860883
	 B(7,10,14)       =         1.970632	     112.908882
	 B(8,10,9)        =         1.852447	     106.137378
	 B(8,10,14)       =         1.925533	     110.324935
	 B(9,10,14)       =         1.898273	     108.763057
	 B(10,14,11)      =         1.947160	     111.564065
	 B(10,14,12)      =         1.938765	     111.083069
	 B(10,14,13)      =         1.930115	     110.587416
	 B(11,14,12)      =         1.881384	     107.795372
	 B(11,14,13)      =         1.883974	     107.943759
	 B(12,14,13)      =         1.879915	     107.711193
	 D(1,4,7,5)       =         3.133345	     179.527443
	 D(1,4,7,6)       =        -1.124727	     -64.442137
	 D(1,4,7,10)      =         1.022471	      58.583269
	 D(2,4,7,5)       =        -1.050173	     -60.170459
	 D(2,4,7,6)       =         0.974940	      55.859960
	 D(2,4,7,10)      =         3.122139	     178.885367
	 D(3,4,7,5)       =         1.046902	      59.983090
	 D(3,4,7,6)       =         3.072015	     176.013509
	 D(3,4,7,10)      =        -1.063972	     -60.961084
	 D(4,7,10,8)      =        -1.331018	     -76.261728
	 D(4,7,10,9)      =         0.688114	      39.426031
	 D(4,7,10,14)     =         2.798026	     160.315108
	 D(5,7,10,8)      =         2.842261	     162.849582
	 D(5,7,10,9)      =        -1.421792	     -81.462659
	 D(5,7,10,14)     =         0.688121	      39.426418
	 D(6,7,10,8)      =         0.823141	      47.162513
	 D(6,7,10,9)      =         2.842273	     162.850271
	 D(6,7,10,14)     =        -1.330999	     -76.260652
	 D(7,10,14,11)    =         3.122136	     178.885238
	 D(7,10,14,12)    =         1.022471	      58.583270
	 D(7,10,14,13)    =        -1.063976	     -60.961359
	 D(8,10,14,11)    =         0.974962	      55.861199
	 D(8,10,14,12)    =        -1.124704	     -64.440768
	 D(8,10,14,13)    =         3.072034	     176.014602
	 D(9,10,14,11)    =        -1.050165	     -60.170039
	 D(9,10,14,12)    =         3.133355	     179.527993
	 D(9,10,14,13)    =         1.046907	      59.983363

	Current energy   :      -157.8432144100

	Energy change for the previous step:
		Projected    :         0.0003958062
		Actual       :        -0.0000032898

	Performing BFGS update.
	Previous computed or guess Hessian on step 1.
	Steps to be used in Hessian update: 10 9
	Adding user-defined constraint: Fragment 1; Coordinate 49:
		Value =     2.798026; Fixed value    =     2.792530
		Force =    -0.004122; Force constant =     0.750000
	Removing off-diagonal coupling between coordinate 49 and others.
	Taking RFO optimization step.
	Going to follow RFO solution 1.
	Rejecting RFO root 1 because normalization gives large value.
	Using RFO vector 2.
	Norm of target step-size    0.00216
	Projected energy change by RFO approximation:        -0.0000006665

	Back-transformation to cartesian coordinates...
	Successfully converged to displaced geometry.

	--- Internal Coordinate Step in ANG or DEG, aJ/ANG or AJ/DEG ---
	 ---------------------------------------------------------------------------
	   Coordinate                Previous        Force       Change         New 
	   ----------                --------       ------       ------       ------
	    1 R(1,4)          =      1.094702    -0.001553    -0.000191     1.094511
	    2 R(2,4)          =      1.093926    -0.001715    -0.000215     1.093711
	    3 R(3,4)          =      1.094056    -0.001860    -0.000229     1.093827
	    4 R(4,7)          =      1.524617     0.000725     0.000121     1.524738
	    5 R(5,7)          =      1.097234     0.000063     0.000010     1.097244
	    6 R(6,7)          =      1.096387    -0.000750    -0.000092     1.096295
	    7 R(7,10)         =      1.528592    -0.000627    -0.000104     1.528488
	    8 R(8,10)         =      1.096394    -0.000788    -0.000096     1.096299
	    9 R(9,10)         =      1.097244     0.000005     0.000005     1.097249
	   10 R(10,14)        =      1.524629     0.000666     0.000113     1.524742
	   11 R(11,14)        =      1.093934    -0.001758    -0.000219     1.093715
	   12 R(12,14)        =      1.094701    -0.001551    -0.000191     1.094510
	   13 R(13,14)        =      1.094044    -0.001797    -0.000224     1.093821
	   14 B(1,4,2)        =    107.795903    -0.000001     0.000129   107.796032
	   15 B(1,4,3)        =    107.710473     0.000001     0.002095   107.712568
	   16 B(1,4,7)        =    111.083048     0.000003     0.008551   111.091599
	   17 B(2,4,3)        =    107.943764     0.000002     0.004693   107.948457
	   18 B(2,4,7)        =    111.563283     0.000001     0.004859   111.568142
	   19 B(3,4,7)        =    110.588392    -0.000005    -0.020013   110.568379
	   20 B(4,7,5)        =    108.763012     0.000004     0.000997   108.764010
	   21 B(4,7,6)        =    110.325328    -0.000005    -0.000031   110.325297
	   22 B(4,7,10)       =    112.908728     0.000000    -0.002641   112.906087
	   23 B(5,7,6)        =    106.136537     0.000001     0.002460   106.138997
	   24 B(5,7,10)       =    108.860553    -0.000001     0.003349   108.863903
	   25 B(6,7,10)       =    109.606257     0.000001    -0.003708   109.602549
	   26 B(7,10,8)       =    109.605346     0.000001    -0.003164   109.602181
	   27 B(7,10,9)       =    108.860883    -0.000001     0.003016   108.863900
	   28 B(7,10,14)      =    112.908882     0.000000    -0.002692   112.906190
	   29 B(8,10,9)       =    106.137378     0.000001     0.002013   106.139391
	   30 B(8,10,14)      =    110.324935    -0.000005     0.000338   110.325273
	   31 B(9,10,14)      =    108.763057     0.000005     0.000873   108.763930
	   32 B(10,14,11)     =    111.564065     0.000001     0.004494   111.568559
	   33 B(10,14,12)     =    111.083069     0.000002     0.008602   111.091671
	   34 B(10,14,13)     =    110.587416    -0.000005    -0.019387   110.568029
	   35 B(11,14,12)     =    107.795372    -0.000001     0.000329   107.795701
	   36 B(11,14,13)     =    107.943759     0.000002     0.004612   107.948370
	   37 B(12,14,13)     =    107.711193     0.000001     0.001647   107.712840
	   38 D(1,4,7,5)      =    179.527443    -0.000000    -0.027089   179.500354
	   39 D(1,4,7,6)      =    -64.442137    -0.000000    -0.023567   -64.465704
	   40 D(1,4,7,10)     =     58.583269    -0.000001    -0.030305    58.552964
	   41 D(2,4,7,5)      =    -60.170459     0.000000    -0.017790   -60.188249
	   42 D(2,4,7,6)      =     55.859960     0.000000    -0.014268    55.845693
	   43 D(2,4,7,10)     =    178.885367    -0.000000    -0.021006   178.864361
	   44 D(3,4,7,5)      =     59.983090    -0.000000    -0.022146    59.960944
	   45 D(3,4,7,6)      =    176.013509     0.000000    -0.018624   175.994885
	   46 D(3,4,7,10)     =    -60.961084    -0.000000    -0.025362   -60.986447
	   47 D(4,7,10,8)     =    -76.261728     0.000002     0.010893   -76.250834
	   48 D(4,7,10,9)     =     39.426031     0.000002     0.013247    39.439277
	   49 D(4,7,10,14)    =    160.315108     0.000003     0.014701   160.329808
	   50 D(5,7,10,8)     =    162.849582     0.000000     0.009016   162.858599
	   51 D(5,7,10,9)     =    -81.462659     0.000001     0.011369   -81.451290
	   52 D(5,7,10,14)    =     39.426418     0.000002     0.012823    39.439241
	   53 D(6,7,10,8)     =     47.162513     0.000000     0.006241    47.168754
	   54 D(6,7,10,9)     =    162.850271     0.000000     0.008594   162.858865
	   55 D(6,7,10,14)    =    -76.260652     0.000002     0.010048   -76.250603
	   56 D(7,10,14,11)   =    178.885238    -0.000000    -0.020461   178.864777
	   57 D(7,10,14,12)   =     58.583270    -0.000000    -0.029801    58.553469
	   58 D(7,10,14,13)   =    -60.961359    -0.000000    -0.024740   -60.986100
	   59 D(8,10,14,11)   =     55.861199     0.000000    -0.014668    55.846531
	   60 D(8,10,14,12)   =    -64.440768    -0.000000    -0.024009   -64.464777
	   61 D(8,10,14,13)   =    176.014602     0.000000    -0.018948   175.995655
	   62 D(9,10,14,11)   =    -60.170039     0.000000    -0.017786   -60.187825
	   63 D(9,10,14,12)   =    179.527993    -0.000000    -0.027126   179.500867
	   64 D(9,10,14,13)   =     59.983363    -0.000000    -0.022065    59.961298
	 ---------------------------------------------------------------------------
	 Forces used to impose fixed constraints are not included.
	  Forces zeroed: 49 

  ==> Convergence Check <==

  Measures of convergence in internal coordinates in au.
  Criteria marked as inactive (o), active & met (*), and active & unmet ( ).
  ---------------------------------------------------------------------------------------------
   Step     Total Energy     Delta E     MAX Force     RMS Force      MAX Disp      RMS Disp   
  ---------------------------------------------------------------------------------------------
    Convergence Criteria    1.00e-06 *    3.00e-04 *             o    1.20e-03 *             o
  ---------------------------------------------------------------------------------------------
     11    -157.84321441   -3.29e-06      2.26e-04 *    7.56e-05 o    5.29e-04 *    2.70e-04 o  ~
  ---------------------------------------------------------------------------------------------


  **** Optimization is complete! (in 11 steps) ****

  ==> Optimization Summary <==

  Measures of convergence in internal coordinates in au.
  --------------------------------------------------------------------------------------------------------------- ~
   Step         Total Energy             Delta E       MAX Force       RMS Force        MAX Disp        RMS Disp  ~
  --------------------------------------------------------------------------------------------------------------- ~
      1    -157.837107179382   -157.837107179382      0.01823549      0.00730742      0.02868859      0.01251170  ~
      2    -157.841248144974     -0.004140965592      0.00731304      0.00323559      0.03190954      0.01250057  ~
      3    -157.842753283904     -0.001505138930      0.00225290      0.00096950      0.04784744      0.01251602  ~
      4    -157.843154419627     -0.000401135723      0.00096443      0.00028272      0.02917332      0.01249642  ~
      5    -157.843229712906     -0.000075293279      0.00014156      0.00005593      0.00890089      0.00426180  ~
      6    -157.843234650146     -0.000004937240      0.00018832      0.00004167      0.01676789      0.00775753  ~
      7    -157.843199726901      0.000034923244      0.00077038      0.00023443      0.00866239      0.00384586  ~
      8    -157.843222074140     -0.000022347238      0.00018989      0.00006329      0.00468126      0.00233164  ~
      9    -157.843225959084     -0.000003884945      0.00020084      0.00005908      0.02556867      0.01249857  ~
     10    -157.843211120275      0.000014838810      0.00141466      0.00043106      0.02609810      0.01250050  ~
     11    -157.843214410043     -0.000003289768      0.00022578      0.00007816      0.00052893      0.00026952  ~
  --------------------------------------------------------------------------------------------------------------- ~

	Writing optimization data to binary file.
	Final energy is   -157.8432144100426
	Final (previous) structure:
	Cartesian Geometry (in Angstrom)
	    H    -2.3783742202   0.0219957153   0.4344356769
	    H    -2.2379283333   1.6855158840  -0.1486715362
	    H    -1.9379293195   0.3325231188  -1.2488910360
	    C    -1.8040135097   0.6839736773  -0.2215120271
	    H     0.2123834905   1.3510726892  -0.5275636166
	    H    -0.1912036054   1.1033987819   1.1607644299
	    C    -0.3270756088   0.6843118995   0.1567874945
	    H    -0.0049586932  -1.2919048602   0.9655939404
	    H    -0.0913226272  -1.2347229145  -0.7848429167
	    C     0.3041436093  -0.7063429185   0.0917213177
	    H     2.2545877543  -1.6695285047  -0.0316909966
	    H     2.2600414826  -0.1357329936   0.8483539988
	    H     2.1375284631  -0.1406897606  -0.9148725160
	    C     1.8250285932  -0.6637842196  -0.0062200881
	Saving final (previous) structure.
			--------------------------
			 OPTKING Finished Execution 
			--------------------------

    Final optimized geometry and variables:
    Molecular point group: c1
    Full point group: C1

    Geometry (in Angstrom), charge = 0, multiplicity = 1:

    H           -2.378374220233     0.021995715339     0.434435676919
    H           -2.237928333257     1.685515883985    -0.148671536237
    H           -1.937929319546     0.332523118838    -1.248891036029
    C           -1.804013509695     0.683973677266    -0.221512027141
    H            0.212383490519     1.351072689233    -0.527563616615
    H           -0.191203605444     1.103398781907     1.160764429856
    C           -0.327075608844     0.684311899489     0.156787494491
    H           -0.004958693238    -1.291904860198     0.965593940406
    H           -0.091322627155    -1.234722914532    -0.784842916723
    C            0.304143609289    -0.706342918504     0.091721317738
    H            2.254587754276    -1.669528504672    -0.031690996610
    H            2.260041482563    -0.135732993606     0.848353998849
    H            2.137528463115    -0.140689760604    -0.914872515977
    C            1.825028593151    -0.663784219617    -0.006220088056

	Cleaning optimization helper files.

*** Psi4 exiting successfully. Buy a developer a beer!
