    -----------------------------------------------------------------------
          Psi4: An Open-Source Ab Initio Electronic Structure Package
                              Psi4 1.0.0 Driver

                          Git: Rev {master} 6a9a71b 

    J. M. Turney, A. C. Simmonett, R. M. Parrish, E. G. Hohenstein,
    F. A. Evangelista, J. T. Fermann, B. J. Mintz, L. A. Burns, J. J. Wilke,
    M. L. Abrams, N. J. Russ, M. L. Leininger, C. L. Janssen, E. T. Seidl,
    W. D. Allen, H. F. Schaefer, R. A. King, E. F. Valeev, C. D. Sherrill,
    and T. D. Crawford, WIREs Comput. Mol. Sci. 2, 556-565 (2012)
    (doi: 10.1002/wcms.93)

                         Additional Contributions by
    A. E. DePrince, U. Bozkaya, A. Yu. Sokolov, D. G. A. Smith, R. Di Remigio,
    R. M. Richard, J. F. Gonthier, H. R. McAlexander, M. Saitow, and
    B. P. Pritchard
    -----------------------------------------------------------------------


    Psi4 started on: Mon Feb 20 17:36:24 2017

    Process ID:  28222
    PSI4DATADIR: /Users/sternc1/anaconda/share/psi4
    Memory level set to 256.000 MB

  ==> Input File <==

--------------------------------------------------------------------------

memory 1000 mb

molecule butane {
  symmetry C1
  0 1 
  H      1.604   0.760   -8.260
  H      1.745   2.388   -8.880
  H      2.043   1.024   -9.930
  C      2.142   1.395   -8.932
  H      4.169   2.051   -9.210
  H      3.731   1.788   -7.539
  C      3.631   1.416   -8.537
  H      4.989   -0.119   -7.894
  H      3.428   -0.718   -8.400
  C      4.203   -0.012   -8.612
  H      5.156   -1.261   -10.076
  H      5.534   0.436   -10.237
  H      3.973   -0.163   -10.743
  C      4.759   -0.270   -10.024
  units Angstrom
}

dih_string = "4 7 10 14 90"
set optking fixed_dihedral = $dih_string

optimize('MP2/6-31G(d)')
--------------------------------------------------------------------------

  Memory set to 1000.000 MiB by Python script.
gradient() will perform analytic gradient computation.
    SCF Algorithm Type (re)set to DF.

*** tstart() called on lski1497
*** at Mon Feb 20 17:36:26 2017


         ---------------------------------------------------------
                                   SCF
            by Justin Turney, Rob Parrish, and Andy Simmonett
                              RHF Reference
                        1 Threads,   1000 MiB Core
         ---------------------------------------------------------

  ==> Geometry <==

    Molecular point group: c1
    Full point group: C1

    Geometry (in Angstrom), charge = 0, multiplicity = 1:

       Center              X                  Y                   Z               Mass       
    ------------   -----------------  -----------------  -----------------  -----------------
           H         -2.071672233369     0.130118668411     0.781980387650     1.007825032070
           H         -1.930672233369     1.758118668411     0.161980387650     1.007825032070
           H         -1.632672233369     0.394118668411    -0.888019612350     1.007825032070
           C         -1.533672233369     0.765118668411     0.109980387650    12.000000000000
           H          0.493327766631     1.421118668411    -0.168019612350     1.007825032070
           H          0.055327766631     1.158118668411     1.502980387650     1.007825032070
           C         -0.044672233369     0.786118668411     0.504980387650    12.000000000000
           H          1.313327766631    -0.748881331589     1.147980387650     1.007825032070
           H         -0.247672233369    -1.347881331589     0.641980387650     1.007825032070
           C          0.527327766631    -0.641881331589     0.429980387650    12.000000000000
           H          1.480327766631    -1.890881331589    -1.034019612350     1.007825032070
           H          1.858327766631    -0.193881331589    -1.195019612350     1.007825032070
           H          0.297327766631    -0.792881331589    -1.701019612350     1.007825032070
           C          1.083327766631    -0.899881331589    -0.982019612350    12.000000000000

  Running in c1 symmetry.

  Rotational constants: A =      0.48462  B =      0.15012  C =      0.13798 [cm^-1]
  Rotational constants: A =  14528.48456  B =   4500.43241  C =   4136.43076 [MHz]
  Nuclear repulsion =  133.477523262290134

  Charge       = 0
  Multiplicity = 1
  Electrons    = 34
  Nalpha       = 17
  Nbeta        = 17

  ==> Algorithm <==

  SCF Algorithm Type is DF.
  DIIS enabled.
  MOM disabled.
  Fractional occupation disabled.
  Guess Type is SAD.
  Energy threshold   = 1.00e-10
  Density threshold  = 1.00e-10
  Integral threshold = 0.00e+00

  ==> Primary Basis <==

  Basis Set: 6-31G(D)
    Number of shells: 44
    Number of basis function: 80
    Number of Cartesian functions: 80
    Spherical Harmonics?: false
    Max angular momentum: 2

  ==> Pre-Iterations <==

   -------------------------------------------------------
    Irrep   Nso     Nmo     Nalpha   Nbeta   Ndocc  Nsocc
   -------------------------------------------------------
     A         80      80       0       0       0       0
   -------------------------------------------------------
    Total      80      80      17      17      17       0
   -------------------------------------------------------

  ==> Integral Setup <==

  ==> DFJK: Density-Fitted J/K Matrices <==

    J tasked:                  Yes
    K tasked:                  Yes
    wK tasked:                  No
    OpenMP threads:              1
    Integrals threads:           1
    Memory (MB):               715
    Algorithm:                Core
    Integral Cache:           NONE
    Schwarz Cutoff:          1E-12
    Fitting Condition:       1E-12

   => Auxiliary Basis Set <=

  Basis Set: 
    Number of shells: 186
    Number of basis function: 574
    Number of Cartesian functions: 574
    Spherical Harmonics?: false
    Max angular momentum: 3

  Minimum eigenvalue in the overlap matrix is 5.2290302392E-03.
  Using Symmetric Orthogonalization.
  SCF Guess: Superposition of Atomic Densities via on-the-fly atomic UHF.

  ==> Iterations <==

                           Total Energy        Delta E     RMS |[F,P]|

   @DF-RHF iter   0:  -158.99168738683957   -1.58992e+02   4.75357e-02 
   @DF-RHF iter   1:  -157.20134299372873    1.79034e+00   3.98050e-03 
   @DF-RHF iter   2:  -157.28234812461912   -8.10051e-02   1.08594e-03 DIIS
   @DF-RHF iter   3:  -157.29005267314730   -7.70455e-03   2.47642e-04 DIIS
   @DF-RHF iter   4:  -157.29040729811626   -3.54625e-04   7.74037e-05 DIIS
   @DF-RHF iter   5:  -157.29044126217266   -3.39641e-05   1.29367e-05 DIIS
   @DF-RHF iter   6:  -157.29044251688160   -1.25471e-06   1.85972e-06 DIIS
   @DF-RHF iter   7:  -157.29044253616505   -1.92834e-08   6.12673e-07 DIIS
   @DF-RHF iter   8:  -157.29044253784733   -1.68228e-09   1.11643e-07 DIIS
   @DF-RHF iter   9:  -157.29044253793975   -9.24274e-11   2.60299e-08 DIIS
   @DF-RHF iter  10:  -157.29044253794578   -6.02540e-12   5.01759e-09 DIIS
   @DF-RHF iter  11:  -157.29044253794561    1.70530e-13   1.13610e-09 DIIS
   @DF-RHF iter  12:  -157.29044253794572   -1.13687e-13   3.30110e-10 DIIS
   @DF-RHF iter  13:  -157.29044253794606   -3.41061e-13   6.42382e-11 DIIS

  ==> Post-Iterations <==

    Orbital Energies (a.u.)
    -----------------------

    Doubly Occupied:                                                      

       1A    -11.207030     2A    -11.206439     3A    -11.201032  
       4A    -11.200867     5A     -1.072453     6A     -0.977888  
       7A     -0.869847     8A     -0.788987     9A     -0.631643  
      10A     -0.620286    11A     -0.581394    12A     -0.543661  
      13A     -0.524711    14A     -0.507323    15A     -0.473398  
      16A     -0.458613    17A     -0.446457  

    Virtual:                                                              

      18A      0.234191    19A      0.279323    20A      0.281817  
      21A      0.296263    22A      0.314762    23A      0.320741  
      24A      0.345379    25A      0.352724    26A      0.355248  
      27A      0.393636    28A      0.400748    29A      0.445421  
      30A      0.452866    31A      0.713584    32A      0.726551  
      33A      0.729903    34A      0.751697    35A      0.768319  
      36A      0.828838    37A      0.859450    38A      0.933313  
      39A      0.948856    40A      1.000282    41A      1.074141  
      42A      1.116610    43A      1.173387    44A      1.177635  
      45A      1.204003    46A      1.205172    47A      1.209600  
      48A      1.231390    49A      1.255786    50A      1.256861  
      51A      1.266107    52A      1.289674    53A      1.305086  
      54A      1.489981    55A      1.705473    56A      1.728346  
      57A      1.847179    58A      1.875878    59A      2.023154  
      60A      2.084608    61A      2.193822    62A      2.249860  
      63A      2.280493    64A      2.303212    65A      2.389713  
      66A      2.469606    67A      2.480857    68A      2.614212  
      69A      2.652739    70A      2.678320    71A      2.725065  
      72A      2.783227    73A      2.807134    74A      2.900208  
      75A      2.984561    76A      3.085244    77A      4.575313  
      78A      4.679439    79A      4.846203    80A      4.954940  

    Final Occupation by Irrep:
              A 
    DOCC [    17 ]

  Energy converged.

  @DF-RHF Final Energy:  -157.29044253794606

   => Energetics <=

    Nuclear Repulsion Energy =            133.4775232622901342
    One-Electron Energy =                -474.9118750917477882
    Two-Electron Energy =                 184.1439092915117044
    DFT Exchange-Correlation Energy =       0.0000000000000000
    Empirical Dispersion Energy =           0.0000000000000000
    PCM Polarization Energy =               0.0000000000000000
    EFP Energy =                            0.0000000000000000
    Total Energy =                       -157.2904425379459781


  Saving occupied orbitals to File 180.

*** tstop() called on lski1497 at Mon Feb 20 17:36:34 2017
Module time:
	user time   =       4.88 seconds =       0.08 minutes
	system time =       0.28 seconds =       0.00 minutes
	total time  =          8 seconds =       0.13 minutes
Total time:
	user time   =       4.88 seconds =       0.08 minutes
	system time =       0.28 seconds =       0.00 minutes
	total time  =          8 seconds =       0.13 minutes


Properties will be evaluated at   0.000000,   0.000000,   0.000000 Bohr

Properties computed using the SCF density matrix

  Nuclear Dipole Moment: (a.u.)
     X:    -0.3607      Y:    -0.1058      Z:    -0.7023

  Electronic Dipole Moment: (a.u.)
     X:     0.3784      Y:     0.1101      Z:     0.7360

  Dipole Moment: (a.u.)
     X:     0.0178      Y:     0.0044      Z:     0.0337     Total:     0.0383

  Dipole Moment: (Debye)
     X:     0.0452      Y:     0.0111      Z:     0.0856     Total:     0.0974


  //>>>>>>>>>>>>>>>>>>>>>>>>>>>>>>>>>>>//
  //               DFMP2               //
  //<<<<<<<<<<<<<<<<<<<<<<<<<<<<<<<<<<<//


*** tstart() called on lski1497
*** at Mon Feb 20 17:36:34 2017


*** tstop() called on lski1497 at Mon Feb 20 17:36:35 2017
Module time:
	user time   =       0.49 seconds =       0.01 minutes
	system time =       0.00 seconds =       0.00 minutes
	total time  =          1 seconds =       0.02 minutes
Total time:
	user time   =       5.39 seconds =       0.09 minutes
	system time =       0.28 seconds =       0.00 minutes
	total time  =          9 seconds =       0.15 minutes
	 --------------------------------------------------------
	                          DF-MP2                         
	      2nd-Order Density-Fitted Moller-Plesset Theory     
	              RMP2 Wavefunction,   1 Threads             
	                                                         
	        Rob Parrish, Justin Turney, Andy Simmonett,      
	           Ed Hohenstein, and C. David Sherrill          
	 --------------------------------------------------------

   => Auxiliary Basis Set <=

  Basis Set: 
    Number of shells: 132
    Number of basis function: 364
    Number of Cartesian functions: 414
    Spherical Harmonics?: true
    Max angular momentum: 3

	 --------------------------------------------------------
	                 NBF =    80, NAUX =   364
	 --------------------------------------------------------
	   CLASS    FOCC     OCC    AOCC    AVIR     VIR    FVIR
	   PAIRS       0      17      17      63      63       0
	 --------------------------------------------------------

DGAS Warning! /src/lib/libfock/apps.cc:80 is not currently checking restricted

         ------------------------------------------------------------
                                     CPHF                           
                                  Rob Parrish                       
         ------------------------------------------------------------

  ==> Geometry <==

    Molecular point group: c1
    Full point group: C1

    Geometry (in Angstrom), charge = 0, multiplicity = 1:

       Center              X                  Y                   Z               Mass       
    ------------   -----------------  -----------------  -----------------  -----------------
           H         -2.071672233369     0.130118668411     0.781980387650     1.007825032070
           H         -1.930672233369     1.758118668411     0.161980387650     1.007825032070
           H         -1.632672233369     0.394118668411    -0.888019612350     1.007825032070
           C         -1.533672233369     0.765118668411     0.109980387650    12.000000000000
           H          0.493327766631     1.421118668411    -0.168019612350     1.007825032070
           H          0.055327766631     1.158118668411     1.502980387650     1.007825032070
           C         -0.044672233369     0.786118668411     0.504980387650    12.000000000000
           H          1.313327766631    -0.748881331589     1.147980387650     1.007825032070
           H         -0.247672233369    -1.347881331589     0.641980387650     1.007825032070
           C          0.527327766631    -0.641881331589     0.429980387650    12.000000000000
           H          1.480327766631    -1.890881331589    -1.034019612350     1.007825032070
           H          1.858327766631    -0.193881331589    -1.195019612350     1.007825032070
           H          0.297327766631    -0.792881331589    -1.701019612350     1.007825032070
           C          1.083327766631    -0.899881331589    -0.982019612350    12.000000000000

  Nuclear repulsion =  133.477523262290134
  Reference energy  = -157.290442537946063

  ==> Basis Set <==

  Basis Set: 6-31G(D)
    Number of shells: 44
    Number of basis function: 80
    Number of Cartesian functions: 80
    Spherical Harmonics?: false
    Max angular momentum: 2

  ==> CGRSolver (by Rob Parrish) <==

   Number of roots    =         1
   Preconditioning    =    JACOBI
   Convergence cutoff =     1E-06
   Maximum iterations =       100

  ==> CPHFRHamiltonian (by Rob Parrish) <== 

  ==> DFJK: Density-Fitted J/K Matrices <==

    J tasked:                  Yes
    K tasked:                  Yes
    wK tasked:                  No
    OpenMP threads:              1
    Integrals threads:           1
    Memory (MB):               715
    Algorithm:                Core
    Integral Cache:           NONE
    Schwarz Cutoff:          1E-12
    Fitting Condition:       1E-12

   => Auxiliary Basis Set <=

  Basis Set: 
    Number of shells: 186
    Number of basis function: 574
    Number of Cartesian functions: 574
    Spherical Harmonics?: false
    Max angular momentum: 3

  ==> CPHF Iterations <==

  => Iterations <=

             Iter  Converged  Remaining    Residual
  CGR           1          0          1   7.411E-02
  CGR           2          0          1   8.683E-03
  CGR           3          0          1   2.454E-03
  CGR           4          0          1   4.354E-04
  CGR           5          0          1   8.077E-05
  CGR           6          0          1   1.645E-05
  CGR           7          0          1   2.605E-06
  CGR           8          1          0   5.213E-07

    CGRSolver converged.

  ==> DFCorrGrad: Density-Fitted Correlated Gradients <==

    OpenMP threads:              1
    Integrals threads:           1
    Memory (MB):               715
    Schwarz Cutoff:          0E+00
    Fitting Condition:       1E-12

   => Auxiliary Basis Set <=

  Basis Set: 
    Number of shells: 186
    Number of basis function: 510
    Number of Cartesian functions: 574
    Spherical Harmonics?: true
    Max angular momentum: 3

	-----------------------------------------------------------
	 ==================> DF-MP2 Energies <==================== 
	-----------------------------------------------------------
	 Reference Energy          =    -157.2904425379460633 [Eh]
	 Singles Energy            =      -0.0000000000000000 [Eh]
	 Same-Spin Energy          =      -0.1245611502887237 [Eh]
	 Opposite-Spin Energy      =      -0.4204383693740852 [Eh]
	 Correlation Energy        =      -0.5449995196628089 [Eh]
	 Total Energy              =    -157.8354420576088728 [Eh]
	-----------------------------------------------------------
	 ================> DF-SCS-MP2 Energies <================== 
	-----------------------------------------------------------
	 SCS Same-Spin Scale       =       0.3333333333333333 [-]
	 SCS Opposite-Spin Scale   =       1.2000000000000000 [-]
	 SCS Same-Spin Energy      =      -0.0415203834295746 [Eh]
	 SCS Opposite-Spin Energy  =      -0.5045260432489022 [Eh]
	 SCS Correlation Energy    =      -0.5460464266784767 [Eh]
	 SCS Total Energy          =    -157.8364889646245501 [Eh]
	-----------------------------------------------------------


  -Total Gradient:
     Atom            X                  Y                   Z
    ------   -----------------  -----------------  -----------------
       1        0.010383120406     0.008885539345    -0.009212982116
       2        0.010226506579    -0.013652711251     0.001053989827
       3        0.004865311556     0.005560187931     0.015482231277
       4       -0.027509144217    -0.007708184706    -0.007398721643
       5       -0.010074478205    -0.012381653087     0.007215857993
       6       -0.001487217111    -0.009600739669    -0.015201500215
       7        0.022128464786     0.028979816898     0.003662136996
       8       -0.012341804606     0.005404559317    -0.011844808940
       9        0.010595369320     0.012751261317    -0.007186599498
      10       -0.006881016836    -0.024720938658     0.026108247699
      11       -0.007333196160     0.016003349100     0.005537964132
      12       -0.012358306503    -0.009477760683     0.005278429898
      13        0.009560750994    -0.000908687770     0.013068875823
      14        0.010225639997     0.000865961916    -0.026563121233


			-----------------------------------------
			 OPTKING 2.0: for geometry optimizations 
			  - R.A. King,  Bethel University        
			-----------------------------------------

	Internal coordinates to be generated automatically.
	Detected frag 1 with atoms:  1 2 3 4 5 6 7 8 9 10 11 12 13 14
	---Fragment 1 Bond Connectivity---
	 1 : 4
	 2 : 4
	 3 : 4
	 4 : 1 2 3 7
	 5 : 7
	 6 : 7
	 7 : 4 5 6 10
	 8 : 10
	 9 : 10
	 10 : 7 8 9 14
	 11 : 14
	 12 : 14
	 13 : 14
	 14 : 10 11 12 13

	Assuming in current code that numbering for constraints corresponds to unified fragment.
	Fixed dihedral atom list: 
	     4     7    10    14
	---Fragment 1 Geometry and Gradient---
	 H          -3.9148931582        0.2458886481        1.4777287739
	 H          -3.6484417734        3.3223627924        0.3060985716
	 H          -3.0853033858        0.7447763472       -1.6781138680
	 C          -2.8982204987        1.4458647425        0.2078328126
	 H           0.9322543727        2.6855250856       -0.3175110523
	 H           0.1045543265        2.1885271127        2.8402213158
	 C          -0.0844182868        1.4855489912        0.9542746351
	 H           2.4818298016       -1.4151806227        2.1693685386
	 H          -0.4680326918       -2.5471265763        1.2131671153
	 C           0.9965050612       -1.2129799265        0.8125451752
	 H           2.7974140658       -3.5732478665       -1.9540138834
	 H           3.5117305441       -0.3663826190       -2.2582597908
	 H           0.5618680506       -1.4983285726       -3.2144612140
	 C           2.0471927911       -1.7005292688       -1.8557481245
	             0.0103831204        0.0088855393       -0.0092129821
	             0.0102265066       -0.0136527113        0.0010539898
	             0.0048653116        0.0055601879        0.0154822313
	            -0.0275091442       -0.0077081847       -0.0073987216
	            -0.0100744782       -0.0123816531        0.0072158580
	            -0.0014872171       -0.0096007397       -0.0152015002
	             0.0221284648        0.0289798169        0.0036621370
	            -0.0123418046        0.0054045593       -0.0118448089
	             0.0105953693        0.0127512613       -0.0071865995
	            -0.0068810168       -0.0247209387        0.0261082477
	            -0.0073331962        0.0160033491        0.0055379641
	            -0.0123583065       -0.0094777607        0.0052784299
	             0.0095607510       -0.0009086878        0.0130688758
	             0.0102256400        0.0008659619       -0.0265631212

	Previous optimization step data not found.  Starting new optimization.

	---Fragment 1 Intrafragment Coordinates---
	 - Coordinate -           - BOHR/RAD -       - ANG/DEG -
	 R(1,4)           =         2.021436	       1.069698
	 R(2,4)           =         2.023298	       1.070683
	 R(3,4)           =         2.020723	       1.069320
	 R(4,7)           =         2.911397	       1.540645
	 R(5,7)           =         2.022623	       1.070326
	 R(6,7)           =         2.021555	       1.069761
	 R(7,10)          =         2.910419	       1.540128
	 R(8,10)          =         2.021891	       1.069939
	 R(9,10)          =         2.021216	       1.069582
	 R(10,14)         =         2.908855	       1.539300
	 R(11,14)         =         2.019793	       1.068828
	 R(12,14)         =         2.021592	       1.069780
	 R(13,14)         =         2.023160	       1.070610
	 B(1,4,2)         =         1.910870	     109.484805
	 B(1,4,3)         =         1.911121	     109.499161
	 B(1,4,7)         =         1.910399	     109.457783
	 B(2,4,3)         =         1.910042	     109.437340
	 B(2,4,7)         =         1.910564	     109.467262
	 B(3,4,7)         =         1.910803	     109.480971
	 B(4,7,5)         =         1.909937	     109.431343
	 B(4,7,6)         =         1.911630	     109.528316
	 B(4,7,10)        =         1.911154	     109.501062
	 B(5,7,6)         =         1.910605	     109.469614
	 B(5,7,10)        =         1.910047	     109.437654
	 B(6,7,10)        =         1.910425	     109.459295
	 B(7,10,8)        =         1.910155	     109.443831
	 B(7,10,9)        =         1.910550	     109.466446
	 B(7,10,14)       =         1.911580	     109.525487
	 B(8,10,9)        =         1.910568	     109.467487
	 B(8,10,14)       =         1.910767	     109.478913
	 B(9,10,14)       =         1.910178	     109.445152
	 B(10,14,11)      =         1.911548	     109.523615
	 B(10,14,12)      =         1.911022	     109.493504
	 B(10,14,13)      =         1.911455	     109.518282
	 B(11,14,12)      =         1.910409	     109.458349
	 B(11,14,13)      =         1.909946	     109.431830
	 B(12,14,13)      =         1.909419	     109.401644
	 D(1,4,7,5)       =         3.140997	     179.965873
	 D(1,4,7,6)       =        -1.047644	     -60.025575
	 D(1,4,7,10)      =         1.047427	      60.013132
	 D(2,4,7,5)       =        -1.047689	     -60.028143
	 D(2,4,7,6)       =         1.046856	      59.980409
	 D(2,4,7,10)      =        -3.141259	    -179.980883
	 D(3,4,7,5)       =         1.046044	      59.933911
	 D(3,4,7,6)       =         3.140588	     179.942463
	 D(3,4,7,10)      =        -1.047526	     -60.018830
	 D(4,7,10,8)      =        -2.617481	    -149.970607
	 D(4,7,10,9)      =        -0.523509	     -29.994864
	 D(4,7,10,14)     =         1.570858	      90.003520
	 D(5,7,10,8)      =         1.572202	      90.080517
	 D(5,7,10,9)      =        -2.617012	    -149.943739
	 D(5,7,10,14)     =        -0.522645	     -29.945356
	 D(6,7,10,8)      =        -0.521673	     -29.889681
	 D(6,7,10,9)      =         1.572298	      90.086062
	 D(6,7,10,14)     =        -2.616520	    -149.915555
	 D(7,10,14,11)    =         3.141539	     179.996927
	 D(7,10,14,12)    =         1.046620	      59.966908
	 D(7,10,14,13)    =        -1.047029	     -59.990345
	 D(8,10,14,11)    =         1.047067	      59.992512
	 D(8,10,14,12)    =        -1.047852	     -60.037507
	 D(8,10,14,13)    =        -3.141501	    -179.994760
	 D(9,10,14,11)    =        -1.047052	     -59.991664
	 D(9,10,14,12)    =         3.141214	     179.978317
	 D(9,10,14,13)    =         1.047565	      60.021064

	Current energy   :      -157.8354420576

	Generating empirical Hessian (Schlegel '84) for each fragment.
	Adding user-defined constraint: Fragment 1; Coordinate 49:
		Value =     1.570858; Fixed value    =     1.570796
		Force =    -0.000031; Force constant =     0.500000
	Removing off-diagonal coupling between coordinate 49 and others.
	Taking RFO optimization step.
	Going to follow RFO solution 1.
	Using RFO vector 1.

	Determining step-restricting scale parameter for RS-RFO.
	Maximum step size allowed    0.10000

	 Iter      |step|        alpha        rfo_root  
	------------------------------------------------
	    0     0.23958       1.00000           1
	    1     0.18260       4.73488           1
	    2     0.13899      15.15256           1
	    3     0.11306      31.17081           1
	    4     0.10219      42.87713           1
	    5     0.10008      45.68708           1
	    6     0.10000      45.79568           1
	------------------------------------------------
	Norm of target step-size    0.10000
	Projected energy change by RFO approximation:        -0.0057649375

	Back-transformation to cartesian coordinates...
	Successfully converged to displaced geometry.

	--- Internal Coordinate Step in ANG or DEG, aJ/ANG or AJ/DEG ---
	 ---------------------------------------------------------------------------
	   Coordinate                Previous        Force       Change         New 
	   ----------                --------       ------       ------       ------
	    1 R(1,4)          =      1.069698     0.134162     0.013599     1.083296
	    2 R(2,4)          =      1.070683     0.135140     0.013725     1.084408
	    3 R(3,4)          =      1.069320     0.138651     0.014043     1.083363
	    4 R(4,7)          =      1.540645    -0.017136    -0.002017     1.538628
	    5 R(5,7)          =      1.070326     0.139621     0.014170     1.084496
	    6 R(6,7)          =      1.069761     0.145490     0.014749     1.084509
	    7 R(7,10)         =      1.540128     0.027249     0.003205     1.543333
	    8 R(8,10)         =      1.069939     0.144636     0.014667     1.084606
	    9 R(9,10)         =      1.069582     0.144330     0.014626     1.084207
	   10 R(10,14)        =      1.539300    -0.011570    -0.001359     1.537941
	   11 R(11,14)        =      1.068828     0.146908     0.014865     1.083693
	   12 R(12,14)        =      1.069780     0.133950     0.013579     1.083360
	   13 R(13,14)        =      1.070610     0.130886     0.013291     1.083901
	   14 B(1,4,2)        =    109.484805    -0.000278    -0.492628   108.992176
	   15 B(1,4,3)        =    109.499161    -0.000217    -0.393456   109.105706
	   16 B(1,4,7)        =    109.457783     0.000139     0.237312   109.695095
	   17 B(2,4,3)        =    109.437340    -0.000322    -0.576505   108.860836
	   18 B(2,4,7)        =    109.467262     0.000435     0.786882   110.254144
	   19 B(3,4,7)        =    109.480971     0.000242     0.425898   109.906869
	   20 B(4,7,5)        =    109.431343    -0.000169    -0.233959   109.197384
	   21 B(4,7,6)        =    109.528316    -0.000255    -0.425582   109.102735
	   22 B(4,7,10)       =    109.501062     0.000730     1.204453   110.705516
	   23 B(5,7,6)        =    109.469614    -0.000035    -0.241010   109.228604
	   24 B(5,7,10)       =    109.437654    -0.000213    -0.311579   109.126075
	   25 B(6,7,10)       =    109.459295    -0.000059    -0.000260   109.459035
	   26 B(7,10,8)       =    109.443831    -0.000060    -0.002831   109.441000
	   27 B(7,10,9)       =    109.466446    -0.000215    -0.318318   109.148128
	   28 B(7,10,14)      =    109.525487     0.000729     1.202374   110.727862
	   29 B(8,10,9)       =    109.467487    -0.000036    -0.243112   109.224375
	   30 B(8,10,14)      =    109.478913    -0.000249    -0.413902   109.065011
	   31 B(9,10,14)      =    109.445152    -0.000168    -0.232401   109.212751
	   32 B(10,14,11)     =    109.523615     0.000429     0.775931   110.299547
	   33 B(10,14,12)     =    109.493504     0.000133     0.226789   109.720293
	   34 B(10,14,13)     =    109.518282     0.000238     0.417309   109.935590
	   35 B(11,14,12)     =    109.458349    -0.000273    -0.482314   108.976036
	   36 B(11,14,13)     =    109.431830    -0.000320    -0.573671   108.858159
	   37 B(12,14,13)     =    109.401644    -0.000209    -0.378519   109.023124
	   38 D(1,4,7,5)      =    179.965873     0.000030     0.311181   180.277054
	   39 D(1,4,7,6)      =    -60.025575    -0.000040    -0.380335   -60.405911
	   40 D(1,4,7,10)     =     60.013132     0.000011     0.098136    60.111268
	   41 D(2,4,7,5)      =    -60.028143     0.000032     0.340176   -59.687967
	   42 D(2,4,7,6)      =     59.980409    -0.000037    -0.351340    59.629069
	   43 D(2,4,7,10)     =   -179.980883     0.000013     0.127131  -179.853752
	   44 D(3,4,7,5)      =     59.933911     0.000037     0.384856    60.318766
	   45 D(3,4,7,6)      =    179.942463    -0.000032    -0.306661   179.635802
	   46 D(3,4,7,10)     =    -60.018830     0.000018     0.171811   -59.847019
	   47 D(4,7,10,8)     =   -149.970607     0.000013     0.123334  -149.847273
	   48 D(4,7,10,9)     =    -29.994864    -0.000036    -0.368285   -30.363148
	   49 D(4,7,10,14)    =     90.003520    -0.000011    -0.111265    89.892254
	   50 D(5,7,10,8)     =     90.080517    -0.000012    -0.136172    89.944345
	   51 D(5,7,10,9)     =   -149.943739    -0.000061    -0.627791  -150.571530
	   52 D(5,7,10,14)    =    -29.945356    -0.000036    -0.370772   -30.316128
	   53 D(6,7,10,8)     =    -29.889681     0.000036     0.347235   -29.542447
	   54 D(6,7,10,9)     =     90.086062    -0.000013    -0.144384    89.941678
	   55 D(6,7,10,14)    =   -149.915555     0.000012     0.112635  -149.802919
	   56 D(7,10,14,11)   =    179.996927     0.000014     0.132724   180.129651
	   57 D(7,10,14,12)   =     59.966908     0.000011     0.103263    60.070171
	   58 D(7,10,14,13)   =    -59.990345     0.000018     0.170385   -59.819960
	   59 D(8,10,14,11)   =     59.992512    -0.000037    -0.347416    59.645096
	   60 D(8,10,14,12)   =    -60.037507    -0.000039    -0.376877   -60.414384
	   61 D(8,10,14,13)   =   -179.994760    -0.000033    -0.309755  -180.304515
	   62 D(9,10,14,11)   =    -59.991664     0.000032     0.338150   -59.653514
	   63 D(9,10,14,12)   =    179.978317     0.000029     0.308688   180.287006
	   64 D(9,10,14,13)   =     60.021064     0.000036     0.375810    60.396875
	 ---------------------------------------------------------------------------
	 Forces used to impose fixed constraints are not included.
	  Forces zeroed: 49 

  ==> Convergence Check <==

  Measures of convergence in internal coordinates in au.
  Criteria marked as inactive (o), active & met (*), and active & unmet ( ).
  --------------------------------------------------------------------------------------------- ~
   Step     Total Energy     Delta E     MAX Force     RMS Force      MAX Disp      RMS Disp    ~
  --------------------------------------------------------------------------------------------- ~
    Convergence Criteria    1.00e-06 *    3.00e-04 *             o    1.20e-03 *             o  ~
  --------------------------------------------------------------------------------------------- ~
      1    -157.83544206   -1.58e+02      1.78e-02      7.25e-03 o    2.81e-02      1.25e-02 o  ~
  ---------------------------------------------------------------------------------------------

	Writing optimization data to binary file.
	Structure for next step:
	Cartesian Geometry (in Angstrom)
	    H    -2.0955192367   0.0901916764   0.7992314344
	    H    -1.9817264050   1.7460152501   0.1997492504
	    H    -1.6698083134   0.3927607564  -0.8867987388
	    C    -1.5576649999   0.7504258469   0.1296536939
	    H     0.4614648128   1.4442698054  -0.1577053033
	    H     0.0295200532   1.1433067114   1.5304403616
	    C    -0.0680912797   0.7776588547   0.5141066405
	    H     1.3481385986  -0.7310193151   1.1391687163
	    H    -0.2185091847  -1.3716535165   0.6278204499
	    C     0.5471038251  -0.6342409945   0.4143600886
	    H     1.5394027173  -1.8774351637  -1.0573339204
	    H     1.8813176736  -0.1540580309  -1.2143316071
	    H     0.3205297402  -0.7957375882  -1.7302707922
	    C     1.1114307316  -0.8838229347  -0.9943648467
			--------------------------
			 OPTKING Finished Execution 
			--------------------------

    Structure for next step:
    Molecular point group: c1
    Full point group: C1

    Geometry (in Angstrom), charge = 0, multiplicity = 1:

    H           -2.095607663207     0.090088319053     0.799073582601
    H           -1.981814831562     1.745911892774     0.199591398619
    H           -1.669896739963     0.392657399034    -0.886956590605
    C           -1.557753426493     0.750322489544     0.129495842137
    H            0.461376386207     1.444166448010    -0.157863155141
    H            0.029431626625     1.143203354069     1.530282509750
    C           -0.068179706277     0.777555497375     0.513948788720
    H            1.348050172065    -0.731122672475     1.139010864462
    H           -0.218597611278    -1.371756873832     0.627662598071
    C            0.547015398514    -0.634344351816     0.414202236789
    H            1.539314290766    -1.877538521055    -1.057491772259
    H            1.881229247066    -0.154161388213    -1.214489458878
    H            0.320441313633    -0.795840945594    -1.730428643982
    C            1.111342305055    -0.883926292017    -0.994522698538

gradient() will perform analytic gradient computation.
    SCF Algorithm Type (re)set to DF.

*** tstart() called on lski1497
*** at Mon Feb 20 17:36:58 2017


         ---------------------------------------------------------
                                   SCF
            by Justin Turney, Rob Parrish, and Andy Simmonett
                              RHF Reference
                        1 Threads,   1000 MiB Core
         ---------------------------------------------------------

  ==> Geometry <==

    Molecular point group: c1
    Full point group: C1

    Geometry (in Angstrom), charge = 0, multiplicity = 1:

       Center              X                  Y                   Z               Mass       
    ------------   -----------------  -----------------  -----------------  -----------------
           H         -2.095607663207     0.090088319053     0.799073582601     1.007825032070
           H         -1.981814831562     1.745911892774     0.199591398619     1.007825032070
           H         -1.669896739963     0.392657399034    -0.886956590605     1.007825032070
           C         -1.557753426493     0.750322489544     0.129495842137    12.000000000000
           H          0.461376386207     1.444166448010    -0.157863155141     1.007825032070
           H          0.029431626625     1.143203354069     1.530282509750     1.007825032070
           C         -0.068179706277     0.777555497375     0.513948788720    12.000000000000
           H          1.348050172065    -0.731122672475     1.139010864462     1.007825032070
           H         -0.218597611278    -1.371756873832     0.627662598071     1.007825032070
           C          0.547015398514    -0.634344351816     0.414202236789    12.000000000000
           H          1.539314290766    -1.877538521055    -1.057491772259     1.007825032070
           H          1.881229247066    -0.154161388213    -1.214489458878     1.007825032070
           H          0.320441313633    -0.795840945594    -1.730428643982     1.007825032070
           C          1.111342305055    -0.883926292017    -0.994522698538    12.000000000000

  Running in c1 symmetry.

  Rotational constants: A =      0.48667  B =      0.14701  C =      0.13530 [cm^-1]
  Rotational constants: A =  14589.96013  B =   4407.11972  C =   4056.32935 [MHz]
  Nuclear repulsion =  132.519477603928692

  Charge       = 0
  Multiplicity = 1
  Electrons    = 34
  Nalpha       = 17
  Nbeta        = 17

  ==> Algorithm <==

  SCF Algorithm Type is DF.
  DIIS enabled.
  MOM disabled.
  Fractional occupation disabled.
  Guess Type is READ.
  Energy threshold   = 1.00e-10
  Density threshold  = 1.00e-10
  Integral threshold = 0.00e+00

  ==> Primary Basis <==

  Basis Set: 6-31G(D)
    Number of shells: 44
    Number of basis function: 80
    Number of Cartesian functions: 80
    Spherical Harmonics?: false
    Max angular momentum: 2

  ==> Pre-Iterations <==

   -------------------------------------------------------
    Irrep   Nso     Nmo     Nalpha   Nbeta   Ndocc  Nsocc
   -------------------------------------------------------
     A         80      80       0       0       0       0
   -------------------------------------------------------
    Total      80      80      17      17      17       0
   -------------------------------------------------------

  ==> Integral Setup <==

  ==> DFJK: Density-Fitted J/K Matrices <==

    J tasked:                  Yes
    K tasked:                  Yes
    wK tasked:                  No
    OpenMP threads:              1
    Integrals threads:           1
    Memory (MB):               715
    Algorithm:                Core
    Integral Cache:           NONE
    Schwarz Cutoff:          1E-12
    Fitting Condition:       1E-12

   => Auxiliary Basis Set <=

  Basis Set: 
    Number of shells: 186
    Number of basis function: 574
    Number of Cartesian functions: 574
    Spherical Harmonics?: false
    Max angular momentum: 3

  Minimum eigenvalue in the overlap matrix is 5.3606299561E-03.
  Using Symmetric Orthogonalization.
  SCF Guess was Projection but file not found.
  Switching over to SAD guess.

  SCF Guess: Superposition of Atomic Densities via on-the-fly atomic UHF.

  ==> Iterations <==

                           Total Energy        Delta E     RMS |[F,P]|

   @DF-RHF iter   0:  -158.88878494888547   -1.58889e+02   4.66085e-02 
   @DF-RHF iter   1:  -157.20266019176785    1.68612e+00   3.97043e-03 
   @DF-RHF iter   2:  -157.28495061949405   -8.22904e-02   1.10471e-03 DIIS
   @DF-RHF iter   3:  -157.29292779522996   -7.97718e-03   2.69963e-04 DIIS
   @DF-RHF iter   4:  -157.29333622137852   -4.08426e-04   8.07688e-05 DIIS
   @DF-RHF iter   5:  -157.29337540028786   -3.91789e-05   1.29910e-05 DIIS
   @DF-RHF iter   6:  -157.29337670504270   -1.30475e-06   1.64714e-06 DIIS
   @DF-RHF iter   7:  -157.29337672339733   -1.83546e-08   5.04006e-07 DIIS
   @DF-RHF iter   8:  -157.29337672450094   -1.10361e-09   1.12607e-07 DIIS
   @DF-RHF iter   9:  -157.29337672458911   -8.81641e-11   2.48450e-08 DIIS
   @DF-RHF iter  10:  -157.29337672459445   -5.34328e-12   4.82896e-09 DIIS
   @DF-RHF iter  11:  -157.29337672459445    0.00000e+00   9.44906e-10 DIIS
   @DF-RHF iter  12:  -157.29337672459457   -1.13687e-13   3.16345e-10 DIIS
   @DF-RHF iter  13:  -157.29337672459485   -2.84217e-13   6.18862e-11 DIIS

  ==> Post-Iterations <==

    Orbital Energies (a.u.)
    -----------------------

    Doubly Occupied:                                                      

       1A    -11.212353     2A    -11.211786     3A    -11.206690  
       4A    -11.206623     5A     -1.069145     6A     -0.975694  
       7A     -0.866049     8A     -0.783594     9A     -0.627276  
      10A     -0.617115    11A     -0.577852    12A     -0.540858  
      13A     -0.521674    14A     -0.504778    15A     -0.469499  
      16A     -0.456943    17A     -0.449436  

    Virtual:                                                              

      18A      0.231304    19A      0.276916    20A      0.278266  
      21A      0.292788    22A      0.311971    23A      0.317709  
      24A      0.342828    25A      0.347543    26A      0.352119  
      27A      0.386101    28A      0.397464    29A      0.444571  
      30A      0.453755    31A      0.713588    32A      0.729170  
      33A      0.729709    34A      0.751874    35A      0.769856  
      36A      0.831458    37A      0.864183    38A      0.929678  
      39A      0.948676    40A      0.997467    41A      1.074652  
      42A      1.116568    43A      1.160361    44A      1.163985  
      45A      1.187291    46A      1.190721    47A      1.196116  
      48A      1.226217    49A      1.246671    50A      1.246866  
      51A      1.251428    52A      1.273244    53A      1.288391  
      54A      1.478932    55A      1.708280    56A      1.728815  
      57A      1.841772    58A      1.869517    59A      2.016780  
      60A      2.066291    61A      2.191161    62A      2.243911  
      63A      2.275464    64A      2.303422    65A      2.375961  
      66A      2.455310    67A      2.462680    68A      2.594449  
      69A      2.634661    70A      2.660225    71A      2.711429  
      72A      2.764147    73A      2.793405    74A      2.901161  
      75A      2.982289    76A      3.074930    77A      4.562318  
      78A      4.669036    79A      4.840241    80A      4.947190  

    Final Occupation by Irrep:
              A 
    DOCC [    17 ]

  Energy converged.

  @DF-RHF Final Energy:  -157.29337672459485

   => Energetics <=

    Nuclear Repulsion Energy =            132.5194776039286921
    One-Electron Energy =                -473.0309783849681935
    Two-Electron Energy =                 183.2181240564448217
    DFT Exchange-Correlation Energy =       0.0000000000000000
    Empirical Dispersion Energy =           0.0000000000000000
    PCM Polarization Energy =               0.0000000000000000
    EFP Energy =                            0.0000000000000000
    Total Energy =                       -157.2933767245946797


  Saving occupied orbitals to File 180.

*** tstop() called on lski1497 at Mon Feb 20 17:37:06 2017
Module time:
	user time   =       4.82 seconds =       0.08 minutes
	system time =       0.14 seconds =       0.00 minutes
	total time  =          8 seconds =       0.13 minutes
Total time:
	user time   =      27.56 seconds =       0.46 minutes
	system time =       1.05 seconds =       0.02 minutes
	total time  =         40 seconds =       0.67 minutes


Properties will be evaluated at   0.000000,   0.000000,   0.000000 Bohr

Properties computed using the SCF density matrix

  Nuclear Dipole Moment: (a.u.)
     X:    -0.3619      Y:    -0.1072      Z:    -0.7046

  Electronic Dipole Moment: (a.u.)
     X:     0.3779      Y:     0.1117      Z:     0.7351

  Dipole Moment: (a.u.)
     X:     0.0159      Y:     0.0044      Z:     0.0305     Total:     0.0347

  Dipole Moment: (Debye)
     X:     0.0405      Y:     0.0113      Z:     0.0776     Total:     0.0882


  //>>>>>>>>>>>>>>>>>>>>>>>>>>>>>>>>>>>//
  //               DFMP2               //
  //<<<<<<<<<<<<<<<<<<<<<<<<<<<<<<<<<<<//


*** tstart() called on lski1497
*** at Mon Feb 20 17:37:06 2017


*** tstop() called on lski1497 at Mon Feb 20 17:37:06 2017
Module time:
	user time   =       0.52 seconds =       0.01 minutes
	system time =       0.01 seconds =       0.00 minutes
	total time  =          0 seconds =       0.00 minutes
Total time:
	user time   =      28.10 seconds =       0.47 minutes
	system time =       1.06 seconds =       0.02 minutes
	total time  =         40 seconds =       0.67 minutes
	 --------------------------------------------------------
	                          DF-MP2                         
	      2nd-Order Density-Fitted Moller-Plesset Theory     
	              RMP2 Wavefunction,   1 Threads             
	                                                         
	        Rob Parrish, Justin Turney, Andy Simmonett,      
	           Ed Hohenstein, and C. David Sherrill          
	 --------------------------------------------------------

   => Auxiliary Basis Set <=

  Basis Set: 
    Number of shells: 132
    Number of basis function: 364
    Number of Cartesian functions: 414
    Spherical Harmonics?: true
    Max angular momentum: 3

	 --------------------------------------------------------
	                 NBF =    80, NAUX =   364
	 --------------------------------------------------------
	   CLASS    FOCC     OCC    AOCC    AVIR     VIR    FVIR
	   PAIRS       0      17      17      63      63       0
	 --------------------------------------------------------

DGAS Warning! /src/lib/libfock/apps.cc:80 is not currently checking restricted

         ------------------------------------------------------------
                                     CPHF                           
                                  Rob Parrish                       
         ------------------------------------------------------------

  ==> Geometry <==

    Molecular point group: c1
    Full point group: C1

    Geometry (in Angstrom), charge = 0, multiplicity = 1:

       Center              X                  Y                   Z               Mass       
    ------------   -----------------  -----------------  -----------------  -----------------
           H         -2.095607663207     0.090088319053     0.799073582601     1.007825032070
           H         -1.981814831562     1.745911892774     0.199591398619     1.007825032070
           H         -1.669896739963     0.392657399034    -0.886956590605     1.007825032070
           C         -1.557753426493     0.750322489544     0.129495842137    12.000000000000
           H          0.461376386207     1.444166448010    -0.157863155141     1.007825032070
           H          0.029431626625     1.143203354069     1.530282509750     1.007825032070
           C         -0.068179706277     0.777555497375     0.513948788720    12.000000000000
           H          1.348050172065    -0.731122672475     1.139010864462     1.007825032070
           H         -0.218597611278    -1.371756873832     0.627662598071     1.007825032070
           C          0.547015398514    -0.634344351816     0.414202236789    12.000000000000
           H          1.539314290766    -1.877538521055    -1.057491772259     1.007825032070
           H          1.881229247066    -0.154161388213    -1.214489458878     1.007825032070
           H          0.320441313633    -0.795840945594    -1.730428643982     1.007825032070
           C          1.111342305055    -0.883926292017    -0.994522698538    12.000000000000

  Nuclear repulsion =  132.519477603928692
  Reference energy  = -157.293376724594850

  ==> Basis Set <==

  Basis Set: 6-31G(D)
    Number of shells: 44
    Number of basis function: 80
    Number of Cartesian functions: 80
    Spherical Harmonics?: false
    Max angular momentum: 2

  ==> CGRSolver (by Rob Parrish) <==

   Number of roots    =         1
   Preconditioning    =    JACOBI
   Convergence cutoff =     1E-06
   Maximum iterations =       100

  ==> CPHFRHamiltonian (by Rob Parrish) <== 

  ==> DFJK: Density-Fitted J/K Matrices <==

    J tasked:                  Yes
    K tasked:                  Yes
    wK tasked:                  No
    OpenMP threads:              1
    Integrals threads:           1
    Memory (MB):               715
    Algorithm:                Core
    Integral Cache:           NONE
    Schwarz Cutoff:          1E-12
    Fitting Condition:       1E-12

   => Auxiliary Basis Set <=

  Basis Set: 
    Number of shells: 186
    Number of basis function: 574
    Number of Cartesian functions: 574
    Spherical Harmonics?: false
    Max angular momentum: 3

  ==> CPHF Iterations <==

  => Iterations <=

             Iter  Converged  Remaining    Residual
  CGR           1          0          1   7.450E-02
  CGR           2          0          1   8.812E-03
  CGR           3          0          1   2.491E-03
  CGR           4          0          1   4.387E-04
  CGR           5          0          1   8.214E-05
  CGR           6          0          1   1.679E-05
  CGR           7          0          1   2.619E-06
  CGR           8          1          0   5.237E-07

    CGRSolver converged.

  ==> DFCorrGrad: Density-Fitted Correlated Gradients <==

    OpenMP threads:              1
    Integrals threads:           1
    Memory (MB):               715
    Schwarz Cutoff:          0E+00
    Fitting Condition:       1E-12

   => Auxiliary Basis Set <=

  Basis Set: 
    Number of shells: 186
    Number of basis function: 510
    Number of Cartesian functions: 574
    Spherical Harmonics?: true
    Max angular momentum: 3

	-----------------------------------------------------------
	 ==================> DF-MP2 Energies <==================== 
	-----------------------------------------------------------
	 Reference Energy          =    -157.2933767245948502 [Eh]
	 Singles Energy            =      -0.0000000000000000 [Eh]
	 Same-Spin Energy          =      -0.1244432251186754 [Eh]
	 Opposite-Spin Energy      =      -0.4217199830924014 [Eh]
	 Correlation Energy        =      -0.5461632082110768 [Eh]
	 Total Energy              =    -157.8395399328059341 [Eh]
	-----------------------------------------------------------
	 ================> DF-SCS-MP2 Energies <================== 
	-----------------------------------------------------------
	 SCS Same-Spin Scale       =       0.3333333333333333 [-]
	 SCS Opposite-Spin Scale   =       1.2000000000000000 [-]
	 SCS Same-Spin Energy      =      -0.0414810750395585 [Eh]
	 SCS Opposite-Spin Energy  =      -0.5060639797108817 [Eh]
	 SCS Correlation Energy    =      -0.5475450547504401 [Eh]
	 SCS Total Energy          =    -157.8409217793452797 [Eh]
	-----------------------------------------------------------


  -Total Gradient:
     Atom            X                  Y                   Z
    ------   -----------------  -----------------  -----------------
       1        0.005023464326     0.003466478162    -0.003122834986
       2        0.004958818851    -0.004745814798     0.000786706672
       3        0.003266828454     0.002265114030     0.006041308403
       4       -0.016389140993    -0.004802567422    -0.003568751154
       5       -0.005009168421    -0.006696948534     0.000657088095
       6       -0.001168979252    -0.005298722055    -0.005289391013
       7        0.013353934627     0.018540298383     0.002035285887
       8       -0.004130467423     0.003698770653    -0.005124504711
       9        0.002802704004     0.006103846199    -0.005284629200
      10       -0.004134317761    -0.015867487231     0.015895845516
      11       -0.003036202030     0.005845750662     0.003251571512
      12       -0.005033289756    -0.003453288977     0.003041154531
      13        0.002986028098    -0.000246566866     0.006199010214
      14        0.006509787276     0.001191137794    -0.015517859766


			-----------------------------------------
			 OPTKING 2.0: for geometry optimizations 
			  - R.A. King,  Bethel University        
			-----------------------------------------

	Previous internal coordinate definitions found.
	---Fragment 1 Geometry and Gradient---
	 H          -3.9601245654        0.1702422508        1.5100302311
	 H          -3.7450872777        3.2992953295        0.3771730819
	 H          -3.1556475087        0.7420149482       -1.6761050480
	 C          -2.9437273586        1.4179040166        0.2447116770
	 H           0.8718750141        2.7290790770       -0.2983181297
	 H           0.0556177140        2.1603412534        2.8918148494
	 C          -0.1288409727        1.4693669432        0.9712224570
	 H           2.5474456386       -1.3816216205        2.1524185962
	 H          -0.4130896186       -2.5922448124        1.1861104142
	 C           1.0337092937       -1.1987370989        0.7827287912
	 H           2.9088824420       -3.5480336087       -1.9983698373
	 H           3.5550080701       -0.2913228040       -2.2950524686
	 H           0.6055463244       -1.5039214325       -3.2700362296
	 C           2.1001325964       -1.6703786136       -1.8793755332
	             0.0050234643        0.0034664782       -0.0031228350
	             0.0049588189       -0.0047458148        0.0007867067
	             0.0032668285        0.0022651140        0.0060413084
	            -0.0163891410       -0.0048025674       -0.0035687512
	            -0.0050091684       -0.0066969485        0.0006570881
	            -0.0011689793       -0.0052987221       -0.0052893910
	             0.0133539346        0.0185402984        0.0020352859
	            -0.0041304674        0.0036987707       -0.0051245047
	             0.0028027040        0.0061038462       -0.0052846292
	            -0.0041343178       -0.0158674872        0.0158958455
	            -0.0030362020        0.0058457507        0.0032515715
	            -0.0050332898       -0.0034532890        0.0030411545
	             0.0029860281       -0.0002465669        0.0061990102
	             0.0065097873        0.0011911378       -0.0155178598

	---Fragment 1 Intrafragment Coordinates---
	 - Coordinate -           - BOHR/RAD -       - ANG/DEG -
	 R(1,4)           =         2.047133	       1.083296
	 R(2,4)           =         2.049233	       1.084408
	 R(3,4)           =         2.047260	       1.083363
	 R(4,7)           =         2.907585	       1.538628
	 R(5,7)           =         2.049400	       1.084496
	 R(6,7)           =         2.049426	       1.084509
	 R(7,10)          =         2.916476	       1.543333
	 R(8,10)          =         2.049608	       1.084606
	 R(9,10)          =         2.048855	       1.084207
	 R(10,14)         =         2.906287	       1.537941
	 R(11,14)         =         2.047883	       1.083693
	 R(12,14)         =         2.047253	       1.083360
	 R(13,14)         =         2.048276	       1.083901
	 B(1,4,2)         =         1.902272	     108.992176
	 B(1,4,3)         =         1.904254	     109.105706
	 B(1,4,7)         =         1.914541	     109.695095
	 B(2,4,3)         =         1.899980	     108.860836
	 B(2,4,7)         =         1.924298	     110.254144
	 B(3,4,7)         =         1.918237	     109.906869
	 B(4,7,5)         =         1.905854	     109.197384
	 B(4,7,6)         =         1.904202	     109.102735
	 B(4,7,10)        =         1.932176	     110.705516
	 B(5,7,6)         =         1.906399	     109.228604
	 B(5,7,10)        =         1.904609	     109.126075
	 B(6,7,10)        =         1.910421	     109.459035
	 B(7,10,8)        =         1.910106	     109.441000
	 B(7,10,9)        =         1.904994	     109.148128
	 B(7,10,14)       =         1.932566	     110.727862
	 B(8,10,9)        =         1.906325	     109.224375
	 B(8,10,14)       =         1.903544	     109.065011
	 B(9,10,14)       =         1.906122	     109.212751
	 B(10,14,11)      =         1.925090	     110.299547
	 B(10,14,12)      =         1.914980	     109.720293
	 B(10,14,13)      =         1.918738	     109.935590
	 B(11,14,12)      =         1.901991	     108.976036
	 B(11,14,13)      =         1.899933	     108.858159
	 B(12,14,13)      =         1.902812	     109.023124
	 D(1,4,7,5)       =        -3.136757	    -179.722946
	 D(1,4,7,6)       =        -1.054282	     -60.405911
	 D(1,4,7,10)      =         1.049140	      60.111268
	 D(2,4,7,5)       =        -1.041752	     -59.687967
	 D(2,4,7,6)       =         1.040724	      59.629069
	 D(2,4,7,10)      =        -3.139040	    -179.853752
	 D(3,4,7,5)       =         1.052761	      60.318766
	 D(3,4,7,6)       =         3.135236	     179.635802
	 D(3,4,7,10)      =        -1.044528	     -59.847019
	 D(4,7,10,8)      =        -2.615328	    -149.847273
	 D(4,7,10,9)      =        -0.529937	     -30.363148
	 D(4,7,10,14)     =         1.568916	      89.892254
	 D(5,7,10,8)      =         1.569825	      89.944345
	 D(5,7,10,9)      =        -2.627969	    -150.571530
	 D(5,7,10,14)     =        -0.529116	     -30.316128
	 D(6,7,10,8)      =        -0.515613	     -29.542447
	 D(6,7,10,9)      =         1.569778	      89.941678
	 D(6,7,10,14)     =        -2.614554	    -149.802919
	 D(7,10,14,11)    =        -3.139330	    -179.870349
	 D(7,10,14,12)    =         1.048422	      60.070171
	 D(7,10,14,13)    =        -1.044055	     -59.819960
	 D(8,10,14,11)    =         1.041003	      59.645096
	 D(8,10,14,12)    =        -1.054430	     -60.414384
	 D(8,10,14,13)    =         3.136278	     179.695485
	 D(9,10,14,11)    =        -1.041150	     -59.653514
	 D(9,10,14,12)    =        -3.136583	    -179.712994
	 D(9,10,14,13)    =         1.054124	      60.396875

	Current energy   :      -157.8395399328

	Energy change for the previous step:
		Projected    :        -0.0057649375
		Actual       :        -0.0040978752

	Performing BFGS update.
	Previous computed or guess Hessian on step 1.
	Steps to be used in Hessian update: 1
	Adding user-defined constraint: Fragment 1; Coordinate 49:
		Value =     1.568916; Fixed value    =     1.570800
		Force =     0.000989; Force constant =     0.525000
	Removing off-diagonal coupling between coordinate 49 and others.
	Taking RFO optimization step.
	Going to follow RFO solution 1.
	Using RFO vector 1.

	Determining step-restricting scale parameter for RS-RFO.
	Maximum step size allowed    0.10000

	 Iter      |step|        alpha        rfo_root  
	------------------------------------------------
	    0     0.21685       1.00000           1
	    1     0.16767       3.64240           1
	    2     0.13104      10.93224           1
	    3     0.10949      21.16489           1
	    4     0.10132      27.49258           1
	    5     0.10003      28.67615           1
	    6     0.10000      28.70598           1
	------------------------------------------------
	Norm of target step-size    0.10000
	Projected energy change by RFO approximation:        -0.0010578403

	Back-transformation to cartesian coordinates...
	Could not converge backtransformation.
	Using first guess instead.

	--- Internal Coordinate Step in ANG or DEG, aJ/ANG or AJ/DEG ---
	 ---------------------------------------------------------------------------
	   Coordinate                Previous        Force       Change         New 
	   ----------                --------       ------       ------       ------
	    1 R(1,4)          =      1.083296     0.053856     0.008289     1.091585
	    2 R(2,4)          =      1.084408     0.051455     0.007611     1.092018
	    3 R(3,4)          =      1.083363     0.055646     0.008727     1.092090
	    4 R(4,7)          =      1.538628    -0.025323    -0.006604     1.532023
	    5 R(5,7)          =      1.084496     0.057420     0.009003     1.093499
	    6 R(6,7)          =      1.084509     0.056423     0.008403     1.092912
	    7 R(7,10)         =      1.543333    -0.005992    -0.003099     1.540233
	    8 R(8,10)         =      1.084606     0.056065     0.008350     1.092956
	    9 R(9,10)         =      1.084207     0.059081     0.009223     1.093430
	   10 R(10,14)        =      1.537941    -0.022689    -0.006088     1.531853
	   11 R(11,14)        =      1.083693     0.055594     0.008166     1.091859
	   12 R(12,14)        =      1.083360     0.053720     0.008260     1.091619
	   13 R(13,14)        =      1.083901     0.052791     0.008326     1.092227
	   14 B(1,4,2)        =    108.992176    -0.000190    -0.677685   108.314491
	   15 B(1,4,3)        =    109.105706    -0.000182    -0.751741   108.353965
	   16 B(1,4,7)        =    109.695095     0.000132     0.527300   110.222395
	   17 B(2,4,3)        =    108.860836    -0.000217    -0.764379   108.096456
	   18 B(2,4,7)        =    110.254144     0.000250     0.838636   111.092779
	   19 B(3,4,7)        =    109.906869     0.000197     0.763054   110.669923
	   20 B(4,7,5)        =    109.197384    -0.000061     0.049436   109.246820
	   21 B(4,7,6)        =    109.102735    -0.000123    -0.315911   108.786824
	   22 B(4,7,10)       =    110.705516     0.000383     1.228909   111.934424
	   23 B(5,7,6)        =    109.228604    -0.000098    -1.024548   108.204056
	   24 B(5,7,10)       =    109.126075    -0.000096    -0.129570   108.996505
	   25 B(6,7,10)       =    109.459035    -0.000011     0.138846   109.597881
	   26 B(7,10,8)       =    109.441000    -0.000010     0.147291   109.588291
	   27 B(7,10,9)       =    109.148128    -0.000097    -0.137253   109.010875
	   28 B(7,10,14)      =    110.727862     0.000379     1.211039   111.938901
	   29 B(8,10,9)       =    109.224375    -0.000099    -1.026322   108.198053
	   30 B(8,10,14)      =    109.065011    -0.000119    -0.295441   108.769570
	   31 B(9,10,14)      =    109.212751    -0.000060     0.047722   109.260473
	   32 B(10,14,11)     =    110.299547     0.000245     0.810960   111.110507
	   33 B(10,14,12)     =    109.720293     0.000126     0.508229   110.228521
	   34 B(10,14,13)     =    109.935590     0.000193     0.749802   110.685392
	   35 B(11,14,12)     =    108.976036    -0.000186    -0.663961   108.312075
	   36 B(11,14,13)     =    108.858159    -0.000215    -0.758939   108.099220
	   37 B(12,14,13)     =    109.023124    -0.000174    -0.710767   108.312357
	   38 D(1,4,7,5)      =   -179.722946     0.000025     0.769916  -178.953031
	   39 D(1,4,7,6)      =    -60.405911    -0.000028    -0.623771   -61.029681
	   40 D(1,4,7,10)     =     60.111268     0.000006     0.119255    60.230524
	   41 D(2,4,7,5)      =    -59.687967     0.000026     0.801969   -58.885998
	   42 D(2,4,7,6)      =     59.629069    -0.000026    -0.591717    59.037352
	   43 D(2,4,7,10)     =   -179.853752     0.000007     0.151309  -179.702443
	   44 D(3,4,7,5)      =     60.318766     0.000029     0.884596    61.203363
	   45 D(3,4,7,6)      =    179.635802    -0.000023    -0.509090   179.126712
	   46 D(3,4,7,10)     =    -59.847019     0.000011     0.233936   -59.613083
	   47 D(4,7,10,8)     =   -149.847273     0.000012     0.316493  -149.530780
	   48 D(4,7,10,9)     =    -30.363148    -0.000030    -0.924350   -31.287499
	   49 D(4,7,10,14)    =     89.892254    -0.000008    -0.188493    89.703761
	   50 D(5,7,10,8)     =     89.944345    -0.000011    -0.436642    89.507703
	   51 D(5,7,10,9)     =   -150.571530    -0.000054    -1.677485  -152.249015
	   52 D(5,7,10,14)    =    -30.316128    -0.000031    -0.941628   -31.257756
	   53 D(6,7,10,8)     =    -29.542447     0.000031     0.802482   -28.739964
	   54 D(6,7,10,9)     =     89.941678    -0.000012    -0.438361    89.503317
	   55 D(6,7,10,14)    =   -149.802919     0.000011     0.297496  -149.505423
	   56 D(7,10,14,11)   =   -179.870349     0.000008     0.163640  -179.706709
	   57 D(7,10,14,12)   =     60.070171     0.000007     0.143568    60.213739
	   58 D(7,10,14,13)   =    -59.819960     0.000011     0.228074   -59.591886
	   59 D(8,10,14,11)   =     59.645096    -0.000026    -0.591163    59.053933
	   60 D(8,10,14,12)   =    -60.414384    -0.000027    -0.611235   -61.025619
	   61 D(8,10,14,13)   =    179.695485    -0.000023    -0.526729   179.168756
	   62 D(9,10,14,11)   =    -59.653514     0.000026     0.793467   -58.860048
	   63 D(9,10,14,12)   =   -179.712994     0.000025     0.773394  -178.939600
	   64 D(9,10,14,13)   =     60.396875     0.000028     0.857901    61.254775
	 ---------------------------------------------------------------------------
	 Forces used to impose fixed constraints are not included.
	  Forces zeroed: 49 

  ==> Convergence Check <==

  Measures of convergence in internal coordinates in au.
  Criteria marked as inactive (o), active & met (*), and active & unmet ( ).
  ---------------------------------------------------------------------------------------------
   Step     Total Energy     Delta E     MAX Force     RMS Force      MAX Disp      RMS Disp   
  ---------------------------------------------------------------------------------------------
    Convergence Criteria    1.00e-06 *    3.00e-04 *             o    1.20e-03 *             o
  ---------------------------------------------------------------------------------------------
      2    -157.83953993   -4.10e-03      7.17e-03      3.21e-03 o    2.93e-02      1.25e-02 o  ~
  ---------------------------------------------------------------------------------------------

	Writing optimization data to binary file.
	Structure for next step:
	Cartesian Geometry (in Angstrom)
	    H    -2.1171525367   0.0978813395   0.8022454353
	    H    -1.9942122819   1.7626202631   0.2133968359
	    H    -1.6982348484   0.4124324173  -0.8890687380
	    C    -1.5630310156   0.7622758589   0.1365972786
	    H     0.4580236630   1.4553118325  -0.1503501136
	    H     0.0228433301   1.1403283401   1.5373417525
	    C    -0.0781236959   0.7715132301   0.5135066337
	    H     1.3570930873  -0.7274174745   1.1371939591
	    H    -0.2094110533  -1.3811274318   0.6319035038
	    C     0.5518142378  -0.6297925013   0.4046994781
	    H     1.5598114277  -1.8922801316  -1.0559872882
	    H     1.8974642032  -0.1633787724  -1.2281717737
	    H     0.3378364877  -0.8189267739  -1.7493657108
	    C     1.1216297562  -0.8942258412  -0.9924257508
			--------------------------
			 OPTKING Finished Execution 
			--------------------------

    Structure for next step:
    Molecular point group: c1
    Full point group: C1

    Geometry (in Angstrom), charge = 0, multiplicity = 1:

    H           -2.117126931368     0.097850412998     0.802386727129
    H           -1.994186676522     1.762589336523     0.213538127755
    H           -1.698209243093     0.412401490813    -0.888927446168
    C           -1.563005410267     0.762244932354     0.136738570427
    H            0.458049268363     1.455280905932    -0.150208821705
    H            0.022868935452     1.140297413570     1.537483044407
    C           -0.078098090574     0.771482303537     0.513647925517
    H            1.357118692684    -0.727448401003     1.137335250990
    H           -0.209385447903    -1.381158358324     0.632044795658
    C            0.551839843114    -0.629823427822     0.404840769940
    H            1.559837033017    -1.892311058158    -1.055845996366
    H            1.897489808499    -0.163409698912    -1.228030481871
    H            0.337862093090    -0.818957700413    -1.749224418951
    C            1.121655361515    -0.894256767701    -0.992284458943

gradient() will perform analytic gradient computation.
    SCF Algorithm Type (re)set to DF.

*** tstart() called on lski1497
*** at Mon Feb 20 17:37:30 2017


         ---------------------------------------------------------
                                   SCF
            by Justin Turney, Rob Parrish, and Andy Simmonett
                              RHF Reference
                        1 Threads,   1000 MiB Core
         ---------------------------------------------------------

  ==> Geometry <==

    Molecular point group: c1
    Full point group: C1

    Geometry (in Angstrom), charge = 0, multiplicity = 1:

       Center              X                  Y                   Z               Mass       
    ------------   -----------------  -----------------  -----------------  -----------------
           H         -2.117126931368     0.097850412998     0.802386727129     1.007825032070
           H         -1.994186676522     1.762589336523     0.213538127755     1.007825032070
           H         -1.698209243093     0.412401490813    -0.888927446168     1.007825032070
           C         -1.563005410267     0.762244932354     0.136738570427    12.000000000000
           H          0.458049268363     1.455280905932    -0.150208821705     1.007825032070
           H          0.022868935452     1.140297413570     1.537483044407     1.007825032070
           C         -0.078098090574     0.771482303537     0.513647925517    12.000000000000
           H          1.357118692684    -0.727448401003     1.137335250990     1.007825032070
           H         -0.209385447903    -1.381158358324     0.632044795658     1.007825032070
           C          0.551839843114    -0.629823427822     0.404840769940    12.000000000000
           H          1.559837033017    -1.892311058158    -1.055845996366     1.007825032070
           H          1.897489808499    -0.163409698912    -1.228030481871     1.007825032070
           H          0.337862093090    -0.818957700413    -1.749224418951     1.007825032070
           C          1.121655361515    -0.894256767701    -0.992284458943    12.000000000000

  Running in c1 symmetry.

  Rotational constants: A =      0.49169  B =      0.14497  C =      0.13359 [cm^-1]
  Rotational constants: A =  14740.62014  B =   4346.18918  C =   4004.87946 [MHz]
  Nuclear repulsion =  132.063635227724149

  Charge       = 0
  Multiplicity = 1
  Electrons    = 34
  Nalpha       = 17
  Nbeta        = 17

  ==> Algorithm <==

  SCF Algorithm Type is DF.
  DIIS enabled.
  MOM disabled.
  Fractional occupation disabled.
  Guess Type is READ.
  Energy threshold   = 1.00e-10
  Density threshold  = 1.00e-10
  Integral threshold = 0.00e+00

  ==> Primary Basis <==

  Basis Set: 6-31G(D)
    Number of shells: 44
    Number of basis function: 80
    Number of Cartesian functions: 80
    Spherical Harmonics?: false
    Max angular momentum: 2

  ==> Pre-Iterations <==

   -------------------------------------------------------
    Irrep   Nso     Nmo     Nalpha   Nbeta   Ndocc  Nsocc
   -------------------------------------------------------
     A         80      80       0       0       0       0
   -------------------------------------------------------
    Total      80      80      17      17      17       0
   -------------------------------------------------------

  ==> Integral Setup <==

  ==> DFJK: Density-Fitted J/K Matrices <==

    J tasked:                  Yes
    K tasked:                  Yes
    wK tasked:                  No
    OpenMP threads:              1
    Integrals threads:           1
    Memory (MB):               715
    Algorithm:                Core
    Integral Cache:           NONE
    Schwarz Cutoff:          1E-12
    Fitting Condition:       1E-12

   => Auxiliary Basis Set <=

  Basis Set: 
    Number of shells: 186
    Number of basis function: 574
    Number of Cartesian functions: 574
    Spherical Harmonics?: false
    Max angular momentum: 3

  Minimum eigenvalue in the overlap matrix is 5.4156466162E-03.
  Using Symmetric Orthogonalization.
  SCF Guess was Projection but file not found.
  Switching over to SAD guess.

  SCF Guess: Superposition of Atomic Densities via on-the-fly atomic UHF.

  ==> Iterations <==

                           Total Energy        Delta E     RMS |[F,P]|

   @DF-RHF iter   0:  -158.85416293078845   -1.58854e+02   4.62899e-02 
   @DF-RHF iter   1:  -157.20295485692628    1.65121e+00   3.96410e-03 
   @DF-RHF iter   2:  -157.28566480521999   -8.27099e-02   1.11606e-03 DIIS
   @DF-RHF iter   3:  -157.29374763177998   -8.08283e-03   2.91050e-04 DIIS
   @DF-RHF iter   4:  -157.29420728402033   -4.59652e-04   8.32881e-05 DIIS
   @DF-RHF iter   5:  -157.29425050086456   -4.32168e-05   1.33202e-05 DIIS
   @DF-RHF iter   6:  -157.29425187179561   -1.37093e-06   2.08336e-06 DIIS
   @DF-RHF iter   7:  -157.29425189563318   -2.38376e-08   7.35730e-07 DIIS
   @DF-RHF iter   8:  -157.29425189798019   -2.34701e-09   1.11576e-07 DIIS
   @DF-RHF iter   9:  -157.29425189807773   -9.75433e-11   2.53264e-08 DIIS
   @DF-RHF iter  10:  -157.29425189808342   -5.68434e-12   5.23254e-09 DIIS
   @DF-RHF iter  11:  -157.29425189808342    0.00000e+00   1.12968e-09 DIIS
   @DF-RHF iter  12:  -157.29425189808387   -4.54747e-13   3.39548e-10 DIIS
   @DF-RHF iter  13:  -157.29425189808353    3.41061e-13   6.77673e-11 DIIS

  ==> Post-Iterations <==

    Orbital Energies (a.u.)
    -----------------------

    Doubly Occupied:                                                      

       1A    -11.215152     2A    -11.214584     3A    -11.209713  
       4A    -11.209701     5A     -1.068615     6A     -0.975678  
       7A     -0.864828     8A     -0.780889     9A     -0.624626  
      10A     -0.615275    11A     -0.575968    12A     -0.539188  
      13A     -0.520390    14A     -0.503891    15A     -0.467098  
      16A     -0.455511    17A     -0.452668  

    Virtual:                                                              

      18A      0.229731    19A      0.275679    20A      0.275973  
      21A      0.290544    22A      0.310608    23A      0.316267  
      24A      0.341404    25A      0.343648    26A      0.349940  
      27A      0.380836    28A      0.396475    29A      0.446341  
      30A      0.457606    31A      0.711887    32A      0.727328  
      33A      0.731130    34A      0.750689    35A      0.771142  
      36A      0.833739    37A      0.869309    38A      0.930839  
      39A      0.952873    40A      0.998726    41A      1.074894  
      42A      1.116731    43A      1.151209    44A      1.154507  
      45A      1.177625    46A      1.182613    47A      1.188363  
      48A      1.223934    49A      1.239190    50A      1.242184  
      51A      1.245372    52A      1.263449    53A      1.277752  
      54A      1.471588    55A      1.712678    56A      1.730557  
      57A      1.839405    58A      1.865822    59A      2.011651  
      60A      2.051509    61A      2.192284    62A      2.242574  
      63A      2.269136    64A      2.302790    65A      2.368556  
      66A      2.444739    67A      2.448692    68A      2.583913  
      69A      2.627776    70A      2.652441    71A      2.706955  
      72A      2.757545    73A      2.792191    74A      2.912831  
      75A      2.985597    76A      3.069450    77A      4.557077  
      78A      4.663401    79A      4.837256    80A      4.943325  

    Final Occupation by Irrep:
              A 
    DOCC [    17 ]

  Energy converged.

  @DF-RHF Final Energy:  -157.29425189808353

   => Energetics <=

    Nuclear Repulsion Energy =            132.0636352277241485
    One-Electron Energy =                -472.1282206761175075
    Two-Electron Energy =                 182.7703335503096582
    DFT Exchange-Correlation Energy =       0.0000000000000000
    Empirical Dispersion Energy =           0.0000000000000000
    PCM Polarization Energy =               0.0000000000000000
    EFP Energy =                            0.0000000000000000
    Total Energy =                       -157.2942518980837008


  Saving occupied orbitals to File 180.

*** tstop() called on lski1497 at Mon Feb 20 17:37:37 2017
Module time:
	user time   =       4.83 seconds =       0.08 minutes
	system time =       0.13 seconds =       0.00 minutes
	total time  =          7 seconds =       0.12 minutes
Total time:
	user time   =      50.23 seconds =       0.84 minutes
	system time =       1.69 seconds =       0.03 minutes
	total time  =         71 seconds =       1.18 minutes


Properties will be evaluated at   0.000000,   0.000000,   0.000000 Bohr

Properties computed using the SCF density matrix

  Nuclear Dipole Moment: (a.u.)
     X:    -0.3616      Y:    -0.1077      Z:    -0.7026

  Electronic Dipole Moment: (a.u.)
     X:     0.3763      Y:     0.1120      Z:     0.7310

  Dipole Moment: (a.u.)
     X:     0.0147      Y:     0.0044      Z:     0.0285     Total:     0.0323

  Dipole Moment: (Debye)
     X:     0.0374      Y:     0.0111      Z:     0.0723     Total:     0.0822


  //>>>>>>>>>>>>>>>>>>>>>>>>>>>>>>>>>>>//
  //               DFMP2               //
  //<<<<<<<<<<<<<<<<<<<<<<<<<<<<<<<<<<<//


*** tstart() called on lski1497
*** at Mon Feb 20 17:37:37 2017


*** tstop() called on lski1497 at Mon Feb 20 17:37:38 2017
Module time:
	user time   =       0.50 seconds =       0.01 minutes
	system time =       0.01 seconds =       0.00 minutes
	total time  =          1 seconds =       0.02 minutes
Total time:
	user time   =      50.75 seconds =       0.85 minutes
	system time =       1.70 seconds =       0.03 minutes
	total time  =         72 seconds =       1.20 minutes
	 --------------------------------------------------------
	                          DF-MP2                         
	      2nd-Order Density-Fitted Moller-Plesset Theory     
	              RMP2 Wavefunction,   1 Threads             
	                                                         
	        Rob Parrish, Justin Turney, Andy Simmonett,      
	           Ed Hohenstein, and C. David Sherrill          
	 --------------------------------------------------------

   => Auxiliary Basis Set <=

  Basis Set: 
    Number of shells: 132
    Number of basis function: 364
    Number of Cartesian functions: 414
    Spherical Harmonics?: true
    Max angular momentum: 3

	 --------------------------------------------------------
	                 NBF =    80, NAUX =   364
	 --------------------------------------------------------
	   CLASS    FOCC     OCC    AOCC    AVIR     VIR    FVIR
	   PAIRS       0      17      17      63      63       0
	 --------------------------------------------------------

DGAS Warning! /src/lib/libfock/apps.cc:80 is not currently checking restricted

         ------------------------------------------------------------
                                     CPHF                           
                                  Rob Parrish                       
         ------------------------------------------------------------

  ==> Geometry <==

    Molecular point group: c1
    Full point group: C1

    Geometry (in Angstrom), charge = 0, multiplicity = 1:

       Center              X                  Y                   Z               Mass       
    ------------   -----------------  -----------------  -----------------  -----------------
           H         -2.117126931368     0.097850412998     0.802386727129     1.007825032070
           H         -1.994186676522     1.762589336523     0.213538127755     1.007825032070
           H         -1.698209243093     0.412401490813    -0.888927446168     1.007825032070
           C         -1.563005410267     0.762244932354     0.136738570427    12.000000000000
           H          0.458049268363     1.455280905932    -0.150208821705     1.007825032070
           H          0.022868935452     1.140297413570     1.537483044407     1.007825032070
           C         -0.078098090574     0.771482303537     0.513647925517    12.000000000000
           H          1.357118692684    -0.727448401003     1.137335250990     1.007825032070
           H         -0.209385447903    -1.381158358324     0.632044795658     1.007825032070
           C          0.551839843114    -0.629823427822     0.404840769940    12.000000000000
           H          1.559837033017    -1.892311058158    -1.055845996366     1.007825032070
           H          1.897489808499    -0.163409698912    -1.228030481871     1.007825032070
           H          0.337862093090    -0.818957700413    -1.749224418951     1.007825032070
           C          1.121655361515    -0.894256767701    -0.992284458943    12.000000000000

  Nuclear repulsion =  132.063635227724120
  Reference energy  = -157.294251898083530

  ==> Basis Set <==

  Basis Set: 6-31G(D)
    Number of shells: 44
[...]
    Max angular momentum: 3

  ==> CPHF Iterations <==

  => Iterations <=

             Iter  Converged  Remaining    Residual
  CGR           1          0          1   7.598E-02
  CGR           2          0          1   9.164E-03
  CGR           3          0          1   2.596E-03
  CGR           4          0          1   4.365E-04
  CGR           5          0          1   8.339E-05
  CGR           6          0          1   1.693E-05
  CGR           7          0          1   2.456E-06
  CGR           8          1          0   4.773E-07

    CGRSolver converged.

  ==> DFCorrGrad: Density-Fitted Correlated Gradients <==

    OpenMP threads:              1
    Integrals threads:           1
    Memory (MB):               715
    Schwarz Cutoff:          0E+00
    Fitting Condition:       1E-12

   => Auxiliary Basis Set <=

  Basis Set: 
    Number of shells: 186
    Number of basis function: 510
    Number of Cartesian functions: 574
    Spherical Harmonics?: true
    Max angular momentum: 3

	-----------------------------------------------------------
	 ==================> DF-MP2 Energies <==================== 
	-----------------------------------------------------------
	 Reference Energy          =    -157.2946463185111838 [Eh]
	 Singles Energy            =      -0.0000000000000000 [Eh]
	 Same-Spin Energy          =      -0.1244571869240285 [Eh]
	 Opposite-Spin Energy      =      -0.4224232692478200 [Eh]
	 Correlation Energy        =      -0.5468804561718486 [Eh]
	 Total Energy              =    -157.8415267746830182 [Eh]
	-----------------------------------------------------------
	 ================> DF-SCS-MP2 Energies <================== 
	-----------------------------------------------------------
	 SCS Same-Spin Scale       =       0.3333333333333333 [-]
	 SCS Opposite-Spin Scale   =       1.2000000000000000 [-]
	 SCS Same-Spin Energy      =      -0.0414857289746762 [Eh]
	 SCS Opposite-Spin Energy  =      -0.5069079230973840 [Eh]
	 SCS Correlation Energy    =      -0.5483936520720601 [Eh]
	 SCS Total Energy          =    -157.8430399705832485 [Eh]
	-----------------------------------------------------------


  -Total Gradient:
     Atom            X                  Y                   Z
    ------   -----------------  -----------------  -----------------
       1        0.000005267448     0.000001609538     0.000006199032
       2       -0.000001490061     0.000006440829    -0.000000886960
       3       -0.000006265460    -0.000001322650    -0.000005051058
       4       -0.000670309087    -0.000543807324     0.002715080491
       5       -0.000012781582    -0.000003872712     0.000006868474
       6       -0.000002144897    -0.000000188492    -0.000002742981
       7        0.001891898489     0.001198541986    -0.003444514329
       8       -0.000000826394    -0.000000829398    -0.000003268902
       9        0.000012619274     0.000003933231    -0.000007455236
      10       -0.003717693804    -0.001747328004    -0.000085522209
      11        0.000000691704    -0.000005804404     0.000000022101
      12        0.000001920236     0.000000392029     0.000008081440
      13       -0.000000656347    -0.000000733121    -0.000008220571
      14        0.002499770479     0.001092968490     0.000821410709


			-----------------------------------------
			 OPTKING 2.0: for geometry optimizations 
			  - R.A. King,  Bethel University        
			-----------------------------------------

	Previous internal coordinate definitions found.
	---Fragment 1 Geometry and Gradient---
	 H          -4.0284976747        0.2129586859        1.5687393124
	 H          -3.7828526289        3.3259731856        0.3762008597
	 H          -3.2639808858        0.7186604719       -1.6427819779
	 C          -2.9685989998        1.4289372641        0.2767253124
	 H           0.8565461437        2.7908328077       -0.2185354519
	 H           0.0169974344        2.1292570579        2.9164146613
	 C          -0.1697738754        1.4412160484        0.9718088100
	 H           2.5906438568       -1.3457157472        2.1253512833
	 H          -0.3294293464       -2.6324451350        1.2376933507
	 C           1.0570934763       -1.1745949963        0.7437876380
	 H           2.9312185551       -3.5818685060       -2.0228086775
	 H           3.6426988762       -0.3288777537       -2.3146576177
	 H           0.6858622511       -1.4933395113       -3.3419046784
	 C           2.1384561197       -1.6783778856       -1.8817726821
	             0.0000052674        0.0000016095        0.0000061990
	            -0.0000014901        0.0000064408       -0.0000008870
	            -0.0000062655       -0.0000013226       -0.0000050511
	            -0.0006703091       -0.0005438073        0.0027150805
	            -0.0000127816       -0.0000038727        0.0000068685
	            -0.0000021449       -0.0000001885       -0.0000027430
	             0.0018918985        0.0011985420       -0.0034445143
	            -0.0000008264       -0.0000008294       -0.0000032689
	             0.0000126193        0.0000039332       -0.0000074552
	            -0.0037176938       -0.0017473280       -0.0000855222
	             0.0000006917       -0.0000058044        0.0000000221
	             0.0000019202        0.0000003920        0.0000080814
	            -0.0000006563       -0.0000007331       -0.0000082206
	             0.0024997705        0.0010929685        0.0008214107

	---Fragment 1 Intrafragment Coordinates---
	 - Coordinate -           - BOHR/RAD -       - ANG/DEG -
	 R(1,4)           =         2.066710	       1.093656
	 R(2,4)           =         2.066797	       1.093702
	 R(3,4)           =         2.067910	       1.094291
	 R(4,7)           =         2.883871	       1.526079
	 R(5,7)           =         2.071646	       1.096268
	 R(6,7)           =         2.071177	       1.096020
	 R(7,10)          =         2.898217	       1.533671
	 R(8,10)          =         2.071178	       1.096020
	 R(9,10)          =         2.071646	       1.096268
	 R(10,14)         =         2.883871	       1.526079
	 R(11,14)         =         2.066795	       1.093701
	 R(12,14)         =         2.066709	       1.093655
	 R(13,14)         =         2.067910	       1.094291
	 B(1,4,2)         =         1.883786	     107.932994
	 B(1,4,3)         =         1.880679	     107.754986
	 B(1,4,7)         =         1.927884	     110.459613
	 B(2,4,3)         =         1.879333	     107.677862
	 B(2,4,7)         =         1.946408	     111.520986
	 B(3,4,7)         =         1.943160	     111.334872
	 B(4,7,5)         =         1.923128	     110.187096
	 B(4,7,6)         =         1.891492	     108.374500
	 B(4,7,10)        =         1.969288	     112.831873
	 B(5,7,6)         =         1.852907	     106.163730
	 B(5,7,10)        =         1.910351	     109.455025
	 B(6,7,10)        =         1.912957	     109.604359
	 B(7,10,8)        =         1.912958	     109.604394
	 B(7,10,9)        =         1.910351	     109.455028
	 B(7,10,14)       =         1.969288	     112.831867
	 B(8,10,9)        =         1.852907	     106.163738
	 B(8,10,14)       =         1.891491	     108.374451
	 B(9,10,14)       =         1.923128	     110.187108
	 B(10,14,11)      =         1.946407	     111.520933
	 B(10,14,12)      =         1.927884	     110.459608
	 B(10,14,13)      =         1.943161	     111.334908
	 B(11,14,12)      =         1.883786	     107.932972
	 B(11,14,13)      =         1.879334	     107.677888
	 B(12,14,13)      =         1.880680	     107.755007
	 D(1,4,7,5)       =        -3.053495	    -174.952355
	 D(1,4,7,6)       =        -1.033033	     -59.188422
	 D(1,4,7,10)      =         1.088659	      62.375545
	 D(2,4,7,5)       =        -0.958658	     -54.927063
	 D(2,4,7,6)       =         1.061804	      60.836869
	 D(2,4,7,10)      =        -3.099690	    -177.599164
	 D(3,4,7,5)       =         1.140893	      65.368339
	 D(3,4,7,6)       =        -3.121831	    -178.867728
	 D(3,4,7,10)      =        -1.000139	     -57.303761
	 D(4,7,10,8)      =        -2.610934	    -149.595493
	 D(4,7,10,9)      =        -0.585407	     -33.541347
	 D(4,7,10,14)     =         1.562751	      89.539015
	 D(5,7,10,8)      =         1.524094	      87.324156
	 D(5,7,10,9)      =        -2.733564	    -156.621698
	 D(5,7,10,14)     =        -0.585407	     -33.541335
	 D(6,7,10,8)      =        -0.501432	     -28.729960
	 D(6,7,10,9)      =         1.524095	      87.324186
	 D(6,7,10,14)     =        -2.610933	    -149.595451
	 D(7,10,14,11)    =        -3.099695	    -177.599425
	 D(7,10,14,12)    =         1.088655	      62.375351
	 D(7,10,14,13)    =        -1.000143	     -57.304001
	 D(8,10,14,11)    =         1.061799	      60.836603
	 D(8,10,14,12)    =        -1.033036	     -59.188621
	 D(8,10,14,13)    =        -3.121835	    -178.867973
	 D(9,10,14,11)    =        -0.958663	     -54.927317
	 D(9,10,14,12)    =        -3.053498	    -174.952541
	 D(9,10,14,13)    =         1.140889	      65.368107

	Current energy   :      -157.8415267747

	Energy change for the previous step:
		Projected    :        -0.0000013678
		Actual       :        -0.0000006226

	Performing BFGS update.
	Previous computed or guess Hessian on step 1.
	Steps to be used in Hessian update: 7 6
	Adding user-defined constraint: Fragment 1; Coordinate 49:
		Value =     1.562751; Fixed value    =     1.570800
		Force =     0.005433; Force constant =     0.675000
	Removing off-diagonal coupling between coordinate 49 and others.
	Taking RFO optimization step.
	Going to follow RFO solution 1.
	Rejecting RFO root 1 because normalization gives large value.
	Rejecting RFO root 2 because normalization gives large value.
	Using RFO vector 3.
	Norm of target step-size    0.00094
	Projected energy change by RFO approximation:        -0.0000001062

	Back-transformation to cartesian coordinates...
	Successfully converged to displaced geometry.

	--- Internal Coordinate Step in ANG or DEG, aJ/ANG or AJ/DEG ---
	 ---------------------------------------------------------------------------
	   Coordinate                Previous        Force       Change         New 
	   ----------                --------       ------       ------       ------
	    1 R(1,4)          =      1.093656    -0.000003     0.000006     1.093662
	    2 R(2,4)          =      1.093702    -0.000052    -0.000004     1.093697
	    3 R(3,4)          =      1.094291    -0.000050    -0.000005     1.094286
	    4 R(4,7)          =      1.526079    -0.000008    -0.000007     1.526072
	    5 R(5,7)          =      1.096268     0.000106     0.000028     1.096296
	    6 R(6,7)          =      1.096020     0.000023     0.000007     1.096027
	    7 R(7,10)         =      1.533671    -0.000216    -0.000055     1.533616
	    8 R(8,10)         =      1.096020     0.000022     0.000007     1.096027
	    9 R(9,10)         =      1.096268     0.000107     0.000028     1.096296
	   10 R(10,14)        =      1.526079    -0.000005    -0.000006     1.526073
	   11 R(11,14)        =      1.093701    -0.000046    -0.000002     1.093698
	   12 R(12,14)        =      1.093655    -0.000001     0.000006     1.093662
	   13 R(13,14)        =      1.094291    -0.000051    -0.000006     1.094285
	   14 B(1,4,2)        =    107.932994    -0.000000    -0.000334   107.932661
	   15 B(1,4,3)        =    107.754986    -0.000000    -0.001968   107.753018
	   16 B(1,4,7)        =    110.459613     0.000001     0.006920   110.466534
	   17 B(2,4,3)        =    107.677862     0.000000    -0.000367   107.677495
	   18 B(2,4,7)        =    111.520986     0.000000     0.000699   111.521686
	   19 B(3,4,7)        =    111.334872    -0.000001    -0.005090   111.329783
	   20 B(4,7,5)        =    110.187096     0.000006     0.005095   110.192192
	   21 B(4,7,6)        =    108.374500    -0.000004     0.003257   108.377757
	   22 B(4,7,10)       =    112.831873    -0.000002    -0.007007   112.824866
	   23 B(5,7,6)        =    106.163730    -0.000000     0.000417   106.164147
	   24 B(5,7,10)       =    109.455025     0.000000     0.000456   109.455481
	   25 B(6,7,10)       =    109.604359     0.000001    -0.001782   109.602577
	   26 B(7,10,8)       =    109.604394     0.000001    -0.001842   109.602551
	   27 B(7,10,9)       =    109.455028     0.000000     0.000430   109.455458
	   28 B(7,10,14)      =    112.831867    -0.000002    -0.006950   112.824917
	   29 B(8,10,9)       =    106.163738    -0.000000     0.000398   106.164136
	   30 B(8,10,14)      =    108.374451    -0.000004     0.003310   108.377761
	   31 B(9,10,14)      =    110.187108     0.000006     0.005086   110.192194
	   32 B(10,14,11)     =    111.520933     0.000000     0.000698   111.521632
	   33 B(10,14,12)     =    110.459608     0.000001     0.006893   110.466501
	   34 B(10,14,13)     =    111.334908    -0.000001    -0.005147   111.329761
	   35 B(11,14,12)     =    107.932972    -0.000000    -0.000257   107.932715
	   36 B(11,14,13)     =    107.677888     0.000000    -0.000369   107.677519
	   37 B(12,14,13)     =    107.755007    -0.000000    -0.001953   107.753054
	   38 D(1,4,7,5)      =   -174.952355     0.000000    -0.015548  -174.967903
	   39 D(1,4,7,6)      =    -59.188422     0.000000    -0.010413   -59.198835
	   40 D(1,4,7,10)     =     62.375545    -0.000001    -0.014936    62.360609
	   41 D(2,4,7,5)      =    -54.927063     0.000000    -0.010864   -54.937927
	   42 D(2,4,7,6)      =     60.836869     0.000000    -0.005728    60.831141
	   43 D(2,4,7,10)     =   -177.599164    -0.000000    -0.010251  -177.609415
	   44 D(3,4,7,5)      =     65.368339     0.000000    -0.014340    65.353999
	   45 D(3,4,7,6)      =   -178.867728     0.000000    -0.009204  -178.876932
	   46 D(3,4,7,10)     =    -57.303761    -0.000000    -0.013727   -57.317489
	   47 D(4,7,10,8)     =   -149.595493     0.000001     0.001275  -149.594219
	   48 D(4,7,10,9)     =    -33.541347     0.000001     0.000953   -33.540394
	   49 D(4,7,10,14)    =     89.539015     0.000003     0.002988    89.542003
	   50 D(5,7,10,8)     =     87.324156    -0.000000    -0.000751    87.323405
	   51 D(5,7,10,9)     =   -156.621698    -0.000000    -0.001073  -156.622770
	   52 D(5,7,10,14)    =    -33.541335     0.000001     0.000962   -33.540373
	   53 D(6,7,10,8)     =    -28.729960    -0.000000    -0.000501   -28.730461
	   54 D(6,7,10,9)     =     87.324186    -0.000000    -0.000823    87.323364
	   55 D(6,7,10,14)    =   -149.595451     0.000001     0.001212  -149.594239
	   56 D(7,10,14,11)   =   -177.599425    -0.000000    -0.009717  -177.609142
	   57 D(7,10,14,12)   =     62.375351    -0.000001    -0.014480    62.360871
	   58 D(7,10,14,13)   =    -57.304001    -0.000000    -0.013235   -57.317237
	   59 D(8,10,14,11)   =     60.836603     0.000000    -0.005192    60.831411
	   60 D(8,10,14,12)   =    -59.188621     0.000000    -0.009955   -59.198576
	   61 D(8,10,14,13)   =   -178.867973     0.000000    -0.008710  -178.876683
	   62 D(9,10,14,11)   =    -54.927317     0.000000    -0.010330   -54.937647
	   63 D(9,10,14,12)   =   -174.952541     0.000000    -0.015093  -174.967634
	   64 D(9,10,14,13)   =     65.368107     0.000000    -0.013848    65.354259
	 ---------------------------------------------------------------------------
	 Forces used to impose fixed constraints are not included.
	  Forces zeroed: 49 

  ==> Convergence Check <==

  Measures of convergence in internal coordinates in au.
  Criteria marked as inactive (o), active & met (*), and active & unmet ( ).
  ---------------------------------------------------------------------------------------------
   Step     Total Energy     Delta E     MAX Force     RMS Force      MAX Disp      RMS Disp   
  ---------------------------------------------------------------------------------------------
    Convergence Criteria    1.00e-06 *    3.00e-04 *             o    1.20e-03 *             o
  ---------------------------------------------------------------------------------------------
      8    -157.84152677   -6.23e-07 *    7.42e-05 *    2.73e-05 o    2.71e-04 *    1.18e-04 o  ~
  ---------------------------------------------------------------------------------------------


  **** Optimization is complete! (in 8 steps) ****

  ==> Optimization Summary <==

  Measures of convergence in internal coordinates in au.
  --------------------------------------------------------------------------------------------------------------- ~
   Step         Total Energy             Delta E       MAX Force       RMS Force        MAX Disp        RMS Disp  ~
  --------------------------------------------------------------------------------------------------------------- ~
      1    -157.835442057609   -157.835442057609      0.01783140      0.00724964      0.02809004      0.01250209  ~
      2    -157.839539932806     -0.004097875197      0.00717112      0.00320699      0.02927764      0.01251781  ~
      3    -157.841039086654     -0.001499153848      0.00209503      0.00096782      0.04401574      0.01251870  ~
      4    -157.841437546925     -0.000398460270      0.00116782      0.00028441      0.02803883      0.01249776  ~
      5    -157.841519964321     -0.000082417397      0.00013239      0.00006048      0.02051983      0.01018389  ~
      6    -157.841535800135     -0.000015835813      0.00031090      0.00007367      0.00604891      0.00296390  ~
      7    -157.841526152128      0.000009648007      0.00008173      0.00002721      0.00432686      0.00219584  ~
      8    -157.841526774683     -0.000000622555      0.00015090      0.00003317      0.00027137      0.00011798  ~
  --------------------------------------------------------------------------------------------------------------- ~

	Writing optimization data to binary file.
	Final energy is   -157.8415267746830
	Final (previous) structure:
	Cartesian Geometry (in Angstrom)
	    H    -2.1317891543   0.1126928829   0.8301410903
	    H    -2.0017993946   1.7600292062   0.1990769208
	    H    -1.7272242941   0.3802987424  -0.8693227814
	    C    -1.5709149321   0.7561610327   0.1464367283
	    H     0.4532646973   1.4768451148  -0.1156439804
	    H     0.0089946549   1.1267543063   1.5433001696
	    C    -0.0898404655   0.7626586855   0.5142590734
	    H     1.3709096846  -0.7121221026   1.1246874594
	    H    -0.1743265020  -1.3930299683   0.6549591124
	    C     0.5593897750  -0.6215689013   0.3935954661
	    H     1.5511340527  -1.8954431775  -1.0704242495
	    H     1.9276332231  -0.1740346117  -1.2248640570
	    H     0.3629426715  -0.7902412341  -1.7684597891
	    C     1.1316222401  -0.8881593245  -0.9957912151
	Saving final (previous) structure.
			--------------------------
			 OPTKING Finished Execution 
			--------------------------

    Final optimized geometry and variables:
    Molecular point group: c1
    Full point group: C1

    Geometry (in Angstrom), charge = 0, multiplicity = 1:

    H           -2.131789154312     0.112692882940     0.830141090327
    H           -2.001799394647     1.760029206215     0.199076920799
    H           -1.727224294057     0.380298742445    -0.869322781377
    C           -1.570914932135     0.756161032683     0.146436728342
    H            0.453264697337     1.476845114798    -0.115643980430
    H            0.008994654902     1.126754306254     1.543300169551
    C           -0.089840465496     0.762658685467     0.514259073358
    H            1.370909684605    -0.712122102634     1.124687459350
    H           -0.174326501971    -1.393029968319     0.654959112420
    C            0.559389774984    -0.621568901342     0.393595466060
    H            1.551134052745    -1.895443177539    -1.070424249482
    H            1.927633223051    -0.174034611681    -1.224864056964
    H            0.362942671523    -0.790241234078    -1.768459789082
    C            1.131622240122    -0.888159324483    -0.995791215111

	Cleaning optimization helper files.

*** Psi4 exiting successfully. Buy a developer a beer!
