    -----------------------------------------------------------------------
          Psi4: An Open-Source Ab Initio Electronic Structure Package
                              Psi4 1.0.0 Driver

                          Git: Rev {master} 6a9a71b 

    J. M. Turney, A. C. Simmonett, R. M. Parrish, E. G. Hohenstein,
    F. A. Evangelista, J. T. Fermann, B. J. Mintz, L. A. Burns, J. J. Wilke,
    M. L. Abrams, N. J. Russ, M. L. Leininger, C. L. Janssen, E. T. Seidl,
    W. D. Allen, H. F. Schaefer, R. A. King, E. F. Valeev, C. D. Sherrill,
    and T. D. Crawford, WIREs Comput. Mol. Sci. 2, 556-565 (2012)
    (doi: 10.1002/wcms.93)

                         Additional Contributions by
    A. E. DePrince, U. Bozkaya, A. Yu. Sokolov, D. G. A. Smith, R. Di Remigio,
    R. M. Richard, J. F. Gonthier, H. R. McAlexander, M. Saitow, and
    B. P. Pritchard
    -----------------------------------------------------------------------


    Psi4 started on: Tue Feb 21 20:20:59 2017

    Process ID:  54057
    PSI4DATADIR: /Users/sternc1/anaconda/share/psi4
    Memory level set to 256.000 MB

  ==> Input File <==

--------------------------------------------------------------------------

memory 1000 mb

molecule butane {
  symmetry C1
  0 1 
  H      1.604   0.760   -8.260
  H      1.745   2.388   -8.880
  H      2.043   1.024   -9.930
  C      2.142   1.395   -8.932
  H      4.169   2.051   -9.210
  H      3.731   1.788   -7.539
  C      3.631   1.416   -8.537
  H      5.095   -0.070   -8.025
  H      3.482   -0.705   -8.233
  C      4.203   -0.012   -8.612
  H      4.926   -1.351   -10.128
  H      5.249   0.334   -10.456
  H      3.636   -0.302   -10.664
  C      4.528   -0.359   -10.076
  units Angstrom
}

dih_string = "4 7 10 14 80"
set optking fixed_dihedral = $dih_string

optimize('B3LYP/cc-PVDZ')
--------------------------------------------------------------------------

  Memory set to 1000.000 MiB by Python script.
gradient() will perform analytic gradient computation.

*** tstart() called on lski1497
*** at Tue Feb 21 20:21:01 2017


         ---------------------------------------------------------
                                   SCF
            by Justin Turney, Rob Parrish, and Andy Simmonett
                              RKS Reference
                        1 Threads,   1000 MiB Core
         ---------------------------------------------------------

  ==> Geometry <==

    Molecular point group: c1
    Full point group: C1

    Geometry (in Angstrom), charge = 0, multiplicity = 1:

       Center              X                  Y                   Z               Mass       
    ------------   -----------------  -----------------  -----------------  -----------------
           H         -2.011935328365     0.153175577430     0.795431562585     1.007825032070
           H         -1.870935328365     1.781175577430     0.175431562585     1.007825032070
           H         -1.572935328365     0.417175577430    -0.874568437415     1.007825032070
           C         -1.473935328365     0.788175577430     0.123431562585    12.000000000000
           H          0.553064671635     1.444175577430    -0.154568437415     1.007825032070
           H          0.115064671635     1.181175577430     1.516431562585     1.007825032070
           C          0.015064671635     0.809175577430     0.518431562585    12.000000000000
           H          1.479064671635    -0.676824422570     1.030431562585     1.007825032070
           H         -0.133935328365    -1.311824422570     0.822431562585     1.007825032070
           C          0.587064671635    -0.618824422570     0.443431562585    12.000000000000
           H          1.310064671635    -1.957824422570    -1.072568437415     1.007825032070
           H          1.633064671635    -0.272824422570    -1.400568437415     1.007825032070
           H          0.020064671635    -0.908824422570    -1.608568437415     1.007825032070
           C          0.912064671635    -0.965824422570    -1.020568437415    12.000000000000

  Running in c1 symmetry.

  Rotational constants: A =      0.45823  B =      0.15810  C =      0.14033 [cm^-1]
  Rotational constants: A =  13737.46994  B =   4739.76824  C =   4207.11630 [MHz]
  Nuclear repulsion =  133.865212518042711

  Charge       = 0
  Multiplicity = 1
  Electrons    = 34
  Nalpha       = 17
  Nbeta        = 17

  ==> Algorithm <==

  SCF Algorithm Type is DF.
  DIIS enabled.
  MOM disabled.
  Fractional occupation disabled.
  Guess Type is SAD.
  Energy threshold   = 1.00e-08
  Density threshold  = 1.00e-08
  Integral threshold = 0.00e+00

  ==> Primary Basis <==

  Basis Set: CC-PVDZ
    Number of shells: 54
    Number of basis function: 106
    Number of Cartesian functions: 110
    Spherical Harmonics?: true
    Max angular momentum: 2

  ==> DFT Potential <==

   => B3LYP Composite Functional <= 

    B3LYP Hybrid-GGA Exchange-Correlation Functional (VWN1-RPA)

    P.J. Stephens et. al., J. Phys. Chem., 98, 11623-11627, 1994

    Points   =           5000
    Deriv    =              1
    GGA      =           TRUE
    Meta     =          FALSE

    X_LRC        =          FALSE
    X_Hybrid     =           TRUE
    X_Alpha      =   2.000000E-01
    X_Omega      =   0.000000E+00
    C_LRC        =          FALSE
    C_Hybrid     =          FALSE
    C_Alpha      =   0.000000E+00
    C_Omega      =   0.000000E+00

   => Exchange Functionals <=

    0.8000    B3_X
    0.2000      HF 

   => Correlation Functionals <=

    0.1900 VWN3RPA_C
    0.8100   LYP_C

   => Molecular Quadrature <=

    Radial Scheme    =       TREUTLER
    Pruning Scheme   =           FLAT
    Nuclear Scheme   =       TREUTLER

    BS radius alpha  =              1
    Pruning alpha    =              1
    Radial Points    =             75
    Spherical Points =            302
    Total Points     =         312750
    Total Blocks     =            275
    Max Points       =           4872
    Max Functions    =            106

  ==> Pre-Iterations <==

   -------------------------------------------------------
    Irrep   Nso     Nmo     Nalpha   Nbeta   Ndocc  Nsocc
   -------------------------------------------------------
     A        106     106       0       0       0       0
   -------------------------------------------------------
    Total     106     106      17      17      17       0
   -------------------------------------------------------

  ==> Integral Setup <==

  ==> DFJK: Density-Fitted J/K Matrices <==

    J tasked:                  Yes
    K tasked:                  Yes
    wK tasked:                  No
    OpenMP threads:              1
    Integrals threads:           1
    Memory (MB):               715
    Algorithm:                Core
    Integral Cache:           NONE
    Schwarz Cutoff:          1E-12
    Fitting Condition:       1E-12

   => Auxiliary Basis Set <=

  Basis Set: 
    Number of shells: 186
    Number of basis function: 510
    Number of Cartesian functions: 574
    Spherical Harmonics?: true
    Max angular momentum: 3

  Minimum eigenvalue in the overlap matrix is 5.0458015975E-03.
  Using Symmetric Orthogonalization.
  SCF Guess: Superposition of Atomic Densities via on-the-fly atomic UHF.

  ==> Iterations <==

                           Total Energy        Delta E     RMS |[F,P]|

   @DF-RKS iter   0:  -159.06481474073780   -1.59065e+02   3.40368e-02 
   @DF-RKS iter   1:  -158.30511389075048    7.59701e-01   4.66956e-03 
   @DF-RKS iter   2:  -158.26013994715271    4.49739e-02   5.50150e-03 DIIS
   @DF-RKS iter   3:  -158.44614126252824   -1.86001e-01   3.74766e-04 DIIS
   @DF-RKS iter   4:  -158.44692340971454   -7.82147e-04   1.04419e-04 DIIS
   @DF-RKS iter   5:  -158.44697555549124   -5.21458e-05   4.42912e-05 DIIS
   @DF-RKS iter   6:  -158.44698618616422   -1.06307e-05   6.68032e-06 DIIS
   @DF-RKS iter   7:  -158.44698645818849   -2.72024e-07   9.03010e-07 DIIS
   @DF-RKS iter   8:  -158.44698646369866   -5.51017e-09   1.09721e-07 DIIS
   @DF-RKS iter   9:  -158.44698646377958   -8.09166e-11   2.70932e-08 DIIS
   @DF-RKS iter  10:  -158.44698646378336   -3.78009e-12   1.26942e-08 DIIS
   @DF-RKS iter  11:  -158.44698646378404   -6.82121e-13   2.30054e-09 DIIS

  ==> Post-Iterations <==

    Orbital Energies (a.u.)
    -----------------------

    Doubly Occupied:                                                      

       1A    -10.169833     2A    -10.169589     3A    -10.164418  
       4A    -10.164334     5A     -0.796147     6A     -0.719889  
       7A     -0.638612     8A     -0.573532     9A     -0.460499  
      10A     -0.454965    11A     -0.420144    12A     -0.384751  
      13A     -0.378212    14A     -0.360008    15A     -0.332785  
      16A     -0.319717    17A     -0.314663  

    Virtual:                                                              

      18A      0.064635    19A      0.097938    20A      0.098390  
      21A      0.107243    22A      0.135548    23A      0.147729  
      24A      0.153151    25A      0.162314    26A      0.163238  
      27A      0.204295    28A      0.222975    29A      0.245414  
      30A      0.259520    31A      0.410005    32A      0.412311  
      33A      0.432664    34A      0.438483    35A      0.444967  
      36A      0.469473    37A      0.531552    38A      0.599129  
      39A      0.609080    40A      0.631376    41A      0.644010  
      42A      0.657565    43A      0.666306    44A      0.671398  
      45A      0.677965    46A      0.695418    47A      0.699900  
      48A      0.709588    49A      0.715837    50A      0.741986  
      51A      0.762002    52A      0.803099    53A      0.890350  
      54A      0.906449    55A      0.965074    56A      1.118637  
      57A      1.134893    58A      1.198788    59A      1.200483  
      60A      1.260370    61A      1.381945    62A      1.393400  
      63A      1.439849    64A      1.440561    65A      1.457275  
      66A      1.485646    67A      1.570415    68A      1.588977  
      69A      1.634071    70A      1.639929    71A      1.645880  
      72A      1.668028    73A      1.680664    74A      1.687189  
      75A      1.694171    76A      1.711611    77A      1.718710  
      78A      1.729456    79A      1.754270    80A      1.763117  
      81A      1.797138    82A      1.859037    83A      1.886873  
      84A      1.913268    85A      1.992236    86A      2.015524  
      87A      2.030100    88A      2.040908    89A      2.110036  
      90A      2.166863    91A      2.246613    92A      2.263288  
      93A      2.289158    94A      2.307134    95A      2.344007  
      96A      2.376893    97A      2.489138    98A      2.502345  
      99A      2.516656   100A      2.534773   101A      2.535837  
     102A      2.598475   103A      2.651356   104A      2.669094  
     105A      2.717413   106A      2.772766  

    Final Occupation by Irrep:
              A 
    DOCC [    17 ]

  Energy converged.

  @DF-RKS Final Energy:  -158.44698646378404

   => Energetics <=

    Nuclear Repulsion Energy =            133.8652125180427106
    One-Electron Energy =                -476.1139971869502006
    Two-Electron Energy =                 204.4834655872140274
    DFT Exchange-Correlation Energy =     -20.6816673820905699
    Empirical Dispersion Energy =           0.0000000000000000
    PCM Polarization Energy =               0.0000000000000000
    EFP Energy =                            0.0000000000000000
    Total Energy =                       -158.4469864637840431


  Saving occupied orbitals to File 180.

*** tstop() called on lski1497 at Tue Feb 21 20:25:26 2017
Module time:
	user time   =     216.81 seconds =       3.61 minutes
	system time =       2.70 seconds =       0.05 minutes
	total time  =        265 seconds =       4.42 minutes
Total time:
	user time   =     216.81 seconds =       3.61 minutes
	system time =       2.70 seconds =       0.05 minutes
	total time  =        265 seconds =       4.42 minutes


Properties will be evaluated at   0.000000,   0.000000,   0.000000 Bohr

Properties computed using the SCF density matrix

  Nuclear Dipole Moment: (a.u.)
     X:    -0.4494      Y:    -0.1418      Z:    -0.7225

  Electronic Dipole Moment: (a.u.)
     X:     0.4652      Y:     0.1463      Z:     0.7475

  Dipole Moment: (a.u.)
     X:     0.0159      Y:     0.0045      Z:     0.0250     Total:     0.0300

  Dipole Moment: (Debye)
     X:     0.0403      Y:     0.0114      Z:     0.0637     Total:     0.0762


*** tstart() called on lski1497
*** at Tue Feb 21 20:25:26 2017


         ------------------------------------------------------------
                                   SCF GRAD                          
                          Rob Parrish, Justin Turney,                
                       Andy Simmonett, and Alex Sokolov              
         ------------------------------------------------------------

  ==> Geometry <==

    Molecular point group: c1
    Full point group: C1

    Geometry (in Angstrom), charge = 0, multiplicity = 1:

       Center              X                  Y                   Z               Mass       
    ------------   -----------------  -----------------  -----------------  -----------------
           H         -2.011935328365     0.153175577430     0.795431562585     1.007825032070
           H         -1.870935328365     1.781175577430     0.175431562585     1.007825032070
           H         -1.572935328365     0.417175577430    -0.874568437415     1.007825032070
           C         -1.473935328365     0.788175577430     0.123431562585    12.000000000000
           H          0.553064671635     1.444175577430    -0.154568437415     1.007825032070
           H          0.115064671635     1.181175577430     1.516431562585     1.007825032070
           C          0.015064671635     0.809175577430     0.518431562585    12.000000000000
           H          1.479064671635    -0.676824422570     1.030431562585     1.007825032070
           H         -0.133935328365    -1.311824422570     0.822431562585     1.007825032070
           C          0.587064671635    -0.618824422570     0.443431562585    12.000000000000
           H          1.310064671635    -1.957824422570    -1.072568437415     1.007825032070
           H          1.633064671635    -0.272824422570    -1.400568437415     1.007825032070
           H          0.020064671635    -0.908824422570    -1.608568437415     1.007825032070
           C          0.912064671635    -0.965824422570    -1.020568437415    12.000000000000

  Nuclear repulsion =  133.865212518042711

  ==> Basis Set <==

  Basis Set: CC-PVDZ
    Number of shells: 54
    Number of basis function: 106
    Number of Cartesian functions: 110
    Spherical Harmonics?: true
    Max angular momentum: 2

  ==> DFJKGrad: Density-Fitted SCF Gradients <==

    Gradient:                    1
    J tasked:                  Yes
    K tasked:                  Yes
    wK tasked:                  No
    OpenMP threads:              1
    Integrals threads:           1
    Memory (MB):               715
    Schwarz Cutoff:          0E+00
    Fitting Condition:       1E-12

   => Auxiliary Basis Set <=

  Basis Set: 
    Number of shells: 186
    Number of basis function: 510
    Number of Cartesian functions: 574
    Spherical Harmonics?: true
    Max angular momentum: 3

  ==> DFT Potential <==

   => B3LYP Composite Functional <= 

    B3LYP Hybrid-GGA Exchange-Correlation Functional (VWN1-RPA)

    P.J. Stephens et. al., J. Phys. Chem., 98, 11623-11627, 1994

    Points   =           5000
    Deriv    =              1
    GGA      =           TRUE
    Meta     =          FALSE

    X_LRC        =          FALSE
    X_Hybrid     =           TRUE
    X_Alpha      =   2.000000E-01
    X_Omega      =   0.000000E+00
    C_LRC        =          FALSE
    C_Hybrid     =          FALSE
    C_Alpha      =   0.000000E+00
    C_Omega      =   0.000000E+00

   => Exchange Functionals <=

    0.8000    B3_X
    0.2000      HF 

   => Correlation Functionals <=

    0.1900 VWN3RPA_C
    0.8100   LYP_C

   => Molecular Quadrature <=

    Radial Scheme    =       TREUTLER
    Pruning Scheme   =           FLAT
    Nuclear Scheme   =       TREUTLER

    BS radius alpha  =              1
    Pruning alpha    =              1
    Radial Points    =             75
    Spherical Points =            302
    Total Points     =         312750
    Total Blocks     =            275
    Max Points       =           4872
    Max Functions    =            106


  -Total Gradient:
     Atom            X                  Y                   Z
    ------   -----------------  -----------------  -----------------
       1        0.013999722824     0.012609394029    -0.012844571352
       2        0.012417966242    -0.018792878450     0.000726399360
       3        0.006412525649     0.006988451382     0.020579994303
       4       -0.029258223844    -0.008411765392    -0.008305273235
       5       -0.013268301562    -0.015481706733     0.011178560521
       6       -0.002484271568    -0.011075873285    -0.020529142997
       7        0.022280503482     0.030805605076     0.003485471901
       8       -0.018990666864     0.004287276207    -0.013608778024
       9        0.013597758279     0.015842771554    -0.011649359282
      10       -0.001789737132    -0.024861899938     0.029299995418
      11       -0.008364883232     0.020546660162     0.005973606490
      12       -0.015368011008    -0.013062708435     0.010510313607
      13        0.016017981516     0.000287324403     0.015445028596
      14        0.004805709452     0.000321778624    -0.030249274932


*** tstop() called on lski1497 at Tue Feb 21 20:27:06 2017
Module time:
	user time   =      81.72 seconds =       1.36 minutes
	system time =       1.31 seconds =       0.02 minutes
	total time  =        100 seconds =       1.67 minutes
Total time:
	user time   =     298.59 seconds =       4.98 minutes
	system time =       4.01 seconds =       0.07 minutes
	total time  =        365 seconds =       6.08 minutes

			-----------------------------------------
			 OPTKING 2.0: for geometry optimizations 
			  - R.A. King,  Bethel University        
			-----------------------------------------

	Internal coordinates to be generated automatically.
	Detected frag 1 with atoms:  1 2 3 4 5 6 7 8 9 10 11 12 13 14
	---Fragment 1 Bond Connectivity---
	 1 : 4
	 2 : 4
	 3 : 4
	 4 : 1 2 3 7
	 5 : 7
	 6 : 7
	 7 : 4 5 6 10
	 8 : 10
	 9 : 10
	 10 : 7 8 9 14
	 11 : 14
	 12 : 14
	 13 : 14
	 14 : 10 11 12 13

	Assuming in current code that numbering for constraints corresponds to unified fragment.
	Fixed dihedral atom list: 
	     4     7    10    14
	---Fragment 1 Geometry and Gradient---
	 H          -3.8020067677        0.2894598916        1.5031478107
	 H          -3.5355553830        3.3659340359        0.3315176084
	 H          -2.9724169954        0.7883475907       -1.6526948312
	 C          -2.7853341082        1.4894359860        0.2332518494
	 H           1.0451407632        2.7290963291       -0.2920920155
	 H           0.2174407170        2.2320983562        2.8656403525
	 C           0.0284681037        1.5291202348        0.9796936719
	 H           2.7950271622       -1.2790127987        1.9472334520
	 H          -0.2531010901       -2.4789888931        1.5541704163
	 C           1.1093914517       -1.1694086830        0.8379642120
	 H           2.4756634458       -3.6997519749       -2.0268606055
	 H           3.0860449867       -0.5155634410       -2.6466907771
	 H           0.0379167343       -1.7174292615       -3.0397538127
	 C           1.7235524449       -1.8251436511       -1.9285948466
	             0.0139997228        0.0126093940       -0.0128445714
	             0.0124179662       -0.0187928784        0.0007263994
	             0.0064125256        0.0069884514        0.0205799943
	            -0.0292582238       -0.0084117654       -0.0083052732
	            -0.0132683016       -0.0154817067        0.0111785605
	            -0.0024842716       -0.0110758733       -0.0205291430
	             0.0222805035        0.0308056051        0.0034854719
	            -0.0189906669        0.0042872762       -0.0136087780
	             0.0135977583        0.0158427716       -0.0116493593
	            -0.0017897371       -0.0248618999        0.0292999954
	            -0.0083648832        0.0205466602        0.0059736065
	            -0.0153680110       -0.0130627084        0.0105103136
	             0.0160179815        0.0002873244        0.0154450286
	             0.0048057095        0.0003217786       -0.0302492749

	Previous optimization step data not found.  Starting new optimization.

	---Fragment 1 Intrafragment Coordinates---
	 - Coordinate -           - BOHR/RAD -       - ANG/DEG -
	 R(1,4)           =         2.021436	       1.069698
	 R(2,4)           =         2.023298	       1.070683
	 R(3,4)           =         2.020723	       1.069320
	 R(4,7)           =         2.911397	       1.540645
	 R(5,7)           =         2.022623	       1.070326
	 R(6,7)           =         2.021555	       1.069761
	 R(7,10)          =         2.910419	       1.540128
	 R(8,10)          =         2.020856	       1.069391
	 R(9,10)          =         2.020974	       1.069454
	 R(10,14)         =         2.908785	       1.539263
	 R(11,14)         =         2.022247	       1.070127
	 R(12,14)         =         2.021645	       1.069808
	 R(13,14)         =         2.021792	       1.069886
	 B(1,4,2)         =         1.910870	     109.484805
	 B(1,4,3)         =         1.911121	     109.499161
	 B(1,4,7)         =         1.910399	     109.457783
	 B(2,4,3)         =         1.910042	     109.437340
	 B(2,4,7)         =         1.910564	     109.467262
	 B(3,4,7)         =         1.910803	     109.480971
	 B(4,7,5)         =         1.909937	     109.431343
	 B(4,7,6)         =         1.911630	     109.528316
	 B(4,7,10)        =         1.911154	     109.501062
	 B(5,7,6)         =         1.910605	     109.469614
	 B(5,7,10)        =         1.910047	     109.437654
	 B(6,7,10)        =         1.910425	     109.459295
	 B(7,10,8)        =         1.910648	     109.472088
	 B(7,10,9)        =         1.910463	     109.461456
	 B(7,10,14)       =         1.911079	     109.496745
	 B(8,10,9)        =         1.909932	     109.431036
	 B(8,10,14)       =         1.911053	     109.495248
	 B(9,10,14)       =         1.910625	     109.470727
	 B(10,14,11)      =         1.911041	     109.494578
	 B(10,14,12)      =         1.911450	     109.518044
	 B(10,14,13)      =         1.912055	     109.552703
	 B(11,14,12)      =         1.909825	     109.424922
	 B(11,14,13)      =         1.910027	     109.436502
	 B(12,14,13)      =         1.909398	     109.400434
	 D(1,4,7,5)       =         3.140997	     179.965873
	 D(1,4,7,6)       =        -1.047644	     -60.025575
	 D(1,4,7,10)      =         1.047427	      60.013132
	 D(2,4,7,5)       =        -1.047689	     -60.028143
	 D(2,4,7,6)       =         1.046856	      59.980409
	 D(2,4,7,10)      =        -3.141259	    -179.980883
	 D(3,4,7,5)       =         1.046044	      59.933911
	 D(3,4,7,6)       =         3.140588	     179.942463
	 D(3,4,7,10)      =        -1.047526	     -60.018830
	 D(4,7,10,8)      =        -2.791702	    -159.952714
	 D(4,7,10,9)      =        -0.698260	     -40.007367
	 D(4,7,10,14)     =         1.396293	      80.001678
	 D(5,7,10,8)      =         1.397981	      80.098410
	 D(5,7,10,9)      =        -2.791763	    -159.956243
	 D(5,7,10,14)     =        -0.697210	     -39.947198
	 D(6,7,10,8)      =        -0.695894	     -39.871789
	 D(6,7,10,9)      =         1.397547	      80.073559
	 D(6,7,10,14)     =        -2.791085	    -159.917396
	 D(7,10,14,11)    =         3.140991	     179.965514
	 D(7,10,14,12)    =         1.046835	      59.979223
	 D(7,10,14,13)    =        -1.047420	     -60.012732
	 D(8,10,14,11)    =         1.046047	      59.934077
	 D(8,10,14,12)    =        -1.048109	     -60.052214
	 D(8,10,14,13)    =         3.140822	     179.955831
	 D(9,10,14,11)    =        -1.047741	     -60.031115
	 D(9,10,14,12)    =         3.141289	     179.982594
	 D(9,10,14,13)    =         1.047034	      59.990639

	Current energy   :      -158.4469864638

	Generating empirical Hessian (Schlegel '84) for each fragment.
	Adding user-defined constraint: Fragment 1; Coordinate 49:
		Value =     1.396293; Fixed value    =     1.396263
		Force =    -0.000015; Force constant =     0.500000
	Removing off-diagonal coupling between coordinate 49 and others.
	Taking RFO optimization step.
	Going to follow RFO solution 1.
	Using RFO vector 1.

	Determining step-restricting scale parameter for RS-RFO.
	Maximum step size allowed    0.10000

	 Iter      |step|        alpha        rfo_root  
	------------------------------------------------
	    0     0.26344       1.00000           1
	    1     0.19314       6.26127           1
	    2     0.14284      19.74359           1
	    3     0.11416      39.33424           1
	    4     0.10239      53.38556           1
	    5     0.10009      56.79563           1
	    6     0.10000      56.93174           1
	------------------------------------------------
	Norm of target step-size    0.10000
	Projected energy change by RFO approximation:        -0.0079425032

	Back-transformation to cartesian coordinates...
	Successfully converged to displaced geometry.

	--- Internal Coordinate Step in ANG or DEG, aJ/ANG or AJ/DEG ---
	 ---------------------------------------------------------------------------
	   Coordinate                Previous        Force       Change         New 
	   ----------                --------       ------       ------       ------
	    1 R(1,4)          =      1.069698     0.186171     0.014762     1.084460
	    2 R(2,4)          =      1.070683     0.181233     0.014393     1.085076
	    3 R(3,4)          =      1.069320     0.183102     0.014510     1.083831
	    4 R(4,7)          =      1.540645     0.027906     0.002483     1.543128
	    5 R(5,7)          =      1.070326     0.188521     0.014963     1.085289
	    6 R(6,7)          =      1.069761     0.191443     0.015182     1.084943
	    7 R(7,10)         =      1.540128     0.058824     0.005230     1.545358
	    8 R(8,10)         =      1.069391     0.193974     0.015374     1.084765
	    9 R(9,10)         =      1.069454     0.194112     0.015386     1.084840
	   10 R(10,14)        =      1.539263     0.033241     0.002952     1.542215
	   11 R(11,14)        =      1.070127     0.184935     0.014674     1.084801
	   12 R(12,14)        =      1.069808     0.185815     0.014737     1.084545
	   13 R(13,14)        =      1.069886     0.179825     0.014263     1.084150
	   14 B(1,4,2)        =    109.484805    -0.000302    -0.378036   109.106769
	   15 B(1,4,3)        =    109.499161    -0.000275    -0.345537   109.153624
	   16 B(1,4,7)        =    109.457783     0.000181     0.218921   109.676704
	   17 B(2,4,3)        =    109.437340    -0.000373    -0.471892   108.965448
	   18 B(2,4,7)        =    109.467262     0.000414     0.523141   109.990404
	   19 B(3,4,7)        =    109.480971     0.000354     0.445040   109.926011
	   20 B(4,7,5)        =    109.431343    -0.000208    -0.224193   109.207150
	   21 B(4,7,6)        =    109.528316    -0.000329    -0.377619   109.150697
	   22 B(4,7,10)       =    109.501062     0.000994     1.171926   110.672989
	   23 B(5,7,6)        =    109.469614     0.000016    -0.074923   109.394690
	   24 B(5,7,10)       =    109.437654    -0.000297    -0.329441   109.108213
	   25 B(6,7,10)       =    109.459295    -0.000176    -0.170318   109.288976
	   26 B(7,10,8)       =    109.472088    -0.000182    -0.179196   109.292892
	   27 B(7,10,9)       =    109.461456    -0.000301    -0.334699   109.126757
	   28 B(7,10,14)      =    109.496745     0.001003     1.182467   110.679212
	   29 B(8,10,9)       =    109.431036     0.000020    -0.070104   109.360932
	   30 B(8,10,14)      =    109.495248    -0.000326    -0.373002   109.122246
	   31 B(9,10,14)      =    109.470727    -0.000213    -0.230627   109.240100
	   32 B(10,14,11)     =    109.494578     0.000415     0.523869   110.018447
	   33 B(10,14,12)     =    109.518044     0.000170     0.204794   109.722838
	   34 B(10,14,13)     =    109.552703     0.000345     0.433685   109.986389
	   35 B(11,14,12)     =    109.424922    -0.000296    -0.369507   109.055415
	   36 B(11,14,13)     =    109.436502    -0.000372    -0.471624   108.964878
	   37 B(12,14,13)     =    109.400434    -0.000264    -0.331621   109.068812
	   38 D(1,4,7,5)      =    179.965873     0.000034     0.219123   180.184995
	   39 D(1,4,7,6)      =    -60.025575    -0.000037    -0.236307   -60.261882
	   40 D(1,4,7,10)     =     60.013132     0.000007     0.042164    60.055297
	   41 D(2,4,7,5)      =    -60.028143     0.000033     0.213227   -59.814916
	   42 D(2,4,7,6)      =     59.980409    -0.000038    -0.242202    59.738207
	   43 D(2,4,7,10)     =   -179.980883     0.000006     0.036269  -179.944614
	   44 D(3,4,7,5)      =     59.933911     0.000036     0.233333    60.167244
	   45 D(3,4,7,6)      =    179.942463    -0.000035    -0.222096   179.720366
	   46 D(3,4,7,10)     =    -60.018830     0.000009     0.056375   -59.962455
	   47 D(4,7,10,8)     =   -159.952714     0.000027     0.162981  -159.789734
	   48 D(4,7,10,9)     =    -40.007367    -0.000035    -0.233429   -40.240796
	   49 D(4,7,10,14)    =     80.001678     0.000004     0.002814    80.004492
	   50 D(5,7,10,8)     =     80.098410    -0.000012    -0.076996    80.021414
	   51 D(5,7,10,9)     =   -159.956243    -0.000074    -0.473405  -160.429648
	   52 D(5,7,10,14)    =    -39.947198    -0.000035    -0.237162   -40.184360
	   53 D(6,7,10,8)     =    -39.871789     0.000050     0.316656   -39.555132
	   54 D(6,7,10,9)     =     80.073559    -0.000012    -0.079753    79.993806
	   55 D(6,7,10,14)    =   -159.917396     0.000026     0.156490  -159.760906
	   56 D(7,10,14,11)   =    179.965514     0.000006     0.039060   180.004573
	   57 D(7,10,14,12)   =     59.979223     0.000007     0.042191    60.021414
	   58 D(7,10,14,13)   =    -60.012732     0.000009     0.054461   -59.958271
	   59 D(8,10,14,11)   =     59.934077    -0.000038    -0.237191    59.696886
	   60 D(8,10,14,12)   =    -60.052214    -0.000037    -0.234060   -60.286273
	   61 D(8,10,14,13)   =    179.955831    -0.000035    -0.221790   179.734042
	   62 D(9,10,14,11)   =    -60.031115     0.000033     0.213255   -59.817861
	   63 D(9,10,14,12)   =    179.982594     0.000033     0.216386   180.198980
	   64 D(9,10,14,13)   =     59.990639     0.000035     0.228656    60.219295
	 ---------------------------------------------------------------------------
	 Forces used to impose fixed constraints are not included.
	  Forces zeroed: 49 

  ==> Convergence Check <==

  Measures of convergence in internal coordinates in au.
  Criteria marked as inactive (o), active & met (*), and active & unmet ( ).
  --------------------------------------------------------------------------------------------- ~
   Step     Total Energy     Delta E     MAX Force     RMS Force      MAX Disp      RMS Disp    ~
  --------------------------------------------------------------------------------------------- ~
    Convergence Criteria    1.00e-06 *    3.00e-04 *             o    1.20e-03 *             o  ~
  --------------------------------------------------------------------------------------------- ~
      1    -158.44698646   -1.58e+02      2.36e-02      9.66e-03 o    2.91e-02      1.25e-02 o  ~
  ---------------------------------------------------------------------------------------------

	Writing optimization data to binary file.
	Structure for next step:
	Cartesian Geometry (in Angstrom)
	    H    -2.0399643865   0.1286943697   0.8139331127
	    H    -1.9117126084   1.7863112625   0.2142236593
	    H    -1.6134596764   0.4288414206  -0.8742703913
	    C    -1.4980692909   0.7857329007   0.1425887642
	    H     0.5304265769   1.4657436602  -0.1469158935
	    H     0.0975740921   1.1673499744   1.5444064275
	    C    -0.0037498990   0.8038676826   0.5271973420
	    H     1.5087098573  -0.6586985876   1.0231128058
	    H    -0.1139716358  -1.3340150521   0.8116862713
	    C     0.6020745510  -0.6144052216   0.4291728391
	    H     1.3637811884  -1.9592891072  -1.0912616161
	    H     1.6581865109  -0.2493953644  -1.4241938548
	    H     0.0413932009  -0.9268629925  -1.6407976902
	    C     0.9396869224  -0.9624168613  -1.0348398998
			--------------------------
			 OPTKING Finished Execution 
			--------------------------

    Structure for next step:
    Molecular point group: c1
    Full point group: C1

    Geometry (in Angstrom), charge = 0, multiplicity = 1:

    H           -2.039904502504     0.128679949430     0.814048035252
    H           -1.911652724423     1.786296842283     0.214338581849
    H           -1.613399792451     0.428827000307    -0.874155468725
    C           -1.498009406896     0.785718480462     0.142703686752
    H            0.530486460916     1.465729239962    -0.146800970940
    H            0.097633976118     1.167335554119     1.544521350066
    C           -0.003690014989     0.803853262382     0.527312264601
    H            1.508769741291    -0.658713007870     1.023227728319
    H           -0.113911751847    -1.334029472301     0.811801193837
    C            0.602134435015    -0.614419641802     0.429287761691
    H            1.363841072378    -1.959303527470    -1.091146693552
    H            1.658246394876    -0.249409784668    -1.424078932207
    H            0.041453084925    -0.926877412748    -1.640682767611
    C            0.939746806348    -0.962431281504    -1.034724977250

gradient() will perform analytic gradient computation.

*** tstart() called on lski1497
*** at Tue Feb 21 20:27:08 2017


         ---------------------------------------------------------
                                   SCF
            by Justin Turney, Rob Parrish, and Andy Simmonett
                              RKS Reference
                        1 Threads,   1000 MiB Core
         ---------------------------------------------------------

  ==> Geometry <==

    Molecular point group: c1
    Full point group: C1

    Geometry (in Angstrom), charge = 0, multiplicity = 1:

       Center              X                  Y                   Z               Mass       
    ------------   -----------------  -----------------  -----------------  -----------------
           H         -2.039904502504     0.128679949430     0.814048035252     1.007825032070
           H         -1.911652724423     1.786296842283     0.214338581849     1.007825032070
           H         -1.613399792451     0.428827000307    -0.874155468725     1.007825032070
           C         -1.498009406896     0.785718480462     0.142703686752    12.000000000000
           H          0.530486460916     1.465729239962    -0.146800970940     1.007825032070
           H          0.097633976118     1.167335554119     1.544521350066     1.007825032070
           C         -0.003690014989     0.803853262382     0.527312264601    12.000000000000
           H          1.508769741291    -0.658713007870     1.023227728319     1.007825032070
           H         -0.113911751847    -1.334029472301     0.811801193837     1.007825032070
           C          0.602134435015    -0.614419641802     0.429287761691    12.000000000000
           H          1.363841072378    -1.959303527470    -1.091146693552     1.007825032070
           H          1.658246394876    -0.249409784668    -1.424078932207     1.007825032070
           H          0.041453084925    -0.926877412748    -1.640682767611     1.007825032070
           C          0.939746806348    -0.962431281504    -1.034724977250    12.000000000000

  Running in c1 symmetry.

  Rotational constants: A =      0.45866  B =      0.15394  C =      0.13702 [cm^-1]
  Rotational constants: A =  13750.17371  B =   4615.04412  C =   4107.85660 [MHz]
  Nuclear repulsion =  132.666634655289243

  Charge       = 0
  Multiplicity = 1
  Electrons    = 34
  Nalpha       = 17
  Nbeta        = 17

  ==> Algorithm <==

  SCF Algorithm Type is DF.
  DIIS enabled.
  MOM disabled.
  Fractional occupation disabled.
  Guess Type is READ.
  Energy threshold   = 1.00e-08
  Density threshold  = 1.00e-08
  Integral threshold = 0.00e+00

  ==> Primary Basis <==

  Basis Set: CC-PVDZ
    Number of shells: 54
    Number of basis function: 106
    Number of Cartesian functions: 110
    Spherical Harmonics?: true
    Max angular momentum: 2

  ==> DFT Potential <==

   => B3LYP Composite Functional <= 

    B3LYP Hybrid-GGA Exchange-Correlation Functional (VWN1-RPA)

    P.J. Stephens et. al., J. Phys. Chem., 98, 11623-11627, 1994

    Points   =           5000
    Deriv    =              1
    GGA      =           TRUE
    Meta     =          FALSE

    X_LRC        =          FALSE
    X_Hybrid     =           TRUE
    X_Alpha      =   2.000000E-01
    X_Omega      =   0.000000E+00
    C_LRC        =          FALSE
    C_Hybrid     =          FALSE
    C_Alpha      =   0.000000E+00
    C_Omega      =   0.000000E+00

   => Exchange Functionals <=

    0.8000    B3_X
    0.2000      HF 

   => Correlation Functionals <=

    0.1900 VWN3RPA_C
    0.8100   LYP_C

   => Molecular Quadrature <=

    Radial Scheme    =       TREUTLER
    Pruning Scheme   =           FLAT
    Nuclear Scheme   =       TREUTLER

    BS radius alpha  =              1
    Pruning alpha    =              1
    Radial Points    =             75
    Spherical Points =            302
    Total Points     =         312770
    Total Blocks     =            272
    Max Points       =           4841
    Max Functions    =            106

  ==> Pre-Iterations <==

   -------------------------------------------------------
    Irrep   Nso     Nmo     Nalpha   Nbeta   Ndocc  Nsocc
   -------------------------------------------------------
     A        106     106       0       0       0       0
   -------------------------------------------------------
    Total     106     106      17      17      17       0
   -------------------------------------------------------

  ==> Integral Setup <==

  ==> DFJK: Density-Fitted J/K Matrices <==

    J tasked:                  Yes
    K tasked:                  Yes
    wK tasked:                  No
    OpenMP threads:              1
    Integrals threads:           1
    Memory (MB):               715
    Algorithm:                Core
    Integral Cache:           NONE
    Schwarz Cutoff:          1E-12
    Fitting Condition:       1E-12

   => Auxiliary Basis Set <=

  Basis Set: 
    Number of shells: 186
    Number of basis function: 510
    Number of Cartesian functions: 574
    Spherical Harmonics?: true
    Max angular momentum: 3

  Minimum eigenvalue in the overlap matrix is 5.1466425206E-03.
  Using Symmetric Orthogonalization.
  SCF Guess was Projection but file not found.
  Switching over to SAD guess.

  SCF Guess: Superposition of Atomic Densities via on-the-fly atomic UHF.

  ==> Iterations <==

                           Total Energy        Delta E     RMS |[F,P]|

   @DF-RKS iter   0:  -158.99403496619504   -1.58994e+02   3.32169e-02 
   @DF-RKS iter   1:  -158.31837821730545    6.75657e-01   4.52628e-03 
   @DF-RKS iter   2:  -158.27192908360666    4.64491e-02   5.39226e-03 DIIS
   @DF-RKS iter   3:  -158.45209649988038   -1.80167e-01   3.66634e-04 DIIS
   @DF-RKS iter   4:  -158.45285455195113   -7.58052e-04   1.01846e-04 DIIS
   @DF-RKS iter   5:  -158.45290412592544   -4.95740e-05   4.43767e-05 DIIS
   @DF-RKS iter   6:  -158.45291484680772   -1.07209e-05   6.69263e-06 DIIS
   @DF-RKS iter   7:  -158.45291512079743   -2.73990e-07   8.99405e-07 DIIS
   @DF-RKS iter   8:  -158.45291512631621   -5.51879e-09   1.13689e-07 DIIS
   @DF-RKS iter   9:  -158.45291512640480   -8.85905e-11   2.78901e-08 DIIS
   @DF-RKS iter  10:  -158.45291512640864   -3.83693e-12   1.32900e-08 DIIS
   @DF-RKS iter  11:  -158.45291512640935   -7.10543e-13   2.38376e-09 DIIS

  ==> Post-Iterations <==

    Orbital Energies (a.u.)
    -----------------------

    Doubly Occupied:                                                      

       1A    -10.174702     2A    -10.174511     3A    -10.169654  
       4A    -10.169608     5A     -0.792357     6A     -0.717579  
       7A     -0.635631     8A     -0.569351     9A     -0.456729  
      10A     -0.452372    11A     -0.417523    12A     -0.383351  
      13A     -0.376148    14A     -0.358395    15A     -0.330047  
      16A     -0.319054    17A     -0.316309  

    Virtual:                                                              

      18A      0.061845    19A      0.095203    20A      0.096031  
      21A      0.104960    22A      0.133095    23A      0.144240  
      24A      0.150589    25A      0.157973    26A      0.159818  
      27A      0.201132    28A      0.215199    29A      0.243487  
      30A      0.259112    31A      0.405316    32A      0.413303  
      33A      0.429995    34A      0.434932    35A      0.444882  
      36A      0.470855    37A      0.531619    38A      0.592478  
      39A      0.604527    40A      0.629634    41A      0.634663  
      42A      0.649786    43A      0.658799    44A      0.663054  
      45A      0.671524    46A      0.689354    47A      0.691693  
      48A      0.696303    49A      0.710247    50A      0.729015  
      51A      0.754963    52A      0.798074    53A      0.889461  
      54A      0.901359    55A      0.963289    56A      1.115133  
      57A      1.132525    58A      1.185993    59A      1.195856  
      60A      1.253864    61A      1.374223    62A      1.386194  
      63A      1.430760    64A      1.432515    65A      1.450995  
      66A      1.475390    67A      1.564142    68A      1.585951  
      69A      1.621555    70A      1.630268    71A      1.638565  
      72A      1.656685    73A      1.669736    74A      1.673506  
      75A      1.684776    76A      1.694776    77A      1.707764  
      78A      1.719043    79A      1.738246    80A      1.742656  
      81A      1.787148    82A      1.837873    83A      1.879194  
      84A      1.893758    85A      1.981315    86A      2.000278  
      87A      2.024785    88A      2.028800    89A      2.093855  
      90A      2.146520    91A      2.223882    92A      2.240641  
      93A      2.266660    94A      2.280663    95A      2.313506  
      96A      2.346531    97A      2.457147    98A      2.461837  
      99A      2.475518   100A      2.505377   101A      2.507740  
     102A      2.565263   103A      2.624928   104A      2.631938  
     105A      2.690002   106A      2.742209  

    Final Occupation by Irrep:
              A 
    DOCC [    17 ]

  Energy converged.

  @DF-RKS Final Energy:  -158.45291512640935

   => Energetics <=

    Nuclear Repulsion Energy =            132.6666346552892435
    One-Electron Energy =                -473.7796391424533908
    Two-Electron Energy =                 203.2935781465962179
    DFT Exchange-Correlation Energy =     -20.6334887858413936
    Empirical Dispersion Energy =           0.0000000000000000
    PCM Polarization Energy =               0.0000000000000000
    EFP Energy =                            0.0000000000000000
    Total Energy =                       -158.4529151264093514


  Saving occupied orbitals to File 180.

*** tstop() called on lski1497 at Tue Feb 21 20:31:39 2017
Module time:
	user time   =     242.19 seconds =       4.04 minutes
	system time =       2.87 seconds =       0.05 minutes
	total time  =        271 seconds =       4.52 minutes
Total time:
	user time   =     542.42 seconds =       9.04 minutes
	system time =       6.95 seconds =       0.12 minutes
	total time  =        638 seconds =      10.63 minutes


Properties will be evaluated at   0.000000,   0.000000,   0.000000 Bohr

Properties computed using the SCF density matrix

  Nuclear Dipole Moment: (a.u.)
     X:    -0.4485      Y:    -0.1420      Z:    -0.7208

  Electronic Dipole Moment: (a.u.)
     X:     0.4630      Y:     0.1463      Z:     0.7437

  Dipole Moment: (a.u.)
     X:     0.0145      Y:     0.0043      Z:     0.0228     Total:     0.0274

  Dipole Moment: (Debye)
     X:     0.0367      Y:     0.0109      Z:     0.0581     Total:     0.0696


*** tstart() called on lski1497
*** at Tue Feb 21 20:31:39 2017


         ------------------------------------------------------------
                                   SCF GRAD                          
                          Rob Parrish, Justin Turney,                
                       Andy Simmonett, and Alex Sokolov              
         ------------------------------------------------------------

  ==> Geometry <==

    Molecular point group: c1
    Full point group: C1

    Geometry (in Angstrom), charge = 0, multiplicity = 1:

       Center              X                  Y                   Z               Mass       
    ------------   -----------------  -----------------  -----------------  -----------------
           H         -2.039904502504     0.128679949430     0.814048035252     1.007825032070
           H         -1.911652724423     1.786296842283     0.214338581849     1.007825032070
           H         -1.613399792451     0.428827000307    -0.874155468725     1.007825032070
           C         -1.498009406896     0.785718480462     0.142703686752    12.000000000000
           H          0.530486460916     1.465729239962    -0.146800970940     1.007825032070
           H          0.097633976118     1.167335554119     1.544521350066     1.007825032070
           C         -0.003690014989     0.803853262382     0.527312264601    12.000000000000
           H          1.508769741291    -0.658713007870     1.023227728319     1.007825032070
           H         -0.113911751847    -1.334029472301     0.811801193837     1.007825032070
           C          0.602134435015    -0.614419641802     0.429287761691    12.000000000000
           H          1.363841072378    -1.959303527470    -1.091146693552     1.007825032070
           H          1.658246394876    -0.249409784668    -1.424078932207     1.007825032070
           H          0.041453084925    -0.926877412748    -1.640682767611     1.007825032070
           C          0.939746806348    -0.962431281504    -1.034724977250    12.000000000000

  Nuclear repulsion =  132.666634655289243

  ==> Basis Set <==

  Basis Set: CC-PVDZ
    Number of shells: 54
    Number of basis function: 106
    Number of Cartesian functions: 110
    Spherical Harmonics?: true
    Max angular momentum: 2

  ==> DFJKGrad: Density-Fitted SCF Gradients <==

    Gradient:                    1
    J tasked:                  Yes
    K tasked:                  Yes
    wK tasked:                  No
    OpenMP threads:              1
    Integrals threads:           1
    Memory (MB):               715
    Schwarz Cutoff:          0E+00
    Fitting Condition:       1E-12

   => Auxiliary Basis Set <=

  Basis Set: 
    Number of shells: 186
    Number of basis function: 510
    Number of Cartesian functions: 574
    Spherical Harmonics?: true
    Max angular momentum: 3

  ==> DFT Potential <==

   => B3LYP Composite Functional <= 

    B3LYP Hybrid-GGA Exchange-Correlation Functional (VWN1-RPA)

    P.J. Stephens et. al., J. Phys. Chem., 98, 11623-11627, 1994

    Points   =           5000
    Deriv    =              1
    GGA      =           TRUE
    Meta     =          FALSE

    X_LRC        =          FALSE
    X_Hybrid     =           TRUE
    X_Alpha      =   2.000000E-01
    X_Omega      =   0.000000E+00
    C_LRC        =          FALSE
    C_Hybrid     =          FALSE
    C_Alpha      =   0.000000E+00
    C_Omega      =   0.000000E+00

   => Exchange Functionals <=

    0.8000    B3_X
    0.2000      HF 

   => Correlation Functionals <=

    0.1900 VWN3RPA_C
    0.8100   LYP_C

   => Molecular Quadrature <=

    Radial Scheme    =       TREUTLER
    Pruning Scheme   =           FLAT
    Nuclear Scheme   =       TREUTLER

    BS radius alpha  =              1
    Pruning alpha    =              1
    Radial Points    =             75
    Spherical Points =            302
    Total Points     =         312770
    Total Blocks     =            272
    Max Points       =           4841
    Max Functions    =            106


  -Total Gradient:
     Atom            X                  Y                   Z
    ------   -----------------  -----------------  -----------------
       1        0.008242312481     0.006590587444    -0.006184675698
       2        0.007418905785    -0.009290889720     0.000530356569
       3        0.004777026882     0.003481989429     0.010888401662
       4       -0.020341683369    -0.005678094118    -0.005493527704
       5       -0.007748340793    -0.009608157468     0.004105330209
       6       -0.001991765304    -0.006898404805    -0.010200102443
       7        0.015368453959     0.021734903434     0.002696837230
       8       -0.009322838025     0.003304480975    -0.007817316517
       9        0.005683220602     0.009072250860    -0.007877159543
      10       -0.000906013087    -0.017415927369     0.020368447562
      11       -0.004543982158     0.010423155491     0.004117539743
      12       -0.007998961549    -0.006533256715     0.006466360122
      13        0.007843136514     0.000611721077     0.009294936391
      14        0.003526434062     0.000207454660    -0.020885933754


*** tstop() called on lski1497 at Tue Feb 21 20:33:01 2017
Module time:
	user time   =      80.66 seconds =       1.34 minutes
	system time =       1.02 seconds =       0.02 minutes
	total time  =         82 seconds =       1.37 minutes
Total time:
	user time   =     623.14 seconds =      10.39 minutes
	system time =       7.97 seconds =       0.13 minutes
	total time  =        720 seconds =      12.00 minutes

			-----------------------------------------
			 OPTKING 2.0: for geometry optimizations 
			  - R.A. King,  Bethel University        
			-----------------------------------------

	Previous internal coordinate definitions found.
	---Fragment 1 Geometry and Gradient---
	 H          -3.8548608470        0.2431698632        1.5383278456
	 H          -3.6125001103        3.3756118240        0.4050412194
	 H          -3.0488837506        0.8103655890       -1.6519144335
	 C          -2.8308275235        1.4847927456        0.2696708861
	 H           1.0024741283        2.7698268485       -0.2774136311
	 H           0.1845014761        2.2059445025        2.9187223580
	 C          -0.0069731178        1.5190625169        0.9964757666
	 H           2.8511616086       -1.2447871850        1.9336201781
	 H          -0.2152620143       -2.5209503558        1.5340819307
	 C           1.1378691774       -1.1610848537        0.8112363018
	 H           2.5772861156       -3.7025470781       -2.0619684216
	 H           3.1336315472       -0.4713161879       -2.6911191735
	 H           0.0783349779       -1.7515444689       -3.1004411017
	 C           1.7758640983       -1.8187315438       -1.9553468299
	             0.0082423125        0.0065905874       -0.0061846757
	             0.0074189058       -0.0092908897        0.0005303566
	             0.0047770269        0.0034819894        0.0108884017
	            -0.0203416834       -0.0056780941       -0.0054935277
	            -0.0077483408       -0.0096081575        0.0041053302
	            -0.0019917653       -0.0068984048       -0.0102001024
	             0.0153684540        0.0217349034        0.0026968372
	            -0.0093228380        0.0033044810       -0.0078173165
	             0.0056832206        0.0090722509       -0.0078771595
	            -0.0009060131       -0.0174159274        0.0203684476
	            -0.0045439822        0.0104231555        0.0041175397
	            -0.0079989615       -0.0065332567        0.0064663601
	             0.0078431365        0.0006117211        0.0092949364
	             0.0035264341        0.0002074547       -0.0208859338

	---Fragment 1 Intrafragment Coordinates---
	 - Coordinate -           - BOHR/RAD -       - ANG/DEG -
	 R(1,4)           =         2.049332	       1.084460
	 R(2,4)           =         2.050496	       1.085076
	 R(3,4)           =         2.048143	       1.083831
	 R(4,7)           =         2.916089	       1.543128
	 R(5,7)           =         2.050900	       1.085289
	 R(6,7)           =         2.050244	       1.084943
	 R(7,10)          =         2.920303	       1.545358
	 R(8,10)          =         2.049908	       1.084765
	 R(9,10)          =         2.050050	       1.084840
	 R(10,14)         =         2.914364	       1.542215
	 R(11,14)         =         2.049977	       1.084801
	 R(12,14)         =         2.049493	       1.084545
	 R(13,14)         =         2.048746	       1.084150
	 B(1,4,2)         =         1.904272	     109.106769
	 B(1,4,3)         =         1.905090	     109.153624
	 B(1,4,7)         =         1.914220	     109.676704
	 B(2,4,3)         =         1.901806	     108.965448
	 B(2,4,7)         =         1.919695	     109.990404
	 B(3,4,7)         =         1.918571	     109.926011
	 B(4,7,5)         =         1.906024	     109.207150
	 B(4,7,6)         =         1.905039	     109.150697
	 B(4,7,10)        =         1.931608	     110.672989
	 B(5,7,6)         =         1.909298	     109.394690
	 B(5,7,10)        =         1.904298	     109.108213
	 B(6,7,10)        =         1.907452	     109.288976
	 B(7,10,8)        =         1.907521	     109.292892
	 B(7,10,9)        =         1.904621	     109.126757
	 B(7,10,14)       =         1.931717	     110.679212
	 B(8,10,9)        =         1.908708	     109.360932
	 B(8,10,14)       =         1.904542	     109.122246
	 B(9,10,14)       =         1.906599	     109.240100
	 B(10,14,11)      =         1.920184	     110.018447
	 B(10,14,12)      =         1.915025	     109.722838
	 B(10,14,13)      =         1.919625	     109.986389
	 B(11,14,12)      =         1.903376	     109.055415
	 B(11,14,13)      =         1.901796	     108.964878
	 B(12,14,13)      =         1.903610	     109.068812
	 D(1,4,7,5)       =        -3.138364	    -179.815005
	 D(1,4,7,6)       =        -1.051768	     -60.261882
	 D(1,4,7,10)      =         1.048163	      60.055297
	 D(2,4,7,5)       =        -1.043967	     -59.814916
	 D(2,4,7,6)       =         1.042628	      59.738207
	 D(2,4,7,10)      =        -3.140626	    -179.944614
	 D(3,4,7,5)       =         1.050117	      60.167244
	 D(3,4,7,6)       =         3.136712	     179.720366
	 D(3,4,7,10)      =        -1.046542	     -59.962455
	 D(4,7,10,8)      =        -2.788857	    -159.789734
	 D(4,7,10,9)      =        -0.702334	     -40.240796
	 D(4,7,10,14)     =         1.396342	      80.004492
	 D(5,7,10,8)      =         1.396637	      80.021414
	 D(5,7,10,9)      =        -2.800026	    -160.429648
	 D(5,7,10,14)     =        -0.701349	     -40.184360
	 D(6,7,10,8)      =        -0.690367	     -39.555132
	 D(6,7,10,9)      =         1.396155	      79.993806
	 D(6,7,10,14)     =        -2.788354	    -159.760906
	 D(7,10,14,11)    =        -3.141513	    -179.995427
	 D(7,10,14,12)    =         1.047571	      60.021414
	 D(7,10,14,13)    =        -1.046469	     -59.958271
	 D(8,10,14,11)    =         1.041907	      59.696886
	 D(8,10,14,12)    =        -1.052194	     -60.286273
	 D(8,10,14,13)    =         3.136951	     179.734042
	 D(9,10,14,11)    =        -1.044019	     -59.817861
	 D(9,10,14,12)    =        -3.138120	    -179.801020
	 D(9,10,14,13)    =         1.051025	      60.219295

	Current energy   :      -158.4529151264

	Energy change for the previous step:
		Projected    :        -0.0079425032
		Actual       :        -0.0059286626

	Performing BFGS update.
	Previous computed or guess Hessian on step 1.
	Steps to be used in Hessian update: 1
	Adding user-defined constraint: Fragment 1; Coordinate 49:
		Value =     1.396342; Fixed value    =     1.396260
		Force =    -0.000043; Force constant =     0.525000
	Removing off-diagonal coupling between coordinate 49 and others.
	Taking RFO optimization step.
	Going to follow RFO solution 1.
	Using RFO vector 1.

	Determining step-restricting scale parameter for RS-RFO.
	Maximum step size allowed    0.10000

	 Iter      |step|        alpha        rfo_root  
	------------------------------------------------
	    0     0.20789       1.00000           1
	    1     0.15746       6.06291           1
	    2     0.12382      16.54292           1
	    3     0.10637      28.52508           1
	    4     0.10064      34.37083           1
	    5     0.10001      35.10136           1
	------------------------------------------------
	Norm of target step-size    0.10001
	Projected energy change by RFO approximation:        -0.0047528897

	Back-transformation to cartesian coordinates...
	Successfully converged to displaced geometry.

	--- Internal Coordinate Step in ANG or DEG, aJ/ANG or AJ/DEG ---
	 ---------------------------------------------------------------------------
	   Coordinate                Previous        Force       Change         New 
	   ----------                --------       ------       ------       ------
	    1 R(1,4)          =      1.084460     0.098382     0.012273     1.096733
	    2 R(2,4)          =      1.085076     0.093592     0.011457     1.096533
	    3 R(3,4)          =      1.083831     0.097793     0.012303     1.096134
	    4 R(4,7)          =      1.543128    -0.000246    -0.002181     1.540946
	    5 R(5,7)          =      1.085289     0.100700     0.012684     1.097974
	    6 R(6,7)          =      1.084943     0.099370     0.012208     1.097150
	    7 R(7,10)         =      1.545358     0.017873     0.000511     1.545869
	    8 R(8,10)         =      1.084765     0.100578     0.012340     1.097105
	    9 R(9,10)         =      1.084840     0.103363     0.012974     1.097813
	   10 R(10,14)        =      1.542215     0.002985    -0.001679     1.540536
	   11 R(11,14)        =      1.084801     0.095308     0.011640     1.096441
	   12 R(12,14)        =      1.084545     0.098181     0.012248     1.096793
	   13 R(13,14)        =      1.084150     0.096170     0.012120     1.096270
	   14 B(1,4,2)        =    109.106769    -0.000237    -0.628497   108.478273
	   15 B(1,4,3)        =    109.153624    -0.000237    -0.666003   108.487621
	   16 B(1,4,7)        =    109.676704     0.000173     0.503458   110.180162
	   17 B(2,4,3)        =    108.965448    -0.000285    -0.746766   108.218682
	   18 B(2,4,7)        =    109.990404     0.000287     0.694997   110.685400
	   19 B(3,4,7)        =    109.926011     0.000288     0.790584   110.716596
	   20 B(4,7,5)        =    109.207150    -0.000117    -0.139519   109.067631
	   21 B(4,7,6)        =    109.150697    -0.000192    -0.341497   108.809200
	   22 B(4,7,10)       =    110.672989     0.000638     1.398232   112.071220
	   23 B(5,7,6)        =    109.394690    -0.000055    -0.508213   108.886477
	   24 B(5,7,10)       =    109.108213    -0.000175    -0.277460   108.830753
	   25 B(6,7,10)       =    109.288976    -0.000104    -0.164067   109.124910
	   26 B(7,10,8)       =    109.292892    -0.000108    -0.170333   109.122559
	   27 B(7,10,9)       =    109.126757    -0.000177    -0.281437   108.845320
	   28 B(7,10,14)      =    110.679212     0.000641     1.400773   112.079985
	   29 B(8,10,9)       =    109.360932    -0.000052    -0.501273   108.859658
	   30 B(8,10,14)      =    109.122246    -0.000189    -0.331910   108.790337
	   31 B(9,10,14)      =    109.240100    -0.000120    -0.148969   109.091130
	   32 B(10,14,11)     =    110.018447     0.000286     0.687507   110.705954
	   33 B(10,14,12)     =    109.722838     0.000163     0.478619   110.201457
	   34 B(10,14,13)     =    109.986389     0.000281     0.768348   110.754737
	   35 B(11,14,12)     =    109.055415    -0.000231    -0.609477   108.445938
	   36 B(11,14,13)     =    108.964878    -0.000283    -0.742367   108.222511
	   37 B(12,14,13)     =    109.068812    -0.000227    -0.635934   108.432878
	   38 D(1,4,7,5)      =   -179.815005     0.000029     0.479211  -179.335793
	   39 D(1,4,7,6)      =    -60.261882    -0.000029    -0.418766   -60.680648
	   40 D(1,4,7,10)     =     60.055297     0.000005     0.033752    60.089048
	   41 D(2,4,7,5)      =    -59.814916     0.000027     0.460299   -59.354617
	   42 D(2,4,7,6)      =     59.738207    -0.000030    -0.437678    59.300529
	   43 D(2,4,7,10)     =   -179.944614     0.000003     0.014839  -179.929775
	   44 D(3,4,7,5)      =     60.167244     0.000030     0.484082    60.651326
	   45 D(3,4,7,6)      =    179.720366    -0.000028    -0.413895   179.306471
	   46 D(3,4,7,10)     =    -59.962455     0.000005     0.038622   -59.923833
	   47 D(4,7,10,8)     =   -159.789734     0.000021     0.319019  -159.470715
	   48 D(4,7,10,9)     =    -40.240796    -0.000032    -0.554385   -40.795181
	   49 D(4,7,10,14)    =     80.004492    -0.000001    -0.042355    79.962138
	   50 D(5,7,10,8)     =     80.021414    -0.000011    -0.204567    79.816847
	   51 D(5,7,10,9)     =   -160.429648    -0.000064    -1.077972  -161.507619
	   52 D(5,7,10,14)    =    -40.184360    -0.000033    -0.565941   -40.750301
	   53 D(6,7,10,8)     =    -39.555132     0.000043     0.671213   -38.883919
	   54 D(6,7,10,9)     =     79.993806    -0.000011    -0.202192    79.791614
	   55 D(6,7,10,14)    =   -159.760906     0.000021     0.309839  -159.451067
	   56 D(7,10,14,11)   =   -179.995427     0.000004     0.022599  -179.972828
	   57 D(7,10,14,12)   =     60.021414     0.000005     0.037900    60.059314
	   58 D(7,10,14,13)   =    -59.958271     0.000005     0.034652   -59.923619
	   59 D(8,10,14,11)   =     59.696886    -0.000030    -0.429326    59.267560
	   60 D(8,10,14,12)   =    -60.286273    -0.000029    -0.414025   -60.700299
	   61 D(8,10,14,13)   =    179.734042    -0.000028    -0.417274   179.316768
	   62 D(9,10,14,11)   =    -59.817861     0.000027     0.459981   -59.357879
	   63 D(9,10,14,12)   =   -179.801020     0.000028     0.475282  -179.325737
	   64 D(9,10,14,13)   =     60.219295     0.000029     0.472034    60.691329
	 ---------------------------------------------------------------------------
	 Forces used to impose fixed constraints are not included.
	  Forces zeroed: 49 

  ==> Convergence Check <==

  Measures of convergence in internal coordinates in au.
  Criteria marked as inactive (o), active & met (*), and active & unmet ( ).
  ---------------------------------------------------------------------------------------------
   Step     Total Energy     Delta E     MAX Force     RMS Force      MAX Disp      RMS Disp   
  ---------------------------------------------------------------------------------------------
    Convergence Criteria    1.00e-06 *    3.00e-04 *             o    1.20e-03 *             o
  ---------------------------------------------------------------------------------------------
      2    -158.45291513   -5.93e-03      1.25e-02      5.30e-03 o    2.45e-02      1.25e-02 o  ~
  ---------------------------------------------------------------------------------------------

	Writing optimization data to binary file.
	Structure for next step:
	Cartesian Geometry (in Angstrom)
	    H    -2.0691131079   0.0972556800   0.8297934710
	    H    -1.9556851372   1.7800032936   0.2614443004
	    H    -1.6618452273   0.4408726753  -0.8680893454
	    C    -1.5221009472   0.7773948443   0.1657065777
	    H     0.5009271216   1.4879260273  -0.1309580210
	    H     0.0780809019   1.1458458650   1.5700235430
	    C    -0.0264591804   0.7935002089   0.5362622490
	    H     1.5356198608  -0.6342762067   1.0115343225
	    H    -0.0834926675  -1.3557557720   0.7983866953
	    C     0.6182366111  -0.6058788334   0.4105019770
	    H     1.4247824439  -1.9480582912  -1.1119677373
	    H     1.6807729507  -0.2201590703  -1.4510536487
	    H     0.0718972515  -0.9450817650  -1.6771900613
	    C     0.9701229048  -0.9523324553  -1.0487435301
			--------------------------
			 OPTKING Finished Execution 
			--------------------------

    Structure for next step:
    Molecular point group: c1
    Full point group: C1

    Geometry (in Angstrom), charge = 0, multiplicity = 1:

    H           -2.069040727086     0.097262693264     0.829954622934
    H           -1.955612756441     1.780010306856     0.261605452299
    H           -1.661772846528     0.440879688542    -0.867928193456
    C           -1.522028566403     0.777401857478     0.165867729609
    H            0.500999502423     1.487933040520    -0.130796869122
    H            0.078153282692     1.145852878197     1.570184694921
    C           -0.026386799614     0.793507222169     0.536423400956
    H            1.535692241589    -0.634269193430     1.011695474462
    H           -0.083420286731    -1.355748758766     0.798547847267
    C            0.618308991912    -0.605871820188     0.410663128910
    H            1.424854824669    -1.948051277979    -1.111806585345
    H            1.680845331511    -0.220152057067    -1.450892496790
    H            0.071969632302    -0.945074751730    -1.677028909405
    C            0.970195285626    -0.952325442097    -1.048582378213

gradient() will perform analytic gradient computation.

*** tstart() called on lski1497
*** at Tue Feb 21 20:33:02 2017


         ---------------------------------------------------------
                                   SCF
            by Justin Turney, Rob Parrish, and Andy Simmonett
                              RKS Reference
                        1 Threads,   1000 MiB Core
         ---------------------------------------------------------

  ==> Geometry <==

    Molecular point group: c1
    Full point group: C1

    Geometry (in Angstrom), charge = 0, multiplicity = 1:

       Center              X                  Y                   Z               Mass       
    ------------   -----------------  -----------------  -----------------  -----------------
           H         -2.069040727086     0.097262693264     0.829954622934     1.007825032070
           H         -1.955612756441     1.780010306856     0.261605452299     1.007825032070
           H         -1.661772846528     0.440879688542    -0.867928193456     1.007825032070
           C         -1.522028566403     0.777401857478     0.165867729609    12.000000000000
           H          0.500999502423     1.487933040520    -0.130796869122     1.007825032070
           H          0.078153282692     1.145852878197     1.570184694921     1.007825032070
           C         -0.026386799614     0.793507222169     0.536423400956    12.000000000000
           H          1.535692241589    -0.634269193430     1.011695474462     1.007825032070
           H         -0.083420286731    -1.355748758766     0.798547847267     1.007825032070
           C          0.618308991912    -0.605871820188     0.410663128910    12.000000000000
           H          1.424854824669    -1.948051277979    -1.111806585345     1.007825032070
           H          1.680845331511    -0.220152057067    -1.450892496790     1.007825032070
           H          0.071969632302    -0.945074751730    -1.677028909405     1.007825032070
           C          0.970195285626    -0.952325442097    -1.048582378213    12.000000000000

  Running in c1 symmetry.

  Rotational constants: A =      0.46228  B =      0.15025  C =      0.13414 [cm^-1]
  Rotational constants: A =  13858.76350  B =   4504.41463  C =   4021.49692 [MHz]
  Nuclear repulsion =  131.765350790836749

  Charge       = 0
  Multiplicity = 1
  Electrons    = 34
  Nalpha       = 17
  Nbeta        = 17

  ==> Algorithm <==

  SCF Algorithm Type is DF.
  DIIS enabled.
  MOM disabled.
  Fractional occupation disabled.
  Guess Type is READ.
  Energy threshold   = 1.00e-08
  Density threshold  = 1.00e-08
  Integral threshold = 0.00e+00

  ==> Primary Basis <==

  Basis Set: CC-PVDZ
    Number of shells: 54
    Number of basis function: 106
    Number of Cartesian functions: 110
    Spherical Harmonics?: true
    Max angular momentum: 2

  ==> DFT Potential <==

   => B3LYP Composite Functional <= 

    B3LYP Hybrid-GGA Exchange-Correlation Functional (VWN1-RPA)

    P.J. Stephens et. al., J. Phys. Chem., 98, 11623-11627, 1994

    Points   =           5000
    Deriv    =              1
    GGA      =           TRUE
    Meta     =          FALSE

    X_LRC        =          FALSE
    X_Hybrid     =           TRUE
    X_Alpha      =   2.000000E-01
    X_Omega      =   0.000000E+00
    C_LRC        =          FALSE
    C_Hybrid     =          FALSE
    C_Alpha      =   0.000000E+00
    C_Omega      =   0.000000E+00

   => Exchange Functionals <=

    0.8000    B3_X
    0.2000      HF 

   => Correlation Functionals <=

    0.1900 VWN3RPA_C
    0.8100   LYP_C

   => Molecular Quadrature <=

    Radial Scheme    =       TREUTLER
    Pruning Scheme   =           FLAT
    Nuclear Scheme   =       TREUTLER

    BS radius alpha  =              1
    Pruning alpha    =              1
    Radial Points    =             75
    Spherical Points =            302
    Total Points     =         312804
    Total Blocks     =            274
    Max Points       =           4901
    Max Functions    =            106

  ==> Pre-Iterations <==

   -------------------------------------------------------
    Irrep   Nso     Nmo     Nalpha   Nbeta   Ndocc  Nsocc
   -------------------------------------------------------
     A        106     106       0       0       0       0
   -------------------------------------------------------
    Total     106     106      17      17      17       0
   -------------------------------------------------------

  ==> Integral Setup <==

  ==> DFJK: Density-Fitted J/K Matrices <==

    J tasked:                  Yes
    K tasked:                  Yes
    wK tasked:                  No
    OpenMP threads:              1
    Integrals threads:           1
    Memory (MB):               715
    Algorithm:                Core
    Integral Cache:           NONE
    Schwarz Cutoff:          1E-12
    Fitting Condition:       1E-12

   => Auxiliary Basis Set <=

  Basis Set: 
    Number of shells: 186
    Number of basis function: 510
    Number of Cartesian functions: 574
    Spherical Harmonics?: true
    Max angular momentum: 3

  Minimum eigenvalue in the overlap matrix is 5.1865336173E-03.
  Using Symmetric Orthogonalization.
  SCF Guess was Projection but file not found.
  Switching over to SAD guess.

  SCF Guess: Superposition of Atomic Densities via on-the-fly atomic UHF.

  ==> Iterations <==

                           Total Energy        Delta E     RMS |[F,P]|

   @DF-RKS iter   0:  -158.94903738072821   -1.58949e+02   3.26865e-02 
   @DF-RKS iter   1:  -158.32711246159971    6.21925e-01   4.40832e-03 
   @DF-RKS iter   2:  -158.27922589014679    4.78866e-02   5.30740e-03 DIIS
   @DF-RKS iter   3:  -158.45492653963780   -1.75701e-01   3.62087e-04 DIIS
   @DF-RKS iter   4:  -158.45567361484626   -7.47075e-04   9.90106e-05 DIIS
   @DF-RKS iter   5:  -158.45572034195672   -4.67271e-05   4.42598e-05 DIIS
   @DF-RKS iter   6:  -158.45573103442365   -1.06925e-05   6.67620e-06 DIIS
   @DF-RKS iter   7:  -158.45573130726925   -2.72846e-07   8.97212e-07 DIIS
   @DF-RKS iter   8:  -158.45573131279514   -5.52589e-09   1.17962e-07 DIIS
   @DF-RKS iter   9:  -158.45573131289143   -9.62928e-11   2.95173e-08 DIIS
   @DF-RKS iter  10:  -158.45573131289567   -4.23483e-12   1.44298e-08 DIIS
   @DF-RKS iter  11:  -158.45573131289680   -1.13687e-12   2.39729e-09 DIIS

  ==> Post-Iterations <==

    Orbital Energies (a.u.)
    -----------------------

    Doubly Occupied:                                                      

       1A    -10.178465     2A    -10.178297     3A    -10.173696  
       4A    -10.173682     5A     -0.790164     6A     -0.716488  
       7A     -0.633847     8A     -0.566147     9A     -0.453703  
      10A     -0.450392    11A     -0.415506    12A     -0.382185  
      13A     -0.375003    14A     -0.357274    15A     -0.327583  
      16A     -0.318475    17A     -0.317991  

    Virtual:                                                              

      18A      0.059539    19A      0.092772    20A      0.094097  
      21A      0.102848    22A      0.131301    23A      0.141643  
      24A      0.148623    25A      0.153743    26A      0.156683  
      27A      0.198327    28A      0.208591    29A      0.243557  
      30A      0.261484    31A      0.400484    32A      0.412376  
      33A      0.429138    34A      0.431669    35A      0.444923  
      36A      0.472952    37A      0.532608    38A      0.588752  
      39A      0.603129    40A      0.625943    41A      0.631262  
      42A      0.642728    43A      0.652314    44A      0.656732  
      45A      0.666468    46A      0.683603    47A      0.683745  
      48A      0.686511    49A      0.706380    50A      0.719079  
      51A      0.750002    52A      0.792777    53A      0.890130  
      54A      0.897688    55A      0.962623    56A      1.112582  
      57A      1.130547    58A      1.172568    59A      1.193357  
      60A      1.248280    61A      1.367851    62A      1.379703  
      63A      1.425779    64A      1.427986    65A      1.446193  
      66A      1.465245    67A      1.561350    68A      1.584884  
      69A      1.611475    70A      1.623968    71A      1.635158  
      72A      1.649466    73A      1.659798    74A      1.662086  
      75A      1.680235    76A      1.682567    77A      1.701359  
      78A      1.711165    79A      1.724476    80A      1.725832  
      81A      1.780924    82A      1.817591    83A      1.873090  
      84A      1.875921    85A      1.976911    86A      1.984723  
      87A      2.018885    88A      2.034703    89A      2.080410  
      90A      2.130978    91A      2.206495    92A      2.221731  
      93A      2.249486    94A      2.261128    95A      2.289073  
      96A      2.319243    97A      2.429061    98A      2.429330  
      99A      2.446244   100A      2.488019   101A      2.490772  
     102A      2.541252   103A      2.603813   104A      2.612156  
     105A      2.673615   106A      2.722682  

    Final Occupation by Irrep:
              A 
    DOCC [    17 ]

  Energy converged.

  @DF-RKS Final Energy:  -158.45573131289680

   => Energetics <=

    Nuclear Repulsion Energy =            131.7653507908367487
    One-Electron Energy =                -472.0162701503855942
    Two-Electron Energy =                 202.3930498567521283
    DFT Exchange-Correlation Energy =     -20.5978618101000919
    Empirical Dispersion Energy =           0.0000000000000000
    PCM Polarization Energy =               0.0000000000000000
    EFP Energy =                            0.0000000000000000
    Total Energy =                       -158.4557313128968019


  Saving occupied orbitals to File 180.

*** tstop() called on lski1497 at Tue Feb 21 20:34:56 2017
Module time:
	user time   =     116.96 seconds =       1.95 minutes
	system time =       1.21 seconds =       0.02 minutes
	total time  =        114 seconds =       1.90 minutes
Total time:
	user time   =     741.61 seconds =      12.36 minutes
	system time =       9.21 seconds =       0.15 minutes
	total time  =        835 seconds =      13.92 minutes


Properties will be evaluated at   0.000000,   0.000000,   0.000000 Bohr

Properties computed using the SCF density matrix

  Nuclear Dipole Moment: (a.u.)
     X:    -0.4475      Y:    -0.1419      Z:    -0.7185

  Electronic Dipole Moment: (a.u.)
     X:     0.4608      Y:     0.1460      Z:     0.7396

  Dipole Moment: (a.u.)
     X:     0.0133      Y:     0.0041      Z:     0.0211     Total:     0.0253

  Dipole Moment: (Debye)
     X:     0.0338      Y:     0.0105      Z:     0.0536     Total:     0.0643


*** tstart() called on lski1497
*** at Tue Feb 21 20:34:56 2017


         ------------------------------------------------------------
                                   SCF GRAD                          
                          Rob Parrish, Justin Turney,                
                       Andy Simmonett, and Alex Sokolov              
         ------------------------------------------------------------

  ==> Geometry <==

    Molecular point group: c1
    Full point group: C1

    Geometry (in Angstrom), charge = 0, multiplicity = 1:

       Center              X                  Y                   Z               Mass       
    ------------   -----------------  -----------------  -----------------  -----------------
           H         -2.069040727086     0.097262693264     0.829954622934     1.007825032070
           H         -1.955612756441     1.780010306856     0.261605452299     1.007825032070
           H         -1.661772846528     0.440879688542    -0.867928193456     1.007825032070
           C         -1.522028566403     0.777401857478     0.165867729609    12.000000000000
           H          0.500999502423     1.487933040520    -0.130796869122     1.007825032070
           H          0.078153282692     1.145852878197     1.570184694921     1.007825032070
           C         -0.026386799614     0.793507222169     0.536423400956    12.000000000000
           H          1.535692241589    -0.634269193430     1.011695474462     1.007825032070
           H         -0.083420286731    -1.355748758766     0.798547847267     1.007825032070
           C          0.618308991912    -0.605871820188     0.410663128910    12.000000000000
           H          1.424854824669    -1.948051277979    -1.111806585345     1.007825032070
           H          1.680845331511    -0.220152057067    -1.450892496790     1.007825032070
           H          0.071969632302    -0.945074751730    -1.677028909405     1.007825032070
           C          0.970195285626    -0.952325442097    -1.048582378213    12.000000000000

  Nuclear repulsion =  131.765350790836749

  ==> Basis Set <==

  Basis Set: CC-PVDZ
    Number of shells: 54
    Number of basis function: 106
    Number of Cartesian functions: 110
    Spherical Harmonics?: true
    Max angular momentum: 2

  ==> DFJKGrad: Density-Fitted SCF Gradients <==

    Gradient:                    1
    J tasked:                  Yes
    K tasked:                  Yes
    wK tasked:                  No
    OpenMP threads:              1
    Integrals threads:           1
    Memory (MB):               715
    Schwarz Cutoff:          0E+00
    Fitting Condition:       1E-12

   => Auxiliary Basis Set <=

  Basis Set: 
    Number of shells: 186
    Number of basis function: 510
    Number of Cartesian functions: 574
    Spherical Harmonics?: true
    Max angular momentum: 3

  ==> DFT Potential <==

   => B3LYP Composite Functional <= 

    B3LYP Hybrid-GGA Exchange-Correlation Functional (VWN1-RPA)

    P.J. Stephens et. al., J. Phys. Chem., 98, 11623-11627, 1994

    Points   =           5000
    Deriv    =              1
    GGA      =           TRUE
    Meta     =          FALSE

    X_LRC        =          FALSE
    X_Hybrid     =           TRUE
    X_Alpha      =   2.000000E-01
    X_Omega      =   0.000000E+00
    C_LRC        =          FALSE
    C_Hybrid     =          FALSE
    C_Alpha      =   0.000000E+00
    C_Omega      =   0.000000E+00

   => Exchange Functionals <=

    0.8000    B3_X
    0.2000      HF 

   => Correlation Functionals <=

    0.1900 VWN3RPA_C
    0.8100   LYP_C

   => Molecular Quadrature <=

    Radial Scheme    =       TREUTLER
    Pruning Scheme   =           FLAT
    Nuclear Scheme   =       TREUTLER

    BS radius alpha  =              1
    Pruning alpha    =              1
    Radial Points    =             75
[...]
    Number of basis function: 106
    Number of Cartesian functions: 110
    Spherical Harmonics?: true
    Max angular momentum: 2

  ==> DFJKGrad: Density-Fitted SCF Gradients <==

    Gradient:                    1
    J tasked:                  Yes
    K tasked:                  Yes
    wK tasked:                  No
    OpenMP threads:              1
    Integrals threads:           1
    Memory (MB):               715
    Schwarz Cutoff:          0E+00
    Fitting Condition:       1E-12

   => Auxiliary Basis Set <=

  Basis Set: 
    Number of shells: 186
    Number of basis function: 510
    Number of Cartesian functions: 574
    Spherical Harmonics?: true
    Max angular momentum: 3

  ==> DFT Potential <==

   => B3LYP Composite Functional <= 

    B3LYP Hybrid-GGA Exchange-Correlation Functional (VWN1-RPA)

    P.J. Stephens et. al., J. Phys. Chem., 98, 11623-11627, 1994

    Points   =           5000
    Deriv    =              1
    GGA      =           TRUE
    Meta     =          FALSE

    X_LRC        =          FALSE
    X_Hybrid     =           TRUE
    X_Alpha      =   2.000000E-01
    X_Omega      =   0.000000E+00
    C_LRC        =          FALSE
    C_Hybrid     =          FALSE
    C_Alpha      =   0.000000E+00
    C_Omega      =   0.000000E+00

   => Exchange Functionals <=

    0.8000    B3_X
    0.2000      HF 

   => Correlation Functionals <=

    0.1900 VWN3RPA_C
    0.8100   LYP_C

   => Molecular Quadrature <=

    Radial Scheme    =       TREUTLER
    Pruning Scheme   =           FLAT
    Nuclear Scheme   =       TREUTLER

    BS radius alpha  =              1
    Pruning alpha    =              1
    Radial Points    =             75
    Spherical Points =            302
    Total Points     =         312812
    Total Blocks     =            269
    Max Points       =           4929
    Max Functions    =            106


  -Total Gradient:
     Atom            X                  Y                   Z
    ------   -----------------  -----------------  -----------------
       1       -0.000005265188     0.000004133536    -0.000002271505
       2       -0.000004413834     0.000000398903     0.000000367217
       3        0.000005644192     0.000001768562     0.000005372852
       4       -0.000379497055    -0.000374976378     0.001681838993
       5       -0.000001560557     0.000004042503    -0.000002197745
       6        0.000003283432    -0.000001246514    -0.000015554518
       7        0.001174914873     0.000834250426    -0.002249985507
       8       -0.000015321357    -0.000002664596    -0.000003710609
       9       -0.000000607697    -0.000004905647    -0.000000963684
      10       -0.002355311825    -0.001208263025     0.000361081498
      11        0.000002421805    -0.000001012493    -0.000003344250
      12        0.000001079100    -0.000005517903    -0.000004083491
      13        0.000002595548     0.000000803177     0.000007896182
      14        0.001577288031     0.000754854569     0.000233954387


*** tstop() called on lski1497 at Tue Feb 21 20:45:06 2017
Module time:
	user time   =      65.67 seconds =       1.09 minutes
	system time =       0.78 seconds =       0.01 minutes
	total time  =         63 seconds =       1.05 minutes
Total time:
	user time   =    1387.81 seconds =      23.13 minutes
	system time =      17.41 seconds =       0.29 minutes
	total time  =       1445 seconds =      24.08 minutes

			-----------------------------------------
			 OPTKING 2.0: for geometry optimizations 
			  - R.A. King,  Bethel University        
			-----------------------------------------

	Previous internal coordinate definitions found.
	---Fragment 1 Geometry and Gradient---
	 H          -3.9701811454        0.2134226429        1.5853289304
	 H          -3.7161602354        3.4012975858        0.5419737914
	 H          -3.2329451858        0.8833831772       -1.6246150158
	 C          -2.8976456747        1.4964444464        0.3395666260
	 H           0.9439994106        2.8652403557       -0.1653774302
	 H           0.1313408971        2.1325630776        2.9831689846
	 C          -0.0816474520        1.4773148192        1.0127060475
	 H           2.9175943883       -1.1656689277        1.8955807962
	 H          -0.0764817597       -2.5901279245        1.5535366204
	 C           1.1782335497       -1.1295581431        0.7419958678
	 H           2.7490706362       -3.7079871478       -2.0894579924
	 H           3.2240907482       -0.4500277063       -2.7791837001
	 H           0.1996982405       -1.8453067403       -3.2290321988
	 C           1.8707652920       -1.8220951852       -1.9827294196
	            -0.0000052652        0.0000041335       -0.0000022715
	            -0.0000044138        0.0000003989        0.0000003672
	             0.0000056442        0.0000017686        0.0000053729
	            -0.0003794971       -0.0003749764        0.0016818390
	            -0.0000015606        0.0000040425       -0.0000021977
	             0.0000032834       -0.0000012465       -0.0000155545
	             0.0011749149        0.0008342504       -0.0022499855
	            -0.0000153214       -0.0000026646       -0.0000037106
	            -0.0000006077       -0.0000049056       -0.0000009637
	            -0.0023553118       -0.0012082630        0.0003610815
	             0.0000024218       -0.0000010125       -0.0000033443
	             0.0000010791       -0.0000055179       -0.0000040835
	             0.0000025955        0.0000008032        0.0000078962
	             0.0015772880        0.0007548546        0.0002339544

	---Fragment 1 Intrafragment Coordinates---
	 - Coordinate -           - BOHR/RAD -       - ANG/DEG -
	 R(1,4)           =         2.085282	       1.103484
	 R(2,4)           =         2.083123	       1.102341
	 R(3,4)           =         2.084773	       1.103214
	 R(4,7)           =         2.895398	       1.532179
	 R(5,7)           =         2.089538	       1.105736
	 R(6,7)           =         2.087448	       1.104630
	 R(7,10)          =         2.907984	       1.538839
	 R(8,10)          =         2.087448	       1.104630
	 R(9,10)          =         2.089539	       1.105736
	 R(10,14)         =         2.895399	       1.532179
	 R(11,14)         =         2.083123	       1.102341
	 R(12,14)         =         2.085281	       1.103483
	 R(13,14)         =         2.084772	       1.103214
	 B(1,4,2)         =         1.878087	     107.606462
	 B(1,4,3)         =         1.874647	     107.409390
	 B(1,4,7)         =         1.936148	     110.933099
	 B(2,4,3)         =         1.872607	     107.292504
	 B(2,4,7)         =         1.945077	     111.444731
	 B(3,4,7)         =         1.953594	     111.932705
	 B(4,7,5)         =         1.919760	     109.994133
	 B(4,7,6)         =         1.892958	     108.458517
	 B(4,7,10)        =         1.988484	     113.931759
	 B(5,7,6)         =         1.847953	     105.879888
	 B(5,7,10)        =         1.907421	     109.287157
	 B(6,7,10)        =         1.901877	     108.969540
	 B(7,10,8)        =         1.901878	     108.969574
	 B(7,10,9)        =         1.907421	     109.287171
	 B(7,10,14)       =         1.988485	     113.931815
	 B(8,10,9)        =         1.847952	     105.879826
	 B(8,10,14)       =         1.892957	     108.458458
	 B(9,10,14)       =         1.919760	     109.994139
	 B(10,14,11)      =         1.945074	     111.444559
	 B(10,14,12)      =         1.936146	     110.932993
	 B(10,14,13)      =         1.953594	     111.932681
	 B(11,14,12)      =         1.878088	     107.606504
	 B(11,14,13)      =         1.872610	     107.292625
	 B(12,14,13)      =         1.874650	     107.409548
	 D(1,4,7,5)       =        -3.075707	    -176.225025
	 D(1,4,7,6)       =        -1.062173	     -60.858038
	 D(1,4,7,10)      =         1.059068	      60.680098
	 D(2,4,7,5)       =        -0.983396	     -56.344415
	 D(2,4,7,6)       =         1.030138	      59.022571
	 D(2,4,7,10)      =        -3.131806	    -179.439292
	 D(3,4,7,5)       =         1.113820	      63.817168
	 D(3,4,7,6)       =         3.127353	     179.184154
	 D(3,4,7,10)      =        -1.034591	     -59.277709
	 D(4,7,10,8)      =        -2.775561	    -159.027937
	 D(4,7,10,9)      =        -0.763785	     -43.761649
	 D(4,7,10,14)     =         1.391334	      79.717582
	 D(5,7,10,8)      =         1.352506	      77.492891
	 D(5,7,10,9)      =        -2.918903	    -167.240821
	 D(5,7,10,14)     =        -0.763784	     -43.761590
	 D(6,7,10,8)      =        -0.659271	     -37.773445
	 D(6,7,10,9)      =         1.352505	      77.492844
	 D(6,7,10,14)     =        -2.775561	    -159.027925
	 D(7,10,14,11)    =        -3.131808	    -179.439406
	 D(7,10,14,12)    =         1.059068	      60.680116
	 D(7,10,14,13)    =        -1.034593	     -59.277804
	 D(8,10,14,11)    =         1.030136	      59.022418
	 D(8,10,14,12)    =        -1.062174	     -60.858060
	 D(8,10,14,13)    =         3.127351	     179.184020
	 D(9,10,14,11)    =        -0.983396	     -56.344466
	 D(9,10,14,12)    =        -3.075705	    -176.224944
	 D(9,10,14,13)    =         1.113819	      63.817136

	Current energy   :      -158.4568718962

	Energy change for the previous step:
		Projected    :        -0.0000019529
		Actual       :        -0.0000007785

	Performing BFGS update.
	Previous computed or guess Hessian on step 1.
	Denominators (dg)(dq) or (dq)(dq) are very small.
	 Skipping Hessian update for step 6.
	Steps to be used in Hessian update: 5 4
	Adding user-defined constraint: Fragment 1; Coordinate 49:
		Value =     1.391334; Fixed value    =     1.396260
		Force =     0.003202; Force constant =     0.650000
	Removing off-diagonal coupling between coordinate 49 and others.
	Taking RFO optimization step.
	Going to follow RFO solution 1.
	Using RFO vector 1.
	Norm of target step-size    0.00105
	Projected energy change by RFO approximation:        -0.0000000573

	Back-transformation to cartesian coordinates...
	Successfully converged to displaced geometry.

	--- Internal Coordinate Step in ANG or DEG, aJ/ANG or AJ/DEG ---
	 ---------------------------------------------------------------------------
	   Coordinate                Previous        Force       Change         New 
	   ----------                --------       ------       ------       ------
	    1 R(1,4)          =      1.103484     0.000012     0.000012     1.103496
	    2 R(2,4)          =      1.102341    -0.000018     0.000004     1.102345
	    3 R(3,4)          =      1.103214     0.000048     0.000016     1.103231
	    4 R(4,7)          =      1.532179     0.000160     0.000041     1.532219
	    5 R(5,7)          =      1.105736    -0.000027     0.000007     1.105743
	    6 R(6,7)          =      1.104630     0.000127     0.000020     1.104650
	    7 R(7,10)         =      1.538839    -0.000185    -0.000023     1.538816
	    8 R(8,10)         =      1.104630     0.000127     0.000020     1.104650
	    9 R(9,10)         =      1.105736    -0.000030     0.000007     1.105744
	   10 R(10,14)        =      1.532179     0.000159     0.000041     1.532220
	   11 R(11,14)        =      1.102341    -0.000018     0.000005     1.102346
	   12 R(12,14)        =      1.103483     0.000014     0.000012     1.103496
	   13 R(13,14)        =      1.103214     0.000051     0.000016     1.103230
	   14 B(1,4,2)        =    107.606462     0.000001     0.001281   107.607743
	   15 B(1,4,3)        =    107.409390     0.000000    -0.000190   107.409200
	   16 B(1,4,7)        =    110.933099    -0.000001    -0.002869   110.930229
	   17 B(2,4,3)        =    107.292504    -0.000000     0.000269   107.292773
	   18 B(2,4,7)        =    111.444731    -0.000000    -0.001717   111.443014
	   19 B(3,4,7)        =    111.932705     0.000001     0.003312   111.936018
	   20 B(4,7,5)        =    109.994133     0.000002     0.004269   109.998402
	   21 B(4,7,6)        =    108.458517    -0.000002    -0.005127   108.453390
	   22 B(4,7,10)       =    113.931759     0.000000    -0.000200   113.931558
	   23 B(5,7,6)        =    105.879888     0.000000     0.002872   105.882760
	   24 B(5,7,10)       =    109.287157    -0.000000    -0.000091   109.287065
	   25 B(6,7,10)       =    108.969540    -0.000000    -0.001581   108.967959
	   26 B(7,10,8)       =    108.969574    -0.000000    -0.001606   108.967968
	   27 B(7,10,9)       =    109.287171    -0.000000    -0.000096   109.287075
	   28 B(7,10,14)      =    113.931815     0.000000    -0.000228   113.931587
	   29 B(8,10,9)       =    105.879826     0.000000     0.002898   105.882724
	   30 B(8,10,14)      =    108.458458    -0.000002    -0.005090   108.453368
	   31 B(9,10,14)      =    109.994139     0.000002     0.004267   109.998406
	   32 B(10,14,11)     =    111.444559    -0.000000    -0.001601   111.442958
	   33 B(10,14,12)     =    110.932993    -0.000001    -0.002832   110.930161
	   34 B(10,14,13)     =    111.932681     0.000001     0.003330   111.936011
	   35 B(11,14,12)     =    107.606504     0.000001     0.001259   107.607764
	   36 B(11,14,13)     =    107.292625    -0.000000     0.000199   107.292824
	   37 B(12,14,13)     =    107.409548     0.000000    -0.000282   107.409267
	   38 D(1,4,7,5)      =   -176.225025     0.000000    -0.012538  -176.237563
	   39 D(1,4,7,6)      =    -60.858038     0.000000    -0.009671   -60.867709
	   40 D(1,4,7,10)     =     60.680098    -0.000000    -0.015547    60.664552
	   41 D(2,4,7,5)      =    -56.344415     0.000000    -0.013993   -56.358408
	   42 D(2,4,7,6)      =     59.022571     0.000000    -0.011126    59.011445
	   43 D(2,4,7,10)     =   -179.439292    -0.000000    -0.017002  -179.456294
	   44 D(3,4,7,5)      =     63.817168     0.000000    -0.012561    63.804607
	   45 D(3,4,7,6)      =    179.184154     0.000000    -0.009694   179.174460
	   46 D(3,4,7,10)     =    -59.277709    -0.000000    -0.015570   -59.293279
	   47 D(4,7,10,8)     =   -159.027937     0.000000    -0.000698  -159.028635
	   48 D(4,7,10,9)     =    -43.761649     0.000000     0.001821   -43.759828
	   49 D(4,7,10,14)    =     79.717582     0.000001     0.007158    79.724740
	   50 D(5,7,10,8)     =     77.492891    -0.000000    -0.006060    77.486831
	   51 D(5,7,10,9)     =   -167.240821    -0.000000    -0.003541  -167.244362
	   52 D(5,7,10,14)    =    -43.761590     0.000000     0.001795   -43.759795
	   53 D(6,7,10,8)     =    -37.773445    -0.000000    -0.008564   -37.782008
	   54 D(6,7,10,9)     =     77.492844    -0.000000    -0.006045    77.486799
	   55 D(6,7,10,14)    =   -159.027925     0.000000    -0.000709  -159.028634
	   56 D(7,10,14,11)   =   -179.439406    -0.000000    -0.016987  -179.456393
	   57 D(7,10,14,12)   =     60.680116    -0.000000    -0.015606    60.664510
	   58 D(7,10,14,13)   =    -59.277804    -0.000000    -0.015551   -59.293355
	   59 D(8,10,14,11)   =     59.022418     0.000000    -0.011088    59.011331
	   60 D(8,10,14,12)   =    -60.858060     0.000000    -0.009707   -60.867767
	   61 D(8,10,14,13)   =    179.184020     0.000000    -0.009652   179.174368
	   62 D(9,10,14,11)   =    -56.344466     0.000000    -0.014005   -56.358471
	   63 D(9,10,14,12)   =   -176.224944     0.000000    -0.012625  -176.237568
	   64 D(9,10,14,13)   =     63.817136     0.000000    -0.012569    63.804567
	 ---------------------------------------------------------------------------
	 Forces used to impose fixed constraints are not included.
	  Forces zeroed: 49 

  ==> Convergence Check <==

  Measures of convergence in internal coordinates in au.
  Criteria marked as inactive (o), active & met (*), and active & unmet ( ).
  ---------------------------------------------------------------------------------------------
   Step     Total Energy     Delta E     MAX Force     RMS Force      MAX Disp      RMS Disp   
  ---------------------------------------------------------------------------------------------
    Convergence Criteria    1.00e-06 *    3.00e-04 *             o    1.20e-03 *             o
  ---------------------------------------------------------------------------------------------
      7    -158.45687190   -7.78e-07 *    2.25e-05 *    1.04e-05 o    2.97e-04 *    1.32e-04 o  ~
  ---------------------------------------------------------------------------------------------


  **** Optimization is complete! (in 7 steps) ****

  ==> Optimization Summary <==

  Measures of convergence in internal coordinates in au.
  --------------------------------------------------------------------------------------------------------------- ~
   Step         Total Energy             Delta E       MAX Force       RMS Force        MAX Disp        RMS Disp  ~
  --------------------------------------------------------------------------------------------------------------- ~
      1    -158.446986463784   -158.446986463784      0.02356088      0.00966176      0.02907534      0.01250021  ~
      2    -158.452915126409     -0.005928662625      0.01254603      0.00530262      0.02451665      0.01250388  ~
      3    -158.455731312897     -0.002816186487      0.00421027      0.00204875      0.03864137      0.01251761  ~
      4    -158.456629076946     -0.000897764049      0.00156509      0.00062237      0.04681752      0.01252386  ~
      5    -158.456854730422     -0.000225653476      0.00069103      0.00017045      0.01331469      0.00585749  ~
      6    -158.456871117764     -0.000016387343      0.00005138      0.00002150      0.00176221      0.00058826  ~
      7    -158.456871896245     -0.000000778480      0.00004764      0.00001195      0.00029674      0.00013152  ~
  --------------------------------------------------------------------------------------------------------------- ~

	Writing optimization data to binary file.
	Final energy is   -158.4568718962447
	Final (previous) structure:
	Cartesian Geometry (in Angstrom)
	    H    -2.1009293761   0.1129383984   0.8389199381
	    H    -1.9665073000   1.7998891620   0.2868001781
	    H    -1.7108009089   0.4674662438  -0.8597092391
	    C    -1.5333680496   0.7918842949   0.1796909193
	    H     0.4995429730   1.5162198934  -0.0875139669
	    H     0.0695026093   1.1285037765   1.5786250360
	    C    -0.0432059708   0.7817613322   0.5359009593
	    H     1.5439244542  -0.6168454293   1.0030981544
	    H    -0.0404724041  -1.3706366650   0.8220961722
	    C     0.6234943409  -0.5977364251   0.3926473021
	    H     1.4547455255  -1.9621822883  -1.1056935479
	    H     1.7061153424  -0.2381444054  -1.4706806726
	    H     0.1056757575  -0.9764942698  -1.7087302454
	    C     0.9899663551  -0.9642112439  -1.0492152196
	Saving final (previous) structure.
			--------------------------
			 OPTKING Finished Execution 
			--------------------------

    Final optimized geometry and variables:
    Molecular point group: c1
    Full point group: C1

    Geometry (in Angstrom), charge = 0, multiplicity = 1:

    H           -2.100929376103     0.112938398408     0.838919938112
    H           -1.966507300029     1.799889162035     0.286800178070
    H           -1.710800908924     0.467466243831    -0.859709239072
    C           -1.533368049642     0.791884294936     0.179690919286
    H            0.499542972996     1.516219893384    -0.087513966875
    H            0.069502609293     1.128503776538     1.578625036018
    C           -0.043205970759     0.781761332247     0.535900959345
    H            1.543924454181    -0.616845429276     1.003098154399
    H           -0.040472404099    -1.370636664991     0.822096172204
    C            0.623494340894    -0.597736425123     0.392647302104
    H            1.454745525481    -1.962182288345    -1.105693547886
    H            1.706115342391    -0.238144405433    -1.470680672562
    H            0.105675757457    -0.976494269847    -1.708730245409
    C            0.989966355130    -0.964211243906    -1.049215219640

	Cleaning optimization helper files.

*** Psi4 exiting successfully. Buy a developer a beer!
