    -----------------------------------------------------------------------
          Psi4: An Open-Source Ab Initio Electronic Structure Package
                              Psi4 1.0.0 Driver

                          Git: Rev {master} 6a9a71b 

    J. M. Turney, A. C. Simmonett, R. M. Parrish, E. G. Hohenstein,
    F. A. Evangelista, J. T. Fermann, B. J. Mintz, L. A. Burns, J. J. Wilke,
    M. L. Abrams, N. J. Russ, M. L. Leininger, C. L. Janssen, E. T. Seidl,
    W. D. Allen, H. F. Schaefer, R. A. King, E. F. Valeev, C. D. Sherrill,
    and T. D. Crawford, WIREs Comput. Mol. Sci. 2, 556-565 (2012)
    (doi: 10.1002/wcms.93)

                         Additional Contributions by
    A. E. DePrince, U. Bozkaya, A. Yu. Sokolov, D. G. A. Smith, R. Di Remigio,
    R. M. Richard, J. F. Gonthier, H. R. McAlexander, M. Saitow, and
    B. P. Pritchard
    -----------------------------------------------------------------------


    Psi4 started on: Tue Feb 21 19:03:36 2017

    Process ID:  43181
    PSI4DATADIR: /Users/sternc1/anaconda/share/psi4
    Memory level set to 256.000 MB

  ==> Input File <==

--------------------------------------------------------------------------

memory 1000 mb

molecule butane {
  symmetry C1
  0 1 
  H      1.604   0.760   -8.260
  H      1.745   2.388   -8.880
  H      2.043   1.024   -9.930
  C      2.142   1.395   -8.932
  H      4.169   2.051   -9.210
  H      3.731   1.788   -7.539
  C      3.631   1.416   -8.537
  H      5.267   0.025   -8.509
  H      3.789   -0.604   -7.823
  C      4.203   -0.012   -8.612
  H      4.237   -1.632   -10.021
  H      4.253   -0.049   -10.759
  H      2.775   -0.678   -10.073
  C      3.840   -0.641   -9.970
  units Angstrom
}

dih_string = "4 7 10 14 50"
set optking fixed_dihedral = $dih_string

optimize('B3LYP/cc-PVDZ')
--------------------------------------------------------------------------

  Memory set to 1000.000 MiB by Python script.
gradient() will perform analytic gradient computation.

*** tstart() called on lski1497
*** at Tue Feb 21 19:03:38 2017


         ---------------------------------------------------------
                                   SCF
            by Justin Turney, Rob Parrish, and Andy Simmonett
                              RKS Reference
                        1 Threads,   1000 MiB Core
         ---------------------------------------------------------

  ==> Geometry <==

    Molecular point group: c1
    Full point group: C1

    Geometry (in Angstrom), charge = 0, multiplicity = 1:

       Center              X                  Y                   Z               Mass       
    ------------   -----------------  -----------------  -----------------  -----------------
           H         -1.833913878266     0.226087628046     0.767959801186     1.007825032070
           H         -1.692913878266     1.854087628046     0.147959801186     1.007825032070
           H         -1.394913878266     0.490087628046    -0.902040198814     1.007825032070
           C         -1.295913878266     0.861087628046     0.095959801186    12.000000000000
           H          0.731086121734     1.517087628046    -0.182040198814     1.007825032070
           H          0.293086121734     1.254087628046     1.488959801186     1.007825032070
           C          0.193086121734     0.882087628046     0.490959801186    12.000000000000
           H          1.829086121734    -0.508912371954     0.518959801186     1.007825032070
           H          0.351086121734    -1.137912371954     1.204959801186     1.007825032070
           C          0.765086121734    -0.545912371954     0.415959801186    12.000000000000
           H          0.799086121734    -2.165912371954    -0.993040198814     1.007825032070
           H          0.815086121734    -0.582912371954    -1.731040198814     1.007825032070
           H         -0.662913878266    -1.211912371954    -1.045040198814     1.007825032070
           C          0.402086121734    -1.174912371954    -0.942040198814    12.000000000000

  Running in c1 symmetry.

  Rotational constants: A =      0.40463  B =      0.18449  C =      0.14633 [cm^-1]
  Rotational constants: A =  12130.49596  B =   5530.95799  C =   4386.94107 [MHz]
  Nuclear repulsion =  135.184071845277401

  Charge       = 0
  Multiplicity = 1
  Electrons    = 34
  Nalpha       = 17
  Nbeta        = 17

  ==> Algorithm <==

  SCF Algorithm Type is DF.
  DIIS enabled.
  MOM disabled.
  Fractional occupation disabled.
  Guess Type is SAD.
  Energy threshold   = 1.00e-08
  Density threshold  = 1.00e-08
  Integral threshold = 0.00e+00

  ==> Primary Basis <==

  Basis Set: CC-PVDZ
    Number of shells: 54
    Number of basis function: 106
    Number of Cartesian functions: 110
    Spherical Harmonics?: true
    Max angular momentum: 2

  ==> DFT Potential <==

   => B3LYP Composite Functional <= 

    B3LYP Hybrid-GGA Exchange-Correlation Functional (VWN1-RPA)

    P.J. Stephens et. al., J. Phys. Chem., 98, 11623-11627, 1994

    Points   =           5000
    Deriv    =              1
    GGA      =           TRUE
    Meta     =          FALSE

    X_LRC        =          FALSE
    X_Hybrid     =           TRUE
    X_Alpha      =   2.000000E-01
    X_Omega      =   0.000000E+00
    C_LRC        =          FALSE
    C_Hybrid     =          FALSE
    C_Alpha      =   0.000000E+00
    C_Omega      =   0.000000E+00

   => Exchange Functionals <=

    0.8000    B3_X
    0.2000      HF 

   => Correlation Functionals <=

    0.1900 VWN3RPA_C
    0.8100   LYP_C

   => Molecular Quadrature <=

    Radial Scheme    =       TREUTLER
    Pruning Scheme   =           FLAT
    Nuclear Scheme   =       TREUTLER

    BS radius alpha  =              1
    Pruning alpha    =              1
    Radial Points    =             75
    Spherical Points =            302
    Total Points     =         312726
    Total Blocks     =            272
    Max Points       =           4922
    Max Functions    =            106

  ==> Pre-Iterations <==

   -------------------------------------------------------
    Irrep   Nso     Nmo     Nalpha   Nbeta   Ndocc  Nsocc
   -------------------------------------------------------
     A        106     106       0       0       0       0
   -------------------------------------------------------
    Total     106     106      17      17      17       0
   -------------------------------------------------------

  ==> Integral Setup <==

  ==> DFJK: Density-Fitted J/K Matrices <==

    J tasked:                  Yes
    K tasked:                  Yes
    wK tasked:                  No
    OpenMP threads:              1
    Integrals threads:           1
    Memory (MB):               715
    Algorithm:                Core
    Integral Cache:           NONE
    Schwarz Cutoff:          1E-12
    Fitting Condition:       1E-12

   => Auxiliary Basis Set <=

  Basis Set: 
    Number of shells: 186
    Number of basis function: 510
    Number of Cartesian functions: 574
    Spherical Harmonics?: true
    Max angular momentum: 3

  Minimum eigenvalue in the overlap matrix is 4.5687667078E-03.
  Using Symmetric Orthogonalization.
  SCF Guess: Superposition of Atomic Densities via on-the-fly atomic UHF.

  ==> Iterations <==

                           Total Energy        Delta E     RMS |[F,P]|

   @DF-RKS iter   0:  -159.06015084356662   -1.59060e+02   3.39337e-02 
   @DF-RKS iter   1:  -158.28764430628109    7.72507e-01   4.92815e-03 
   @DF-RKS iter   2:  -158.23022596150227    5.74183e-02   5.89895e-03 DIIS
   @DF-RKS iter   3:  -158.44306162288424   -2.12836e-01   3.88697e-04 DIIS
   @DF-RKS iter   4:  -158.44391142657889   -8.49804e-04   1.02785e-04 DIIS
   @DF-RKS iter   5:  -158.44396204421301   -5.06176e-05   4.35510e-05 DIIS
   @DF-RKS iter   6:  -158.44397224563008   -1.02014e-05   6.95456e-06 DIIS
   @DF-RKS iter   7:  -158.44397254258334   -2.96953e-07   9.60728e-07 DIIS
   @DF-RKS iter   8:  -158.44397254891149   -6.32815e-09   1.10951e-07 DIIS
   @DF-RKS iter   9:  -158.44397254898402   -7.25322e-11   4.81471e-08 DIIS
   @DF-RKS iter  10:  -158.44397254899570   -1.16813e-11   1.59062e-08 DIIS
   @DF-RKS iter  11:  -158.44397254899710   -1.39266e-12   1.38095e-09 DIIS

  ==> Post-Iterations <==

    Orbital Energies (a.u.)
    -----------------------

    Doubly Occupied:                                                      

       1A    -10.170289     2A    -10.170087     3A    -10.162952  
       4A    -10.162821     5A     -0.797756     6A     -0.715801  
       7A     -0.645771     8A     -0.566711     9A     -0.464032  
      10A     -0.459538    11A     -0.416526    12A     -0.387202  
      13A     -0.375997    14A     -0.357888    15A     -0.328292  
      16A     -0.318654    17A     -0.318453  

    Virtual:                                                              

      18A      0.064210    19A      0.098760    20A      0.102250  
      21A      0.109347    22A      0.136606    23A      0.142404  
      24A      0.161117    25A      0.167831    26A      0.171555  
      27A      0.178088    28A      0.216793    29A      0.234439  
      30A      0.256697    31A      0.417175    32A      0.425802  
      33A      0.435474    34A      0.439826    35A      0.448174  
      36A      0.474466    37A      0.516798    38A      0.593910  
      39A      0.602241    40A      0.623485    41A      0.634930  
      42A      0.648231    43A      0.665955    44A      0.680268  
      45A      0.683540    46A      0.687461    47A      0.695326  
      48A      0.709973    49A      0.730228    50A      0.738167  
      51A      0.776295    52A      0.829204    53A      0.891408  
      54A      0.920697    55A      0.969809    56A      1.090386  
      57A      1.138265    58A      1.188928    59A      1.221976  
      60A      1.305995    61A      1.319256    62A      1.388515  
      63A      1.401174    64A      1.437561    65A      1.482217  
      66A      1.533866    67A      1.577735    68A      1.599258  
      69A      1.603546    70A      1.627738    71A      1.656659  
      72A      1.670871    73A      1.687159    74A      1.695367  
      75A      1.703498    76A      1.707171    77A      1.716683  
      78A      1.737331    79A      1.765922    80A      1.774907  
      81A      1.814235    82A      1.823062    83A      1.894781  
      84A      1.901784    85A      1.992560    86A      2.005473  
      87A      2.037468    88A      2.067739    89A      2.128101  
      90A      2.139551    91A      2.229781    92A      2.280483  
      93A      2.288713    94A      2.327058    95A      2.350392  
      96A      2.376621    97A      2.505464    98A      2.506431  
      99A      2.516778   100A      2.545935   101A      2.547309  
     102A      2.580172   103A      2.656451   104A      2.684639  
     105A      2.752397   106A      2.768655  

    Final Occupation by Irrep:
              A 
    DOCC [    17 ]

  Energy converged.

  @DF-RKS Final Energy:  -158.44397254899710

   => Energetics <=

    Nuclear Repulsion Energy =            135.1840718452774013
    One-Electron Energy =                -478.7494229621187856
    Two-Electron Energy =                 205.8076792426342934
    DFT Exchange-Correlation Energy =     -20.6863006747900116
    Empirical Dispersion Energy =           0.0000000000000000
    PCM Polarization Energy =               0.0000000000000000
    EFP Energy =                            0.0000000000000000
    Total Energy =                       -158.4439725489970954


  Saving occupied orbitals to File 180.

*** tstop() called on lski1497 at Tue Feb 21 19:06:05 2017
Module time:
	user time   =     125.80 seconds =       2.10 minutes
	system time =       1.71 seconds =       0.03 minutes
	total time  =        147 seconds =       2.45 minutes
Total time:
	user time   =     125.80 seconds =       2.10 minutes
	system time =       1.71 seconds =       0.03 minutes
	total time  =        147 seconds =       2.45 minutes


Properties will be evaluated at   0.000000,   0.000000,   0.000000 Bohr

Properties computed using the SCF density matrix

  Nuclear Dipole Moment: (a.u.)
     X:    -0.7182      Y:    -0.2495      Z:    -0.6791

  Electronic Dipole Moment: (a.u.)
     X:     0.7337      Y:     0.2542      Z:     0.6933

  Dipole Moment: (a.u.)
     X:     0.0155      Y:     0.0047      Z:     0.0142     Total:     0.0216

  Dipole Moment: (Debye)
     X:     0.0394      Y:     0.0120      Z:     0.0362     Total:     0.0548


*** tstart() called on lski1497
*** at Tue Feb 21 19:06:05 2017


         ------------------------------------------------------------
                                   SCF GRAD                          
                          Rob Parrish, Justin Turney,                
                       Andy Simmonett, and Alex Sokolov              
         ------------------------------------------------------------

  ==> Geometry <==

    Molecular point group: c1
    Full point group: C1

    Geometry (in Angstrom), charge = 0, multiplicity = 1:

       Center              X                  Y                   Z               Mass       
    ------------   -----------------  -----------------  -----------------  -----------------
           H         -1.833913878266     0.226087628046     0.767959801186     1.007825032070
           H         -1.692913878266     1.854087628046     0.147959801186     1.007825032070
           H         -1.394913878266     0.490087628046    -0.902040198814     1.007825032070
           C         -1.295913878266     0.861087628046     0.095959801186    12.000000000000
           H          0.731086121734     1.517087628046    -0.182040198814     1.007825032070
           H          0.293086121734     1.254087628046     1.488959801186     1.007825032070
           C          0.193086121734     0.882087628046     0.490959801186    12.000000000000
           H          1.829086121734    -0.508912371954     0.518959801186     1.007825032070
           H          0.351086121734    -1.137912371954     1.204959801186     1.007825032070
           C          0.765086121734    -0.545912371954     0.415959801186    12.000000000000
           H          0.799086121734    -2.165912371954    -0.993040198814     1.007825032070
           H          0.815086121734    -0.582912371954    -1.731040198814     1.007825032070
           H         -0.662913878266    -1.211912371954    -1.045040198814     1.007825032070
           C          0.402086121734    -1.174912371954    -0.942040198814    12.000000000000

  Nuclear repulsion =  135.184071845277401

  ==> Basis Set <==

  Basis Set: CC-PVDZ
    Number of shells: 54
    Number of basis function: 106
    Number of Cartesian functions: 110
    Spherical Harmonics?: true
    Max angular momentum: 2

  ==> DFJKGrad: Density-Fitted SCF Gradients <==

    Gradient:                    1
    J tasked:                  Yes
    K tasked:                  Yes
    wK tasked:                  No
    OpenMP threads:              1
    Integrals threads:           1
    Memory (MB):               715
    Schwarz Cutoff:          0E+00
    Fitting Condition:       1E-12

   => Auxiliary Basis Set <=

  Basis Set: 
    Number of shells: 186
    Number of basis function: 510
    Number of Cartesian functions: 574
    Spherical Harmonics?: true
    Max angular momentum: 3

  ==> DFT Potential <==

   => B3LYP Composite Functional <= 

    B3LYP Hybrid-GGA Exchange-Correlation Functional (VWN1-RPA)

    P.J. Stephens et. al., J. Phys. Chem., 98, 11623-11627, 1994

    Points   =           5000
    Deriv    =              1
    GGA      =           TRUE
    Meta     =          FALSE

    X_LRC        =          FALSE
    X_Hybrid     =           TRUE
    X_Alpha      =   2.000000E-01
    X_Omega      =   0.000000E+00
    C_LRC        =          FALSE
    C_Hybrid     =          FALSE
    C_Alpha      =   0.000000E+00
    C_Omega      =   0.000000E+00

   => Exchange Functionals <=

    0.8000    B3_X
    0.2000      HF 

   => Correlation Functionals <=

    0.1900 VWN3RPA_C
    0.8100   LYP_C

   => Molecular Quadrature <=

    Radial Scheme    =       TREUTLER
    Pruning Scheme   =           FLAT
    Nuclear Scheme   =       TREUTLER

    BS radius alpha  =              1
    Pruning alpha    =              1
    Radial Points    =             75
    Spherical Points =            302
    Total Points     =         312726
    Total Blocks     =            272
    Max Points       =           4922
    Max Functions    =            106


  -Total Gradient:
     Atom            X                  Y                   Z
    ------   -----------------  -----------------  -----------------
       1        0.014631876319     0.013310180809    -0.012858556289
       2        0.011959871558    -0.018846530509    -0.000565282641
       3        0.007593767000     0.002824748448     0.017976418652
       4       -0.027631911915    -0.011595629654    -0.009047326497
       5       -0.012497288046    -0.015335305613     0.012745463744
       6       -0.004190947164    -0.011277274279    -0.020257058111
       7        0.019959053046     0.029722634493     0.005796934671
       8       -0.023017466302     0.001752670230    -0.005408731593
       9        0.006929311736     0.013531205228    -0.018511409428
      10        0.015356064427    -0.017619921407     0.027909303930
      11       -0.007731377025     0.021839573038     0.005211489710
      12       -0.007737887547    -0.010949576869     0.019715389017
      13        0.016833827540     0.006099070864     0.005891959237
      14       -0.010463450335    -0.003457672166    -0.028604468978


*** tstop() called on lski1497 at Tue Feb 21 19:07:00 2017
Module time:
	user time   =      44.44 seconds =       0.74 minutes
	system time =       0.85 seconds =       0.01 minutes
	total time  =         55 seconds =       0.92 minutes
Total time:
	user time   =     170.26 seconds =       2.84 minutes
	system time =       2.56 seconds =       0.04 minutes
	total time  =        202 seconds =       3.37 minutes

			-----------------------------------------
			 OPTKING 2.0: for geometry optimizations 
			  - R.A. King,  Bethel University        
			-----------------------------------------

	Internal coordinates to be generated automatically.
	Detected frag 1 with atoms:  1 2 3 4 5 6 7 8 9 10 11 12 13 14
	---Fragment 1 Bond Connectivity---
	 1 : 4
	 2 : 4
	 3 : 4
	 4 : 1 2 3 7
	 5 : 7
	 6 : 7
	 7 : 4 5 6 10
	 8 : 10
	 9 : 10
	 10 : 7 8 9 14
	 11 : 14
	 12 : 14
	 13 : 14
	 14 : 10 11 12 13

	Assuming in current code that numbering for constraints corresponds to unified fragment.
	Fixed dihedral atom list: 
	     4     7    10    14
	---Fragment 1 Geometry and Gradient---
	 H          -3.4655949812        0.4272436990        1.4512337053
	 H          -3.1991435965        3.5037178434        0.2796035029
	 H          -2.6360052089        0.9261313981       -1.7046089366
	 C          -2.4489223217        1.6272197934        0.1813377440
	 H           1.3815525496        2.8668801366       -0.3440061209
	 H           0.5538525034        2.3698821636        2.8137262471
	 C           0.3648798901        1.6669040422        0.9277795665
	 H           3.4564718435       -0.9617050086        0.9806918982
	 H           0.6634566191       -2.1503427462        2.2770440254
	 C           1.4458032381       -1.0316248755        0.7860501065
	 H           1.5100539267       -4.0929812108       -1.8765740147
	 H           1.5402895448       -1.1015447425       -3.2711919008
	 H          -1.2527256796       -2.2901824800       -1.9748397736
	 C           0.7598326519       -2.2202626131       -1.7801979819
	             0.0146318763        0.0133101808       -0.0128585563
	             0.0119598716       -0.0188465305       -0.0005652826
	             0.0075937670        0.0028247484        0.0179764187
	            -0.0276319119       -0.0115956297       -0.0090473265
	            -0.0124972880       -0.0153353056        0.0127454637
	            -0.0041909472       -0.0112772743       -0.0202570581
	             0.0199590530        0.0297226345        0.0057969347
	            -0.0230174663        0.0017526702       -0.0054087316
	             0.0069293117        0.0135312052       -0.0185114094
	             0.0153560644       -0.0176199214        0.0279093039
	            -0.0077313770        0.0218395730        0.0052114897
	            -0.0077378875       -0.0109495769        0.0197153890
	             0.0168338275        0.0060990709        0.0058919592
	            -0.0104634503       -0.0034576722       -0.0286044690

	Previous optimization step data not found.  Starting new optimization.

	---Fragment 1 Intrafragment Coordinates---
	 - Coordinate -           - BOHR/RAD -       - ANG/DEG -
	 R(1,4)           =         2.021436	       1.069698
	 R(2,4)           =         2.023298	       1.070683
	 R(3,4)           =         2.020723	       1.069320
	 R(4,7)           =         2.911397	       1.540645
	 R(5,7)           =         2.022623	       1.070326
	 R(6,7)           =         2.021555	       1.069761
	 R(7,10)          =         2.910419	       1.540128
	 R(8,10)          =         2.021277	       1.069614
	 R(9,10)          =         2.021549	       1.069757
	 R(10,14)         =         2.910162	       1.539992
	 R(11,14)         =         2.019702	       1.068780
	 R(12,14)         =         2.020818	       1.069371
	 R(13,14)         =         2.023157	       1.070609
	 B(1,4,2)         =         1.910870	     109.484805
	 B(1,4,3)         =         1.911121	     109.499161
	 B(1,4,7)         =         1.910399	     109.457783
	 B(2,4,3)         =         1.910042	     109.437340
	 B(2,4,7)         =         1.910564	     109.467262
	 B(3,4,7)         =         1.910803	     109.480971
	 B(4,7,5)         =         1.909937	     109.431343
	 B(4,7,6)         =         1.911630	     109.528316
	 B(4,7,10)        =         1.911154	     109.501062
	 B(5,7,6)         =         1.910605	     109.469614
	 B(5,7,10)        =         1.910047	     109.437654
	 B(6,7,10)        =         1.910425	     109.459295
	 B(7,10,8)        =         1.909946	     109.431864
	 B(7,10,9)        =         1.910765	     109.478795
	 B(7,10,14)       =         1.911452	     109.518155
	 B(8,10,9)        =         1.910377	     109.456554
	 B(8,10,14)       =         1.910835	     109.482788
	 B(9,10,14)       =         1.910423	     109.459153
	 B(10,14,11)      =         1.910536	     109.465628
	 B(10,14,12)      =         1.910784	     109.479867
	 B(10,14,13)      =         1.910740	     109.477335
	 B(11,14,12)      =         1.912024	     109.550886
	 B(11,14,13)      =         1.910142	     109.443069
	 B(12,14,13)      =         1.909574	     109.410512
	 D(1,4,7,5)       =         3.140997	     179.965873
	 D(1,4,7,6)       =        -1.047644	     -60.025575
	 D(1,4,7,10)      =         1.047427	      60.013132
	 D(2,4,7,5)       =        -1.047689	     -60.028143
	 D(2,4,7,6)       =         1.046856	      59.980409
	 D(2,4,7,10)      =        -3.141259	    -179.980883
	 D(3,4,7,5)       =         1.046044	      59.933911
	 D(3,4,7,6)       =         3.140588	     179.942463
	 D(3,4,7,10)      =        -1.047526	     -60.018830
	 D(4,7,10,8)      =         2.967527	     170.026763
	 D(4,7,10,9)      =        -1.221916	     -70.010648
	 D(4,7,10,14)     =         0.872804	      50.007975
	 D(5,7,10,8)      =         0.874024	      50.077888
	 D(5,7,10,9)      =         2.967766	     170.040476
	 D(5,7,10,14)     =        -1.220699	     -69.940901
	 D(6,7,10,8)      =        -1.219851	     -69.892311
	 D(6,7,10,9)      =         0.873891	      50.070277
	 D(6,7,10,14)     =         2.968611	     170.088900
	 D(7,10,14,11)    =        -3.141222	    -179.978742
	 D(7,10,14,12)    =         1.045833	      59.921790
	 D(7,10,14,13)    =        -1.047423	     -60.012899
	 D(8,10,14,11)    =         1.047784	      60.033625
	 D(8,10,14,12)    =        -1.048347	     -60.065842
	 D(8,10,14,13)    =         3.141593	     180.000000
	 D(9,10,14,11)    =        -1.046292	     -59.948104
	 D(9,10,14,12)    =         3.140762	     179.952428
	 D(9,10,14,13)    =         1.047507	      60.017739

	Current energy   :      -158.4439725490

	Generating empirical Hessian (Schlegel '84) for each fragment.
	Adding user-defined constraint: Fragment 1; Coordinate 49:
		Value =     0.872804; Fixed value    =     0.872665
		Force =    -0.000070; Force constant =     0.500000
	Removing off-diagonal coupling between coordinate 49 and others.
	Taking RFO optimization step.
	Going to follow RFO solution 1.
	Using RFO vector 1.

	Determining step-restricting scale parameter for RS-RFO.
	Maximum step size allowed    0.10000

	 Iter      |step|        alpha        rfo_root  
	------------------------------------------------
	    0     0.36860       1.00000           1
	    1     0.26117       4.25238           1
	    2     0.18211      14.08502           1
	    3     0.13413      32.98371           1
	    4     0.10972      54.98966           1
	    5     0.10119      67.03878           1
	    6     0.10002      68.95824           1
	    7     0.10000      68.99507           1
	------------------------------------------------
	Norm of target step-size    0.10000
	Projected energy change by RFO approximation:        -0.0089844417

	Back-transformation to cartesian coordinates...
	Could not converge backtransformation.
	Using first guess instead.

	--- Internal Coordinate Step in ANG or DEG, aJ/ANG or AJ/DEG ---
	 ---------------------------------------------------------------------------
	   Coordinate                Previous        Force       Change         New 
	   ----------                --------       ------       ------       ------
	    1 R(1,4)          =      1.069698     0.192267     0.012372     1.082070
	    2 R(2,4)          =      1.070683     0.180773     0.012082     1.082765
	    3 R(3,4)          =      1.069320     0.152099     0.010474     1.079795
	    4 R(4,7)          =      1.540645     0.041091     0.003672     1.544317
	    5 R(5,7)          =      1.070326     0.192742     0.012334     1.082660
	    6 R(6,7)          =      1.069761     0.191226     0.012398     1.082158
	    7 R(7,10)         =      1.540128     0.118108     0.008422     1.548550
	    8 R(8,10)         =      1.069614     0.192423     0.012472     1.082086
	    9 R(9,10)         =      1.069757     0.196275     0.012550     1.082308
	   10 R(10,14)        =      1.539992     0.043960     0.003869     1.543861
	   11 R(11,14)        =      1.068780     0.192549     0.012801     1.081581
	   12 R(12,14)        =      1.069371     0.194394     0.012503     1.081874
	   13 R(13,14)        =      1.070609     0.144378     0.009998     1.080607
	   14 B(1,4,2)        =    109.484805    -0.000298    -0.271960   109.212845
	   15 B(1,4,3)        =    109.499161    -0.000310    -0.320457   109.178704
	   16 B(1,4,7)        =    109.457783     0.000226     0.194096   109.651879
	   17 B(2,4,3)        =    109.437340    -0.000446    -0.415389   109.021952
	   18 B(2,4,7)        =    109.467262     0.000256     0.253738   109.721000
	   19 B(3,4,7)        =    109.480971     0.000573     0.553969   110.034940
	   20 B(4,7,5)        =    109.431343    -0.000595    -0.539104   108.892239
	   21 B(4,7,6)        =    109.528316    -0.000758    -0.638788   108.889528
	   22 B(4,7,10)       =    109.501062     0.002436     2.170953   111.672016
	   23 B(5,7,6)        =    109.469614     0.000248     0.134319   109.603932
	   24 B(5,7,10)       =    109.437654    -0.000621    -0.519634   108.918020
	   25 B(6,7,10)       =    109.459295    -0.000710    -0.614764   108.844531
	   26 B(7,10,8)       =    109.431864    -0.000709    -0.613488   108.818376
	   27 B(7,10,9)       =    109.478795    -0.000624    -0.522875   108.955920
	   28 B(7,10,14)      =    109.518155     0.002434     2.169156   111.687312
	   29 B(8,10,9)       =    109.456554     0.000249     0.134529   109.591083
	   30 B(8,10,14)      =    109.482788    -0.000753    -0.633796   108.848992
	   31 B(9,10,14)      =    109.459153    -0.000597    -0.541173   108.917980
	   32 B(10,14,11)     =    109.465628     0.000261     0.259251   109.724880
	   33 B(10,14,12)     =    109.479867     0.000222     0.190122   109.669990
	   34 B(10,14,13)     =    109.477335     0.000573     0.555006   110.032341
	   35 B(11,14,12)     =    109.550886    -0.000302    -0.275913   109.274973
	   36 B(11,14,13)     =    109.443069    -0.000449    -0.419925   109.023144
	   37 B(12,14,13)     =    109.410512    -0.000305    -0.314544   109.095968
	   38 D(1,4,7,5)      =    179.965873     0.000067     0.266818   180.232691
	   39 D(1,4,7,6)      =    -60.025575    -0.000053    -0.275854   -60.301429
	   40 D(1,4,7,10)     =     60.013132    -0.000017    -0.094178    59.918954
	   41 D(2,4,7,5)      =    -60.028143     0.000051     0.208810   -59.819333
	   42 D(2,4,7,6)      =     59.980409    -0.000069    -0.333862    59.646547
	   43 D(2,4,7,10)     =   -179.980883    -0.000033    -0.152186  -180.133069
	   44 D(3,4,7,5)      =     59.933911     0.000042     0.197768    60.131678
	   45 D(3,4,7,6)      =    179.942463    -0.000078    -0.344904   179.597559
	   46 D(3,4,7,10)     =    -60.018830    -0.000042    -0.163229   -60.182058
	   47 D(4,7,10,8)     =    170.026763     0.000086     0.337813   170.364576
	   48 D(4,7,10,9)     =    -70.010648    -0.000031    -0.178859   -70.189507
	   49 D(4,7,10,14)    =     50.007975     0.000055     0.167952    50.175927
	   50 D(5,7,10,8)     =     50.077888    -0.000002    -0.011942    50.065945
	   51 D(5,7,10,9)     =    170.040476    -0.000119    -0.528614   169.511862
	   52 D(5,7,10,14)    =    -69.940901    -0.000032    -0.181803   -70.122704
	   53 D(6,7,10,8)     =    -69.892311     0.000115     0.503655   -69.388656
	   54 D(6,7,10,9)     =     50.070277    -0.000002    -0.013017    50.057261
	   55 D(6,7,10,14)    =    170.088900     0.000085     0.333794   170.422695
	   56 D(7,10,14,11)   =   -179.978742    -0.000033    -0.151189  -180.129931
	   57 D(7,10,14,12)   =     59.921790    -0.000016    -0.089734    59.832057
	   58 D(7,10,14,13)   =    -60.012899    -0.000042    -0.163737   -60.176636
	   59 D(8,10,14,11)   =     60.033625    -0.000070    -0.334249    59.699377
	   60 D(8,10,14,12)   =    -60.065842    -0.000053    -0.272794   -60.338636
	   61 D(8,10,14,13)   =    180.000000    -0.000079    -0.347328   179.652672
	   62 D(9,10,14,11)   =    -59.948104     0.000050     0.205815   -59.742290
	   63 D(9,10,14,12)   =    179.952428     0.000067     0.267270   180.219698
	   64 D(9,10,14,13)   =     60.017739     0.000041     0.193267    60.211005
	 ---------------------------------------------------------------------------
	 Forces used to impose fixed constraints are not included.
	  Forces zeroed: 49 

  ==> Convergence Check <==

  Measures of convergence in internal coordinates in au.
  Criteria marked as inactive (o), active & met (*), and active & unmet ( ).
  --------------------------------------------------------------------------------------------- ~
   Step     Total Energy     Delta E     MAX Force     RMS Force      MAX Disp      RMS Disp    ~
  --------------------------------------------------------------------------------------------- ~
    Convergence Criteria    1.00e-06 *    3.00e-04 *             o    1.20e-03 *             o  ~
  --------------------------------------------------------------------------------------------- ~
      1    -158.44397255   -1.58e+02      3.20e-02      1.15e-02 o    3.79e-02      1.27e-02 o  ~
  ---------------------------------------------------------------------------------------------

	Writing optimization data to binary file.
	Structure for next step:
	Cartesian Geometry (in Angstrom)
	    H    -1.8765320300   0.2641871270   0.7834571095
	    H    -1.6993539162   1.9168213962   0.1903492447
	    H    -1.4506794272   0.5574998456  -0.9009221105
	    C    -1.3200457338   0.9056363872   0.1128294221
	    H     0.7207080831   1.5282315173  -0.1829716382
	    H     0.2869657809   1.2384745066   1.5073883119
	    C     0.1767028664   0.8799909670   0.4923027859
	    H     1.8409958900  -0.4911003235   0.5060853230
	    H     0.3540319052  -1.1515268166   1.1992379959
	    C     0.7657086926  -0.5491777991   0.3998080997
	    H     0.8607104354  -2.2099154662  -0.9834434972
	    H     0.8431609590  -0.6259865387  -1.7603973708
	    H    -0.6376062830  -1.2901023792  -1.0752896807
	    C     0.4334384819  -1.2168056311  -0.9519967786
			--------------------------
			 OPTKING Finished Execution 
			--------------------------

    Structure for next step:
    Molecular point group: c1
    Full point group: C1

    Geometry (in Angstrom), charge = 0, multiplicity = 1:

    H           -1.874915673546     0.264699389217     0.784951483846
    H           -1.697737559785     1.917333658393     0.191843619095
    H           -1.449063070767     0.558012107758    -0.899427736114
    C           -1.318429377438     0.906148649396     0.114323796454
    H            0.722324439476     1.528743779450    -0.181477263776
    H            0.288582137335     1.238986768780     1.508882686229
    C            0.178319222773     0.880503229187     0.493797160227
    H            1.842612246442    -0.490588061298     0.507579697365
    H            0.355648261565    -1.151014554406     1.200732370283
    C            0.767325049016    -0.548665536907     0.401302474074
    H            0.862326791780    -2.209403204008    -0.981949122812
    H            0.844777315433    -0.625474276495    -1.758902996460
    H           -0.635989926599    -1.289590117000    -1.073795306317
    C            0.435054838284    -1.216293368972    -0.950502404233

gradient() will perform analytic gradient computation.

*** tstart() called on lski1497
*** at Tue Feb 21 19:07:01 2017


         ---------------------------------------------------------
                                   SCF
            by Justin Turney, Rob Parrish, and Andy Simmonett
                              RKS Reference
                        1 Threads,   1000 MiB Core
         ---------------------------------------------------------

  ==> Geometry <==

    Molecular point group: c1
    Full point group: C1

    Geometry (in Angstrom), charge = 0, multiplicity = 1:

       Center              X                  Y                   Z               Mass       
    ------------   -----------------  -----------------  -----------------  -----------------
           H         -1.874915673546     0.264699389217     0.784951483846     1.007825032070
           H         -1.697737559785     1.917333658393     0.191843619095     1.007825032070
           H         -1.449063070767     0.558012107758    -0.899427736114     1.007825032070
           C         -1.318429377438     0.906148649396     0.114323796454    12.000000000000
           H          0.722324439476     1.528743779450    -0.181477263776     1.007825032070
           H          0.288582137335     1.238986768780     1.508882686229     1.007825032070
           C          0.178319222773     0.880503229187     0.493797160227    12.000000000000
           H          1.842612246442    -0.490588061298     0.507579697365     1.007825032070
           H          0.355648261565    -1.151014554406     1.200732370283     1.007825032070
           C          0.767325049016    -0.548665536907     0.401302474074    12.000000000000
           H          0.862326791780    -2.209403204008    -0.981949122812     1.007825032070
           H          0.844777315433    -0.625474276495    -1.758902996460     1.007825032070
           H         -0.635989926599    -1.289590117000    -1.073795306317     1.007825032070
           C          0.435054838284    -1.216293368972    -0.950502404233    12.000000000000

  Running in c1 symmetry.

  Rotational constants: A =      0.40957  B =      0.17454  C =      0.14046 [cm^-1]
  Rotational constants: A =  12278.61134  B =   5232.67704  C =   4210.80394 [MHz]
  Nuclear repulsion =  133.550172398905090

  Charge       = 0
  Multiplicity = 1
  Electrons    = 34
  Nalpha       = 17
  Nbeta        = 17

  ==> Algorithm <==

  SCF Algorithm Type is DF.
  DIIS enabled.
  MOM disabled.
  Fractional occupation disabled.
  Guess Type is READ.
  Energy threshold   = 1.00e-08
  Density threshold  = 1.00e-08
  Integral threshold = 0.00e+00

  ==> Primary Basis <==

  Basis Set: CC-PVDZ
    Number of shells: 54
    Number of basis function: 106
    Number of Cartesian functions: 110
    Spherical Harmonics?: true
    Max angular momentum: 2

  ==> DFT Potential <==

   => B3LYP Composite Functional <= 

    B3LYP Hybrid-GGA Exchange-Correlation Functional (VWN1-RPA)

    P.J. Stephens et. al., J. Phys. Chem., 98, 11623-11627, 1994

    Points   =           5000
    Deriv    =              1
    GGA      =           TRUE
    Meta     =          FALSE

    X_LRC        =          FALSE
    X_Hybrid     =           TRUE
    X_Alpha      =   2.000000E-01
    X_Omega      =   0.000000E+00
    C_LRC        =          FALSE
    C_Hybrid     =          FALSE
    C_Alpha      =   0.000000E+00
    C_Omega      =   0.000000E+00

   => Exchange Functionals <=

    0.8000    B3_X
    0.2000      HF 

   => Correlation Functionals <=

    0.1900 VWN3RPA_C
    0.8100   LYP_C

   => Molecular Quadrature <=

    Radial Scheme    =       TREUTLER
    Pruning Scheme   =           FLAT
    Nuclear Scheme   =       TREUTLER

    BS radius alpha  =              1
    Pruning alpha    =              1
    Radial Points    =             75
    Spherical Points =            302
    Total Points     =         312748
    Total Blocks     =            271
    Max Points       =           4878
    Max Functions    =            106

  ==> Pre-Iterations <==

   -------------------------------------------------------
    Irrep   Nso     Nmo     Nalpha   Nbeta   Ndocc  Nsocc
   -------------------------------------------------------
     A        106     106       0       0       0       0
   -------------------------------------------------------
    Total     106     106      17      17      17       0
   -------------------------------------------------------

  ==> Integral Setup <==

  ==> DFJK: Density-Fitted J/K Matrices <==

    J tasked:                  Yes
    K tasked:                  Yes
    wK tasked:                  No
    OpenMP threads:              1
    Integrals threads:           1
    Memory (MB):               715
    Algorithm:                Core
    Integral Cache:           NONE
    Schwarz Cutoff:          1E-12
    Fitting Condition:       1E-12

   => Auxiliary Basis Set <=

  Basis Set: 
    Number of shells: 186
    Number of basis function: 510
    Number of Cartesian functions: 574
    Spherical Harmonics?: true
    Max angular momentum: 3

  Minimum eigenvalue in the overlap matrix is 4.6879300263E-03.
  Using Symmetric Orthogonalization.
  SCF Guess was Projection but file not found.
  Switching over to SAD guess.

  SCF Guess: Superposition of Atomic Densities via on-the-fly atomic UHF.

  ==> Iterations <==

                           Total Energy        Delta E     RMS |[F,P]|

   @DF-RKS iter   0:  -158.98170951139335   -1.58982e+02   3.31044e-02 
