    -----------------------------------------------------------------------
          Psi4: An Open-Source Ab Initio Electronic Structure Package
                              Psi4 1.0.0 Driver

                          Git: Rev {master} 6a9a71b 

    J. M. Turney, A. C. Simmonett, R. M. Parrish, E. G. Hohenstein,
    F. A. Evangelista, J. T. Fermann, B. J. Mintz, L. A. Burns, J. J. Wilke,
    M. L. Abrams, N. J. Russ, M. L. Leininger, C. L. Janssen, E. T. Seidl,
    W. D. Allen, H. F. Schaefer, R. A. King, E. F. Valeev, C. D. Sherrill,
    and T. D. Crawford, WIREs Comput. Mol. Sci. 2, 556-565 (2012)
    (doi: 10.1002/wcms.93)

                         Additional Contributions by
    A. E. DePrince, U. Bozkaya, A. Yu. Sokolov, D. G. A. Smith, R. Di Remigio,
    R. M. Richard, J. F. Gonthier, H. R. McAlexander, M. Saitow, and
    B. P. Pritchard
    -----------------------------------------------------------------------


    Psi4 started on: Tue Feb 21 19:03:36 2017

    Process ID:  43181
    PSI4DATADIR: /Users/sternc1/anaconda/share/psi4
    Memory level set to 256.000 MB

  ==> Input File <==

--------------------------------------------------------------------------

memory 1000 mb

molecule butane {
  symmetry C1
  0 1 
  H      1.604   0.760   -8.260
  H      1.745   2.388   -8.880
  H      2.043   1.024   -9.930
  C      2.142   1.395   -8.932
  H      4.169   2.051   -9.210
  H      3.731   1.788   -7.539
  C      3.631   1.416   -8.537
  H      5.267   0.025   -8.509
  H      3.789   -0.604   -7.823
  C      4.203   -0.012   -8.612
  H      4.237   -1.632   -10.021
  H      4.253   -0.049   -10.759
  H      2.775   -0.678   -10.073
  C      3.840   -0.641   -9.970
  units Angstrom
}

dih_string = "4 7 10 14 50"
set optking fixed_dihedral = $dih_string

optimize('B3LYP/cc-PVDZ')
--------------------------------------------------------------------------

  Memory set to 1000.000 MiB by Python script.
gradient() will perform analytic gradient computation.

*** tstart() called on lski1497
*** at Tue Feb 21 19:03:38 2017


         ---------------------------------------------------------
                                   SCF
            by Justin Turney, Rob Parrish, and Andy Simmonett
                              RKS Reference
                        1 Threads,   1000 MiB Core
         ---------------------------------------------------------

  ==> Geometry <==

    Molecular point group: c1
    Full point group: C1

    Geometry (in Angstrom), charge = 0, multiplicity = 1:

       Center              X                  Y                   Z               Mass       
    ------------   -----------------  -----------------  -----------------  -----------------
           H         -1.833913878266     0.226087628046     0.767959801186     1.007825032070
           H         -1.692913878266     1.854087628046     0.147959801186     1.007825032070
           H         -1.394913878266     0.490087628046    -0.902040198814     1.007825032070
           C         -1.295913878266     0.861087628046     0.095959801186    12.000000000000
           H          0.731086121734     1.517087628046    -0.182040198814     1.007825032070
           H          0.293086121734     1.254087628046     1.488959801186     1.007825032070
           C          0.193086121734     0.882087628046     0.490959801186    12.000000000000
           H          1.829086121734    -0.508912371954     0.518959801186     1.007825032070
           H          0.351086121734    -1.137912371954     1.204959801186     1.007825032070
           C          0.765086121734    -0.545912371954     0.415959801186    12.000000000000
           H          0.799086121734    -2.165912371954    -0.993040198814     1.007825032070
           H          0.815086121734    -0.582912371954    -1.731040198814     1.007825032070
           H         -0.662913878266    -1.211912371954    -1.045040198814     1.007825032070
           C          0.402086121734    -1.174912371954    -0.942040198814    12.000000000000

  Running in c1 symmetry.

  Rotational constants: A =      0.40463  B =      0.18449  C =      0.14633 [cm^-1]
  Rotational constants: A =  12130.49596  B =   5530.95799  C =   4386.94107 [MHz]
  Nuclear repulsion =  135.184071845277401

  Charge       = 0
  Multiplicity = 1
  Electrons    = 34
  Nalpha       = 17
  Nbeta        = 17

  ==> Algorithm <==

  SCF Algorithm Type is DF.
  DIIS enabled.
  MOM disabled.
  Fractional occupation disabled.
  Guess Type is SAD.
  Energy threshold   = 1.00e-08
  Density threshold  = 1.00e-08
  Integral threshold = 0.00e+00

  ==> Primary Basis <==

  Basis Set: CC-PVDZ
    Number of shells: 54
    Number of basis function: 106
    Number of Cartesian functions: 110
    Spherical Harmonics?: true
    Max angular momentum: 2

  ==> DFT Potential <==

   => B3LYP Composite Functional <= 

    B3LYP Hybrid-GGA Exchange-Correlation Functional (VWN1-RPA)

    P.J. Stephens et. al., J. Phys. Chem., 98, 11623-11627, 1994

    Points   =           5000
    Deriv    =              1
    GGA      =           TRUE
    Meta     =          FALSE

    X_LRC        =          FALSE
    X_Hybrid     =           TRUE
    X_Alpha      =   2.000000E-01
    X_Omega      =   0.000000E+00
    C_LRC        =          FALSE
    C_Hybrid     =          FALSE
    C_Alpha      =   0.000000E+00
    C_Omega      =   0.000000E+00

   => Exchange Functionals <=

    0.8000    B3_X
    0.2000      HF 

   => Correlation Functionals <=

    0.1900 VWN3RPA_C
    0.8100   LYP_C

   => Molecular Quadrature <=

    Radial Scheme    =       TREUTLER
    Pruning Scheme   =           FLAT
    Nuclear Scheme   =       TREUTLER

    BS radius alpha  =              1
    Pruning alpha    =              1
    Radial Points    =             75
    Spherical Points =            302
    Total Points     =         312726
    Total Blocks     =            272
    Max Points       =           4922
    Max Functions    =            106

  ==> Pre-Iterations <==

   -------------------------------------------------------
    Irrep   Nso     Nmo     Nalpha   Nbeta   Ndocc  Nsocc
   -------------------------------------------------------
     A        106     106       0       0       0       0
   -------------------------------------------------------
    Total     106     106      17      17      17       0
   -------------------------------------------------------

  ==> Integral Setup <==

  ==> DFJK: Density-Fitted J/K Matrices <==

    J tasked:                  Yes
    K tasked:                  Yes
    wK tasked:                  No
    OpenMP threads:              1
    Integrals threads:           1
    Memory (MB):               715
    Algorithm:                Core
    Integral Cache:           NONE
    Schwarz Cutoff:          1E-12
    Fitting Condition:       1E-12

   => Auxiliary Basis Set <=

  Basis Set: 
    Number of shells: 186
    Number of basis function: 510
    Number of Cartesian functions: 574
    Spherical Harmonics?: true
    Max angular momentum: 3

  Minimum eigenvalue in the overlap matrix is 4.5687667078E-03.
  Using Symmetric Orthogonalization.
  SCF Guess: Superposition of Atomic Densities via on-the-fly atomic UHF.

  ==> Iterations <==

                           Total Energy        Delta E     RMS |[F,P]|

   @DF-RKS iter   0:  -159.06015084356662   -1.59060e+02   3.39337e-02 
   @DF-RKS iter   1:  -158.28764430628109    7.72507e-01   4.92815e-03 
   @DF-RKS iter   2:  -158.23022596150227    5.74183e-02   5.89895e-03 DIIS
   @DF-RKS iter   3:  -158.44306162288424   -2.12836e-01   3.88697e-04 DIIS
   @DF-RKS iter   4:  -158.44391142657889   -8.49804e-04   1.02785e-04 DIIS
   @DF-RKS iter   5:  -158.44396204421301   -5.06176e-05   4.35510e-05 DIIS
