    -----------------------------------------------------------------------
          Psi4: An Open-Source Ab Initio Electronic Structure Package
                              Psi4 1.0.0 Driver

                          Git: Rev {master} 6a9a71b 

    J. M. Turney, A. C. Simmonett, R. M. Parrish, E. G. Hohenstein,
    F. A. Evangelista, J. T. Fermann, B. J. Mintz, L. A. Burns, J. J. Wilke,
    M. L. Abrams, N. J. Russ, M. L. Leininger, C. L. Janssen, E. T. Seidl,
    W. D. Allen, H. F. Schaefer, R. A. King, E. F. Valeev, C. D. Sherrill,
    and T. D. Crawford, WIREs Comput. Mol. Sci. 2, 556-565 (2012)
    (doi: 10.1002/wcms.93)

                         Additional Contributions by
    A. E. DePrince, U. Bozkaya, A. Yu. Sokolov, D. G. A. Smith, R. Di Remigio,
    R. M. Richard, J. F. Gonthier, H. R. McAlexander, M. Saitow, and
    B. P. Pritchard
    -----------------------------------------------------------------------


    Psi4 started on: Tue Feb 21 17:40:07 2017

    Process ID:  34291
    PSI4DATADIR: /Users/sternc1/anaconda/share/psi4
    Memory level set to 256.000 MB

  ==> Input File <==

--------------------------------------------------------------------------

memory 1000 mb

molecule butane {
  symmetry C1
  0 1 
  H      1.604   0.760   -8.260
  H      1.745   2.388   -8.880
  H      2.043   1.024   -9.930
  C      2.142   1.395   -8.932
  H      4.169   2.051   -9.210
  H      3.731   1.788   -7.539
  C      3.631   1.416   -8.537
  H      4.081   -0.495   -7.665
  H      3.682   -0.566   -9.364
  C      4.203   -0.012   -8.612
  H      6.097   -0.940   -9.019
  H      6.222   0.606   -8.216
  H      5.822   0.534   -9.914
  C      5.700   0.052   -8.967
  units Angstrom
}

dih_string = "4 7 10 14 150"
set optking fixed_dihedral = $dih_string

optimize('B3LYP/cc-PVDZ')
--------------------------------------------------------------------------

  Memory set to 1000.000 MiB by Python script.
gradient() will perform analytic gradient computation.

*** tstart() called on lski1497
*** at Tue Feb 21 17:40:09 2017


         ---------------------------------------------------------
                                   SCF
            by Justin Turney, Rob Parrish, and Andy Simmonett
                              RKS Reference
                        1 Threads,   1000 MiB Core
         ---------------------------------------------------------

  ==> Geometry <==

    Molecular point group: c1
    Full point group: C1

    Geometry (in Angstrom), charge = 0, multiplicity = 1:

       Center              X                  Y                   Z               Mass       
    ------------   -----------------  -----------------  -----------------  -----------------
           H         -2.315104117293     0.046859560152     0.508542036563     1.007825032070
           H         -2.174104117293     1.674859560152    -0.111457963437     1.007825032070
           H         -1.876104117293     0.310859560152    -1.161457963437     1.007825032070
           C         -1.777104117293     0.681859560152    -0.163457963437    12.000000000000
           H          0.249895882707     1.337859560152    -0.441457963437     1.007825032070
           H         -0.188104117293     1.074859560152     1.229542036563     1.007825032070
           C         -0.288104117293     0.702859560152     0.231542036563    12.000000000000
           H          0.161895882707    -1.208140439848     1.103542036563     1.007825032070
           H         -0.237104117293    -1.279140439848    -0.595457963437     1.007825032070
           C          0.283895882707    -0.725140439848     0.156542036563    12.000000000000
           H          2.177895882707    -1.653140439848    -0.250457963437     1.007825032070
           H          2.302895882707    -0.107140439848     0.552542036563     1.007825032070
           H          1.902895882707    -0.179140439848    -1.145457963437     1.007825032070
           C          1.780895882707    -0.661140439848    -0.198457963437    12.000000000000

  Running in c1 symmetry.

  Rotational constants: A =      0.71022  B =      0.12636  C =      0.11998 [cm^-1]
  Rotational constants: A =  21291.88740  B =   3788.24643  C =   3596.80358 [MHz]
  Nuclear repulsion =  132.013618113634067

  Charge       = 0
  Multiplicity = 1
  Electrons    = 34
  Nalpha       = 17
  Nbeta        = 17

  ==> Algorithm <==

  SCF Algorithm Type is DF.
  DIIS enabled.
  MOM disabled.
  Fractional occupation disabled.
  Guess Type is SAD.
  Energy threshold   = 1.00e-08
  Density threshold  = 1.00e-08
  Integral threshold = 0.00e+00

  ==> Primary Basis <==

  Basis Set: CC-PVDZ
    Number of shells: 54
    Number of basis function: 106
    Number of Cartesian functions: 110
    Spherical Harmonics?: true
    Max angular momentum: 2

  ==> DFT Potential <==

   => B3LYP Composite Functional <= 

    B3LYP Hybrid-GGA Exchange-Correlation Functional (VWN1-RPA)

    P.J. Stephens et. al., J. Phys. Chem., 98, 11623-11627, 1994

    Points   =           5000
    Deriv    =              1
    GGA      =           TRUE
    Meta     =          FALSE

    X_LRC        =          FALSE
    X_Hybrid     =           TRUE
    X_Alpha      =   2.000000E-01
    X_Omega      =   0.000000E+00
    C_LRC        =          FALSE
    C_Hybrid     =          FALSE
    C_Alpha      =   0.000000E+00
    C_Omega      =   0.000000E+00

   => Exchange Functionals <=

    0.8000    B3_X
    0.2000      HF 

   => Correlation Functionals <=

    0.1900 VWN3RPA_C
    0.8100   LYP_C

   => Molecular Quadrature <=

    Radial Scheme    =       TREUTLER
    Pruning Scheme   =           FLAT
    Nuclear Scheme   =       TREUTLER

    BS radius alpha  =              1
    Pruning alpha    =              1
    Radial Points    =             75
    Spherical Points =            302
    Total Points     =         312745
    Total Blocks     =            272
    Max Points       =           4880
    Max Functions    =            106

  ==> Pre-Iterations <==

   -------------------------------------------------------
    Irrep   Nso     Nmo     Nalpha   Nbeta   Ndocc  Nsocc
   -------------------------------------------------------
     A        106     106       0       0       0       0
   -------------------------------------------------------
    Total     106     106      17      17      17       0
   -------------------------------------------------------

  ==> Integral Setup <==

  ==> DFJK: Density-Fitted J/K Matrices <==

    J tasked:                  Yes
    K tasked:                  Yes
    wK tasked:                  No
    OpenMP threads:              1
    Integrals threads:           1
    Memory (MB):               715
    Algorithm:                Core
    Integral Cache:           NONE
    Schwarz Cutoff:          1E-12
    Fitting Condition:       1E-12

   => Auxiliary Basis Set <=

  Basis Set: 
    Number of shells: 186
    Number of basis function: 510
    Number of Cartesian functions: 574
    Spherical Harmonics?: true
    Max angular momentum: 3

  Minimum eigenvalue in the overlap matrix is 4.0399941479E-03.
  Using Symmetric Orthogonalization.
  SCF Guess: Superposition of Atomic Densities via on-the-fly atomic UHF.

  ==> Iterations <==

                           Total Energy        Delta E     RMS |[F,P]|

   @DF-RKS iter   0:  -159.06743263734708   -1.59067e+02   3.41164e-02 
   @DF-RKS iter   1:  -158.31474769066816    7.52685e-01   4.49252e-03 
   @DF-RKS iter   2:  -158.28079543631179    3.39523e-02   5.16237e-03 DIIS
   @DF-RKS iter   3:  -158.44568049779033   -1.64885e-01   3.54362e-04 DIIS
   @DF-RKS iter   4:  -158.44634872140702   -6.68224e-04   1.25893e-04 DIIS
   @DF-RKS iter   5:  -158.44642865811369   -7.99367e-05   4.34955e-05 DIIS
   @DF-RKS iter   6:  -158.44643912384265   -1.04657e-05   3.99648e-06 DIIS
   @DF-RKS iter   7:  -158.44643921764285   -9.38002e-08   8.30704e-07 DIIS
   @DF-RKS iter   8:  -158.44643922211142   -4.46857e-09   1.36957e-07 DIIS
   @DF-RKS iter   9:  -158.44643922223054   -1.19115e-10   3.11459e-08 DIIS
   @DF-RKS iter  10:  -158.44643922223716   -6.62226e-12   6.52447e-09 DIIS

  ==> Post-Iterations <==

    Orbital Energies (a.u.)
    -----------------------

    Doubly Occupied:                                                      

       1A    -10.169493     2A    -10.169308     3A    -10.164147  
       4A    -10.163985     5A     -0.794469     6A     -0.723479  
       7A     -0.630337     8A     -0.579712     9A     -0.472127  
      10A     -0.425741    11A     -0.425604    12A     -0.404569  
      13A     -0.366322    14A     -0.358412    15A     -0.330215  
      16A     -0.328594    17A     -0.309379  

    Virtual:                                                              

      18A      0.064159    19A      0.087962    20A      0.102960  
      21A      0.109106    22A      0.143663    23A      0.149456  
      24A      0.154410    25A      0.163265    26A      0.163642  
      27A      0.167306    28A      0.228449    29A      0.242792  
      30A      0.249077    31A      0.405660    32A      0.415895  
      33A      0.431594    34A      0.433261    35A      0.461670  
      36A      0.497262    37A      0.509140    38A      0.584392  
      39A      0.601283    40A      0.644328    41A      0.664754  
      42A      0.665565    43A      0.667202    44A      0.680088  
      45A      0.681253    46A      0.684975    47A      0.692230  
      48A      0.702396    49A      0.715396    50A      0.736640  
      51A      0.748523    52A      0.753263    53A      0.882145  
      54A      0.894304    55A      0.974994    56A      1.111448  
      57A      1.160985    58A      1.199639    59A      1.241381  
      60A      1.275872    61A      1.300040    62A      1.345675  
      63A      1.436450    64A      1.441340    65A      1.486655  
      66A      1.504339    67A      1.551152    68A      1.597192  
      69A      1.601734    70A      1.642582    71A      1.652437  
      72A      1.666302    73A      1.675892    74A      1.694178  
      75A      1.701918    76A      1.725692    77A      1.735470  
      78A      1.739580    79A      1.751295    80A      1.766358  
      81A      1.799782    82A      1.800866    83A      1.895988  
      84A      1.936020    85A      1.978602    86A      2.002603  
      87A      2.008548    88A      2.062567    89A      2.081901  
      90A      2.209027    91A      2.225741    92A      2.250533  
      93A      2.277552    94A      2.323025    95A      2.345661  
      96A      2.362731    97A      2.506754    98A      2.507826  
      99A      2.513074   100A      2.531605   101A      2.552460  
     102A      2.591347   103A      2.611360   104A      2.652781  
     105A      2.719794   106A      2.749717  

    Final Occupation by Irrep:
              A 
    DOCC [    17 ]

  Energy converged.

  @DF-RKS Final Energy:  -158.44643922223716

   => Energetics <=

    Nuclear Repulsion Energy =            132.0136181136340667
    One-Electron Energy =                -472.4227650817925337
    Two-Electron Energy =                 202.6431733942869187
    DFT Exchange-Correlation Energy =     -20.6804656483656508
    Empirical Dispersion Energy =           0.0000000000000000
    PCM Polarization Energy =               0.0000000000000000
    EFP Energy =                            0.0000000000000000
    Total Energy =                       -158.4464392222371600


  Saving occupied orbitals to File 180.

*** tstop() called on lski1497 at Tue Feb 21 17:42:13 2017
Module time:
	user time   =     110.96 seconds =       1.85 minutes
	system time =       1.15 seconds =       0.02 minutes
	total time  =        124 seconds =       2.07 minutes
Total time:
	user time   =     110.96 seconds =       1.85 minutes
	system time =       1.15 seconds =       0.02 minutes
	total time  =        124 seconds =       2.07 minutes


Properties will be evaluated at   0.000000,   0.000000,   0.000000 Bohr

Properties computed using the SCF density matrix

  Nuclear Dipole Moment: (a.u.)
     X:     0.0046      Y:     0.0174      Z:    -0.2921

  Electronic Dipole Moment: (a.u.)
     X:    -0.0046      Y:    -0.0189      Z:     0.3119

  Dipole Moment: (a.u.)
     X:     0.0000      Y:    -0.0015      Z:     0.0198     Total:     0.0198

  Dipole Moment: (Debye)
     X:     0.0000      Y:    -0.0038      Z:     0.0503     Total:     0.0504


*** tstart() called on lski1497
*** at Tue Feb 21 17:42:13 2017


         ------------------------------------------------------------
                                   SCF GRAD                          
                          Rob Parrish, Justin Turney,                
                       Andy Simmonett, and Alex Sokolov              
         ------------------------------------------------------------

  ==> Geometry <==

    Molecular point group: c1
    Full point group: C1

    Geometry (in Angstrom), charge = 0, multiplicity = 1:

       Center              X                  Y                   Z               Mass       
    ------------   -----------------  -----------------  -----------------  -----------------
           H         -2.315104117293     0.046859560152     0.508542036563     1.007825032070
           H         -2.174104117293     1.674859560152    -0.111457963437     1.007825032070
           H         -1.876104117293     0.310859560152    -1.161457963437     1.007825032070
           C         -1.777104117293     0.681859560152    -0.163457963437    12.000000000000
           H          0.249895882707     1.337859560152    -0.441457963437     1.007825032070
           H         -0.188104117293     1.074859560152     1.229542036563     1.007825032070
           C         -0.288104117293     0.702859560152     0.231542036563    12.000000000000
           H          0.161895882707    -1.208140439848     1.103542036563     1.007825032070
           H         -0.237104117293    -1.279140439848    -0.595457963437     1.007825032070
           C          0.283895882707    -0.725140439848     0.156542036563    12.000000000000
           H          2.177895882707    -1.653140439848    -0.250457963437     1.007825032070
           H          2.302895882707    -0.107140439848     0.552542036563     1.007825032070
           H          1.902895882707    -0.179140439848    -1.145457963437     1.007825032070
           C          1.780895882707    -0.661140439848    -0.198457963437    12.000000000000

  Nuclear repulsion =  132.013618113634067

  ==> Basis Set <==

  Basis Set: CC-PVDZ
    Number of shells: 54
    Number of basis function: 106
    Number of Cartesian functions: 110
    Spherical Harmonics?: true
    Max angular momentum: 2

  ==> DFJKGrad: Density-Fitted SCF Gradients <==

    Gradient:                    1
    J tasked:                  Yes
    K tasked:                  Yes
    wK tasked:                  No
    OpenMP threads:              1
    Integrals threads:           1
    Memory (MB):               715
    Schwarz Cutoff:          0E+00
    Fitting Condition:       1E-12

   => Auxiliary Basis Set <=

  Basis Set: 
    Number of shells: 186
    Number of basis function: 510
    Number of Cartesian functions: 574
    Spherical Harmonics?: true
    Max angular momentum: 3

  ==> DFT Potential <==

   => B3LYP Composite Functional <= 

    B3LYP Hybrid-GGA Exchange-Correlation Functional (VWN1-RPA)

    P.J. Stephens et. al., J. Phys. Chem., 98, 11623-11627, 1994

    Points   =           5000
    Deriv    =              1
    GGA      =           TRUE
    Meta     =          FALSE

    X_LRC        =          FALSE
    X_Hybrid     =           TRUE
    X_Alpha      =   2.000000E-01
    X_Omega      =   0.000000E+00
    C_LRC        =          FALSE
    C_Hybrid     =          FALSE
    C_Alpha      =   0.000000E+00
    C_Omega      =   0.000000E+00

   => Exchange Functionals <=

    0.8000    B3_X
    0.2000      HF 

   => Correlation Functionals <=

    0.1900 VWN3RPA_C
    0.8100   LYP_C

   => Molecular Quadrature <=

    Radial Scheme    =       TREUTLER
    Pruning Scheme   =           FLAT
    Nuclear Scheme   =       TREUTLER

    BS radius alpha  =              1
    Pruning alpha    =              1
    Radial Points    =             75
    Spherical Points =            302
    Total Points     =         312745
    Total Blocks     =            272
    Max Points       =           4880
    Max Functions    =            106


  -Total Gradient:
     Atom            X                  Y                   Z
    ------   -----------------  -----------------  -----------------
       1        0.014426213009     0.013067172594    -0.012525715176
       2        0.012935537006    -0.018889430233     0.000026553198
       3        0.005070470544     0.007610754846     0.021176379815
       4       -0.028747974449    -0.009181679525    -0.010991304783
       5       -0.011456648857    -0.015199234607     0.012543665683
       6       -0.004708979684    -0.011513862507    -0.020036485894
       7        0.026233517293     0.031526228415     0.009849890716
       8        0.005172773524     0.013605810881    -0.018338314868
       9        0.011457640622     0.013923275144     0.014903417293
      10       -0.026382069383    -0.032592006274     0.004762575990
      11       -0.013227262464     0.019445580687     0.001911534802
      12       -0.014194198912    -0.011695315319    -0.014540348486
      13       -0.005496287138    -0.009854321703     0.019925310248
      14        0.028917182218     0.009746770683    -0.008662135827


*** tstop() called on lski1497 at Tue Feb 21 17:42:59 2017
Module time:
	user time   =      42.61 seconds =       0.71 minutes
	system time =       0.49 seconds =       0.01 minutes
	total time  =         46 seconds =       0.77 minutes
Total time:
	user time   =     153.60 seconds =       2.56 minutes
	system time =       1.64 seconds =       0.03 minutes
	total time  =        170 seconds =       2.83 minutes

			-----------------------------------------
			 OPTKING 2.0: for geometry optimizations 
			  - R.A. King,  Bethel University        
			-----------------------------------------

	Internal coordinates to be generated automatically.
	Detected frag 1 with atoms:  1 2 3 4 5 6 7 8 9 10 11 12 13 14
	---Fragment 1 Bond Connectivity---
	 1 : 4
	 2 : 4
	 3 : 4
	 4 : 1 2 3 7
	 5 : 7
	 6 : 7
	 7 : 4 5 6 10
	 8 : 10
	 9 : 10
	 10 : 7 8 9 14
	 11 : 14
	 12 : 14
	 13 : 14
	 14 : 10 11 12 13

	Assuming in current code that numbering for constraints corresponds to unified fragment.
	Fixed dihedral atom list: 
	     4     7    10    14
	---Fragment 1 Geometry and Gradient---
	 H          -4.3749127508        0.0885517354        0.9610051762
	 H          -4.1084613661        3.1650258797       -0.2106250262
	 H          -3.5453229785        0.5874394345       -2.1948374658
	 C          -3.3582400913        1.2885278298       -0.3088907851
	 H           0.4722347801        2.5281881730       -0.8342346501
	 H          -0.3554652662        2.0311902000        2.3234977180
	 C          -0.5444378794        1.3282120786        0.4375510374
	 H           0.3059388804       -2.2830545614        2.0853922252
	 H          -0.4480618467       -2.4172251168       -1.1252524745
	 C           0.5364854686       -1.3703168392        0.2958215774
	 H           4.1156267643       -3.1239826905       -0.4732969587
	 H           4.3518425309       -0.2024660891        1.0441531260
	 H           3.5959520777       -0.3385263706       -2.1646018476
	 C           3.3654054895       -1.2493743667       -0.3750311998
	             0.0144262130        0.0130671726       -0.0125257152
	             0.0129355370       -0.0188894302        0.0000265532
	             0.0050704705        0.0076107548        0.0211763798
	            -0.0287479744       -0.0091816795       -0.0109913048
	            -0.0114566489       -0.0151992346        0.0125436657
	            -0.0047089797       -0.0115138625       -0.0200364859
	             0.0262335173        0.0315262284        0.0098498907
	             0.0051727735        0.0136058109       -0.0183383149
	             0.0114576406        0.0139232751        0.0149034173
	            -0.0263820694       -0.0325920063        0.0047625760
	            -0.0132272625        0.0194455807        0.0019115348
	            -0.0141941989       -0.0116953153       -0.0145403485
	            -0.0054962871       -0.0098543217        0.0199253102
	             0.0289171822        0.0097467707       -0.0086621358

	Previous optimization step data not found.  Starting new optimization.

	---Fragment 1 Intrafragment Coordinates---
	 - Coordinate -           - BOHR/RAD -       - ANG/DEG -
	 R(1,4)           =         2.021436	       1.069698
	 R(2,4)           =         2.023298	       1.070683
	 R(3,4)           =         2.020723	       1.069320
	 R(4,7)           =         2.911397	       1.540645
	 R(5,7)           =         2.022623	       1.070326
	 R(6,7)           =         2.021555	       1.069761
	 R(7,10)          =         2.910419	       1.540128
	 R(8,10)          =         2.022079	       1.070038
	 R(9,10)          =         2.021089	       1.069514
	 R(10,14)         =         2.909890	       1.539847
	 R(11,14)         =         2.021545	       1.069756
	 R(12,14)         =         2.020683	       1.069299
	 R(13,14)         =         2.021227	       1.069587
	 B(1,4,2)         =         1.910870	     109.484805
	 B(1,4,3)         =         1.911121	     109.499161
	 B(1,4,7)         =         1.910399	     109.457783
	 B(2,4,3)         =         1.910042	     109.437340
	 B(2,4,7)         =         1.910564	     109.467262
	 B(3,4,7)         =         1.910803	     109.480971
	 B(4,7,5)         =         1.909937	     109.431343
	 B(4,7,6)         =         1.911630	     109.528316
	 B(4,7,10)        =         1.911154	     109.501062
	 B(5,7,6)         =         1.910605	     109.469614
	 B(5,7,10)        =         1.910047	     109.437654
	 B(6,7,10)        =         1.910425	     109.459295
	 B(7,10,8)        =         1.910365	     109.455850
	 B(7,10,9)        =         1.910915	     109.487349
	 B(7,10,14)       =         1.911079	     109.496758
	 B(8,10,9)        =         1.910194	     109.446063
	 B(8,10,14)       =         1.910955	     109.489630
	 B(9,10,14)       =         1.910292	     109.451665
	 B(10,14,11)      =         1.910758	     109.478386
	 B(10,14,12)      =         1.911556	     109.524097
	 B(10,14,13)      =         1.911063	     109.495819
	 B(11,14,12)      =         1.910716	     109.475986
	 B(11,14,13)      =         1.909768	     109.421674
	 B(12,14,13)      =         1.909937	     109.431304
	 D(1,4,7,5)       =         3.140997	     179.965873
	 D(1,4,7,6)       =        -1.047644	     -60.025575
	 D(1,4,7,10)      =         1.047427	      60.013132
	 D(2,4,7,5)       =        -1.047689	     -60.028143
	 D(2,4,7,6)       =         1.046856	      59.980409
	 D(2,4,7,10)      =        -3.141259	    -179.980883
	 D(3,4,7,5)       =         1.046044	      59.933911
	 D(3,4,7,6)       =         3.140588	     179.942463
	 D(3,4,7,10)      =        -1.047526	     -60.018830
	 D(4,7,10,8)      =        -1.570087	     -89.959382
	 D(4,7,10,9)      =         0.523778	      30.010270
	 D(4,7,10,14)     =         2.618201	     150.011845
	 D(5,7,10,8)      =         2.619595	     150.091742
	 D(5,7,10,9)      =        -1.569725	     -89.938606
	 D(5,7,10,14)     =         0.524698	      30.062970
	 D(6,7,10,8)      =         0.525720	      30.121544
	 D(6,7,10,9)      =         2.619586	     150.091196
	 D(6,7,10,14)     =        -1.569177	     -89.907229
	 D(7,10,14,11)    =         3.141576	     179.999054
	 D(7,10,14,12)    =         1.046437	      59.956407
	 D(7,10,14,13)    =        -1.047934	     -60.042179
	 D(8,10,14,11)    =         1.047040	      59.990954
	 D(8,10,14,12)    =        -1.048100	     -60.051694
	 D(8,10,14,13)    =         3.140715	     179.949720
	 D(9,10,14,11)    =        -1.046805	     -59.977532
	 D(9,10,14,12)    =         3.141240	     179.979821
	 D(9,10,14,13)    =         1.046870	      59.981235

	Current energy   :      -158.4464392222

	Generating empirical Hessian (Schlegel '84) for each fragment.
	Adding user-defined constraint: Fragment 1; Coordinate 49:
		Value =     2.618201; Fixed value    =     2.617994
		Force =    -0.000103; Force constant =     0.500000
	Removing off-diagonal coupling between coordinate 49 and others.
	Taking RFO optimization step.
	Going to follow RFO solution 1.
	Using RFO vector 1.

	Determining step-restricting scale parameter for RS-RFO.
	Maximum step size allowed    0.10000

	 Iter      |step|        alpha        rfo_root  
	------------------------------------------------
	    0     0.26387       1.00000           1
	    1     0.19570       5.69308           1
	    2     0.14482      18.51615           1
	    3     0.11517      37.91291           1
	    4     0.10269      52.47893           1
	    5     0.10011      56.27678           1
	    6     0.10000      56.44819           1
	------------------------------------------------
	Norm of target step-size    0.10000
	Projected energy change by RFO approximation:        -0.0076075264

	Back-transformation to cartesian coordinates...
	Successfully converged to displaced geometry.

	--- Internal Coordinate Step in ANG or DEG, aJ/ANG or AJ/DEG ---
	 ---------------------------------------------------------------------------
	   Coordinate                Previous        Force       Change         New 
	   ----------                --------       ------       ------       ------
	    1 R(1,4)          =      1.069698     0.188508     0.015015     1.084712
	    2 R(2,4)          =      1.070683     0.183847     0.014666     1.085349
	    3 R(3,4)          =      1.069320     0.188445     0.015001     1.084321
	    4 R(4,7)          =      1.540645     0.023599     0.002110     1.542755
	    5 R(5,7)          =      1.070326     0.186717     0.014887     1.085213
	    6 R(6,7)          =      1.069761     0.190619     0.015184     1.084945
	    7 R(7,10)         =      1.540128     0.061803     0.005523     1.545650
	    8 R(8,10)         =      1.070038     0.189172     0.015076     1.085114
	    9 R(9,10)         =      1.069514     0.191737     0.015267     1.084782
	   10 R(10,14)        =      1.539847     0.026813     0.002395     1.542242
	   11 R(11,14)        =      1.069756     0.189778     0.015117     1.084873
	   12 R(12,14)        =      1.069299     0.191138     0.015215     1.084514
	   13 R(13,14)        =      1.069587     0.187089     0.014899     1.084486
	   14 B(1,4,2)        =    109.484805    -0.000336    -0.424877   109.059928
	   15 B(1,4,3)        =    109.499161    -0.000251    -0.327216   109.171946
	   16 B(1,4,7)        =    109.457783     0.000243     0.305594   109.763376
	   17 B(2,4,3)        =    109.437340    -0.000304    -0.385542   109.051798
	   18 B(2,4,7)        =    109.467262     0.000466     0.596607   110.063869
	   19 B(3,4,7)        =    109.480971     0.000180     0.227760   109.708731
	   20 B(4,7,5)        =    109.431343    -0.000229    -0.263721   109.167622
	   21 B(4,7,6)        =    109.528316    -0.000263    -0.282897   109.245419
	   22 B(4,7,10)       =    109.501062     0.000918     1.088799   110.589861
	   23 B(5,7,6)        =    109.469614     0.000003    -0.089612   109.380002
	   24 B(5,7,10)       =    109.437654    -0.000222    -0.236616   109.201038
	   25 B(6,7,10)       =    109.459295    -0.000208    -0.220259   109.239035
	   26 B(7,10,8)       =    109.455850    -0.000210    -0.223254   109.232596
	   27 B(7,10,9)       =    109.487349    -0.000227    -0.243959   109.243390
	   28 B(7,10,14)      =    109.496758     0.000922     1.094241   110.590999
	   29 B(8,10,9)       =    109.446063     0.000005    -0.087198   109.358865
	   30 B(8,10,14)      =    109.489630    -0.000261    -0.279051   109.210578
	   31 B(9,10,14)      =    109.451665    -0.000231    -0.265444   109.186221
	   32 B(10,14,11)     =    109.478386     0.000467     0.597335   110.075721
	   33 B(10,14,12)     =    109.524097     0.000231     0.290349   109.814446
	   34 B(10,14,13)     =    109.495819     0.000179     0.225446   109.721265
	   35 B(11,14,12)     =    109.475986    -0.000332    -0.420303   109.055684
	   36 B(11,14,13)     =    109.421674    -0.000303    -0.384352   109.037322
	   37 B(12,14,13)     =    109.431304    -0.000243    -0.317283   109.114021
	   38 D(1,4,7,5)      =    179.965873     0.000027     0.165302   180.131175
	   39 D(1,4,7,6)      =    -60.025575    -0.000042    -0.275010   -60.300585
	   40 D(1,4,7,10)     =     60.013132    -0.000008    -0.049551    59.963581
	   41 D(2,4,7,5)      =    -60.028143     0.000032     0.201927   -59.826215
	   42 D(2,4,7,6)      =     59.980409    -0.000036    -0.238385    59.742024
	   43 D(2,4,7,10)     =   -179.980883    -0.000002    -0.012926  -179.993809
	   44 D(3,4,7,5)      =     59.933911     0.000037     0.238067    60.171978
	   45 D(3,4,7,6)      =    179.942463    -0.000031    -0.202245   179.740218
	   46 D(3,4,7,10)     =    -60.018830     0.000003     0.023214   -59.995615
	   47 D(4,7,10,8)     =    -89.959382     0.000045     0.288884   -89.670498
	   48 D(4,7,10,9)     =     30.010270    -0.000015    -0.100537    29.909733
	   49 D(4,7,10,14)    =    150.011845     0.000018     0.096157   150.108003
	   50 D(5,7,10,8)     =    150.091742     0.000012     0.090176   150.181919
	   51 D(5,7,10,9)     =    -89.938606    -0.000048    -0.299244   -90.237850
	   52 D(5,7,10,14)    =     30.062970    -0.000015    -0.102550    29.960420
	   53 D(6,7,10,8)     =     30.121544     0.000071     0.475943    30.597487
	   54 D(6,7,10,9)     =    150.091196     0.000011     0.086523   150.177719
	   55 D(6,7,10,14)    =    -89.907229     0.000044     0.283217   -89.624012
	   56 D(7,10,14,11)   =    179.999054    -0.000002    -0.011609   179.987445
	   57 D(7,10,14,12)   =     59.956407    -0.000007    -0.045953    59.910454
	   58 D(7,10,14,13)   =    -60.042179     0.000003     0.025233   -60.016946
	   59 D(8,10,14,11)   =     59.990954    -0.000036    -0.238183    59.752771
	   60 D(8,10,14,12)   =    -60.051694    -0.000041    -0.272526   -60.324220
	   61 D(8,10,14,13)   =    179.949720    -0.000031    -0.201340   179.748380
	   62 D(9,10,14,11)   =    -59.977532     0.000031     0.197459   -59.780072
	   63 D(9,10,14,12)   =    179.979821     0.000026     0.163116   180.142937
	   64 D(9,10,14,13)   =     59.981235     0.000037     0.234302    60.215536
	 ---------------------------------------------------------------------------
	 Forces used to impose fixed constraints are not included.
	  Forces zeroed: 49 

  ==> Convergence Check <==

  Measures of convergence in internal coordinates in au.
  Criteria marked as inactive (o), active & met (*), and active & unmet ( ).
  --------------------------------------------------------------------------------------------- ~
   Step     Total Energy     Delta E     MAX Force     RMS Force      MAX Disp      RMS Disp    ~
  --------------------------------------------------------------------------------------------- ~
    Convergence Criteria    1.00e-06 *    3.00e-04 *             o    1.20e-03 *             o  ~
  --------------------------------------------------------------------------------------------- ~
      1    -158.44643922   -1.58e+02      2.33e-02      9.66e-03 o    2.89e-02      1.25e-02 o  ~
  ---------------------------------------------------------------------------------------------

	Writing optimization data to binary file.
	Structure for next step:
	Cartesian Geometry (in Angstrom)
	    H    -2.3427458404   0.0324107988   0.5147679646
	    H    -2.2081062521   1.6814697921  -0.1064932594
	    H    -1.9018989340   0.3077986095  -1.1748152639
	    C    -1.7948126183   0.6794162566  -0.1618072669
	    H     0.2354708646   1.3512837743  -0.4511596034
	    H    -0.2039262786   1.0770359927   1.2423297867
	    C    -0.3027386464   0.6999335880   0.2298399638
	    H     0.1773952472  -1.2122929983   1.1154609497
	    H    -0.2228501034  -1.2909605754  -0.6073932127
	    C     0.2984850867  -0.7220250901   0.1550198854
	    H     2.2120230452  -1.6605771785  -0.2469765359
	    H     2.3305441715  -0.0938054088   0.5608360443
	    H     1.9289920141  -0.1738810643  -1.1581396480
	    C     1.7987106019  -0.6587726544  -0.1968812925
			--------------------------
			 OPTKING Finished Execution 
			--------------------------

    Structure for next step:
    Molecular point group: c1
    Full point group: C1

    Geometry (in Angstrom), charge = 0, multiplicity = 1:

    H           -2.342757365381     0.032389249165     0.514767369622
    H           -2.208117777028     1.681448242451    -0.106493854315
    H           -1.901910458980     0.307777059898    -1.174815858864
    C           -1.794824143193     0.679394707034    -0.161807861887
    H            0.235459339644     1.351262224681    -0.451160198347
    H           -0.203937803517     1.077014443044     1.242329191760
    C           -0.302750171342     0.699912038369     0.229839368847
    H            0.177383722216    -1.212314547916     1.115460354787
    H           -0.222861628378    -1.290982125041    -0.607393807626
    C            0.298473561792    -0.722046639758     0.155019290476
    H            2.212011520248    -1.660598728084    -0.246977130875
    H            2.330532646523    -0.093826958400     0.560835449311
    H            1.928980489173    -0.173902613921    -1.158140242911
    C            1.798699076979    -0.658794203965    -0.196881887500

gradient() will perform analytic gradient computation.

*** tstart() called on lski1497
*** at Tue Feb 21 17:43:00 2017


         ---------------------------------------------------------
                                   SCF
            by Justin Turney, Rob Parrish, and Andy Simmonett
                              RKS Reference
                        1 Threads,   1000 MiB Core
         ---------------------------------------------------------

  ==> Geometry <==

    Molecular point group: c1
    Full point group: C1

    Geometry (in Angstrom), charge = 0, multiplicity = 1:

       Center              X                  Y                   Z               Mass       
    ------------   -----------------  -----------------  -----------------  -----------------
           H         -2.342757365381     0.032389249165     0.514767369622     1.007825032070
           H         -2.208117777028     1.681448242451    -0.106493854315     1.007825032070
           H         -1.901910458980     0.307777059898    -1.174815858864     1.007825032070
           C         -1.794824143193     0.679394707034    -0.161807861887    12.000000000000
           H          0.235459339644     1.351262224681    -0.451160198347     1.007825032070
           H         -0.203937803517     1.077014443044     1.242329191760     1.007825032070
           C         -0.302750171342     0.699912038369     0.229839368847    12.000000000000
           H          0.177383722216    -1.212314547916     1.115460354787     1.007825032070
           H         -0.222861628378    -1.290982125041    -0.607393807626     1.007825032070
           C          0.298473561792    -0.722046639758     0.155019290476    12.000000000000
           H          2.212011520248    -1.660598728084    -0.246977130875     1.007825032070
           H          2.330532646523    -0.093826958400     0.560835449311     1.007825032070
           H          1.928980489173    -0.173902613921    -1.158140242911     1.007825032070
           C          1.798699076979    -0.658794203965    -0.196881887500    12.000000000000

  Running in c1 symmetry.

  Rotational constants: A =      0.70763  B =      0.12395  C =      0.11794 [cm^-1]
  Rotational constants: A =  21214.33251  B =   3716.00001  C =   3535.71778 [MHz]
  Nuclear repulsion =  130.939026066826301

  Charge       = 0
  Multiplicity = 1
  Electrons    = 34
  Nalpha       = 17
  Nbeta        = 17

  ==> Algorithm <==

  SCF Algorithm Type is DF.
  DIIS enabled.
  MOM disabled.
  Fractional occupation disabled.
  Guess Type is READ.
  Energy threshold   = 1.00e-08
  Density threshold  = 1.00e-08
  Integral threshold = 0.00e+00

  ==> Primary Basis <==

  Basis Set: CC-PVDZ
    Number of shells: 54
    Number of basis function: 106
    Number of Cartesian functions: 110
    Spherical Harmonics?: true
    Max angular momentum: 2

  ==> DFT Potential <==

   => B3LYP Composite Functional <= 

    B3LYP Hybrid-GGA Exchange-Correlation Functional (VWN1-RPA)

    P.J. Stephens et. al., J. Phys. Chem., 98, 11623-11627, 1994

    Points   =           5000
    Deriv    =              1
    GGA      =           TRUE
    Meta     =          FALSE

    X_LRC        =          FALSE
    X_Hybrid     =           TRUE
    X_Alpha      =   2.000000E-01
    X_Omega      =   0.000000E+00
    C_LRC        =          FALSE
    C_Hybrid     =          FALSE
    C_Alpha      =   0.000000E+00
    C_Omega      =   0.000000E+00

   => Exchange Functionals <=

    0.8000    B3_X
    0.2000      HF 

   => Correlation Functionals <=

    0.1900 VWN3RPA_C
    0.8100   LYP_C

   => Molecular Quadrature <=

    Radial Scheme    =       TREUTLER
    Pruning Scheme   =           FLAT
    Nuclear Scheme   =       TREUTLER

    BS radius alpha  =              1
    Pruning alpha    =              1
    Radial Points    =             75
    Spherical Points =            302
    Total Points     =         312774
    Total Blocks     =            273
    Max Points       =           4971
    Max Functions    =            106

  ==> Pre-Iterations <==

   -------------------------------------------------------
    Irrep   Nso     Nmo     Nalpha   Nbeta   Ndocc  Nsocc
   -------------------------------------------------------
     A        106     106       0       0       0       0
   -------------------------------------------------------
    Total     106     106      17      17      17       0
   -------------------------------------------------------

  ==> Integral Setup <==

  ==> DFJK: Density-Fitted J/K Matrices <==

    J tasked:                  Yes
    K tasked:                  Yes
    wK tasked:                  No
    OpenMP threads:              1
    Integrals threads:           1
    Memory (MB):               715
    Algorithm:                Core
    Integral Cache:           NONE
    Schwarz Cutoff:          1E-12
    Fitting Condition:       1E-12

   => Auxiliary Basis Set <=

  Basis Set: 
    Number of shells: 186
    Number of basis function: 510
    Number of Cartesian functions: 574
    Spherical Harmonics?: true
    Max angular momentum: 3

  Minimum eigenvalue in the overlap matrix is 4.1138942117E-03.
  Using Symmetric Orthogonalization.
  SCF Guess was Projection but file not found.
  Switching over to SAD guess.

  SCF Guess: Superposition of Atomic Densities via on-the-fly atomic UHF.

  ==> Iterations <==

                           Total Energy        Delta E     RMS |[F,P]|

   @DF-RKS iter   0:  -158.99867006661549   -1.58999e+02   3.32934e-02 
   @DF-RKS iter   1:  -158.32745765795761    6.71212e-01   4.35731e-03 
   @DF-RKS iter   2:  -158.29132758590754    3.61301e-02   5.07036e-03 DIIS
   @DF-RKS iter   3:  -158.45161747362869   -1.60290e-01   3.47594e-04 DIIS
   @DF-RKS iter   4:  -158.45226957775714   -6.52104e-04   1.22173e-04 DIIS
   @DF-RKS iter   5:  -158.45234444908348   -7.48713e-05   4.42243e-05 DIIS
   @DF-RKS iter   6:  -158.45235532012970   -1.08710e-05   3.98626e-06 DIIS
   @DF-RKS iter   7:  -158.45235541398745   -9.38578e-08   8.17417e-07 DIIS
   @DF-RKS iter   8:  -158.45235541835518   -4.36773e-09   1.40251e-07 DIIS
   @DF-RKS iter   9:  -158.45235541848308   -1.27898e-10   3.09038e-08 DIIS
   @DF-RKS iter  10:  -158.45235541848939   -6.30962e-12   5.07483e-09 DIIS

  ==> Post-Iterations <==

    Orbital Energies (a.u.)
    -----------------------

    Doubly Occupied:                                                      

       1A    -10.174367     2A    -10.174204     3A    -10.169621  
       4A    -10.169533     5A     -0.791034     6A     -0.720895  
       7A     -0.627792     8A     -0.575304     9A     -0.468681  
      10A     -0.423665    11A     -0.422802    12A     -0.403137  
      13A     -0.364449    14A     -0.356334    15A     -0.327743  
      16A     -0.326124    17A     -0.312858  

    Virtual:                                                              

      18A      0.062267    19A      0.085384    20A      0.100317  
      21A      0.106848    22A      0.141148    23A      0.145342  
      24A      0.151645    25A      0.158709    26A      0.160410  
      27A      0.163330    28A      0.225561    29A      0.242482  
      30A      0.247720    31A      0.405136    32A      0.413152  
      33A      0.427473    34A      0.428982    35A      0.461397  
      36A      0.498841    37A      0.508041    38A      0.580198  
      39A      0.596557    40A      0.636969    41A      0.656705  
      42A      0.657784    43A      0.660035    44A      0.674502  
      45A      0.674591    46A      0.675828    47A      0.685042  
      48A      0.699353    49A      0.705298    50A      0.730339  
      51A      0.737356    52A      0.747001    53A      0.882847  
      54A      0.889825    55A      0.971523    56A      1.103803  
      57A      1.161073    58A      1.196038    59A      1.236473  
      60A      1.264003    61A      1.292314    62A      1.339368  
      63A      1.427407    64A      1.431752    65A      1.486569  
      66A      1.490921    67A      1.545829    68A      1.589215  
      69A      1.589963    70A      1.631165    71A      1.643683  
      72A      1.655160    73A      1.666300    74A      1.679691  
      75A      1.686573    76A      1.710928    77A      1.723848  
      78A      1.730646    79A      1.742475    80A      1.754225  
      81A      1.784907    82A      1.786478    83A      1.888003  
      84A      1.916580    85A      1.961715    86A      1.988025  
      87A      2.002188    88A      2.055140    89A      2.071097  
      90A      2.183171    91A      2.199874    92A      2.229985  
      93A      2.252280    94A      2.303003    95A      2.312610  
      96A      2.333373    97A      2.463224    98A      2.464811  
      99A      2.479723   100A      2.501727   101A      2.523791  
     102A      2.551292   103A      2.591482   104A      2.621232  
     105A      2.689559   106A      2.719556  

    Final Occupation by Irrep:
              A 
    DOCC [    17 ]

  Energy converged.

  @DF-RKS Final Energy:  -158.45235541848939

   => Energetics <=

    Nuclear Repulsion Energy =            130.9390260668263011
    One-Electron Energy =                -470.3335996211768020
    Two-Electron Energy =                 201.5744034410934091
    DFT Exchange-Correlation Energy =     -20.6321853052323263
    Empirical Dispersion Energy =           0.0000000000000000
    PCM Polarization Energy =               0.0000000000000000
    EFP Energy =                            0.0000000000000000
    Total Energy =                       -158.4523554184893896


  Saving occupied orbitals to File 180.

*** tstop() called on lski1497 at Tue Feb 21 17:45:04 2017
Module time:
	user time   =     100.23 seconds =       1.67 minutes
	system time =       1.03 seconds =       0.02 minutes
	total time  =        124 seconds =       2.07 minutes
Total time:
	user time   =     254.54 seconds =       4.24 minutes
	system time =       2.71 seconds =       0.05 minutes
	total time  =        295 seconds =       4.92 minutes


Properties will be evaluated at   0.000000,   0.000000,   0.000000 Bohr

Properties computed using the SCF density matrix

  Nuclear Dipole Moment: (a.u.)
     X:     0.0045      Y:     0.0171      Z:    -0.2921

  Electronic Dipole Moment: (a.u.)
     X:    -0.0046      Y:    -0.0184      Z:     0.3102

  Dipole Moment: (a.u.)
     X:    -0.0001      Y:    -0.0012      Z:     0.0181     Total:     0.0182

  Dipole Moment: (Debye)
     X:    -0.0002      Y:    -0.0031      Z:     0.0461     Total:     0.0462


*** tstart() called on lski1497
*** at Tue Feb 21 17:45:04 2017


         ------------------------------------------------------------
                                   SCF GRAD                          
                          Rob Parrish, Justin Turney,                
                       Andy Simmonett, and Alex Sokolov              
         ------------------------------------------------------------

  ==> Geometry <==

    Molecular point group: c1
    Full point group: C1

    Geometry (in Angstrom), charge = 0, multiplicity = 1:

       Center              X                  Y                   Z               Mass       
    ------------   -----------------  -----------------  -----------------  -----------------
           H         -2.342757365381     0.032389249165     0.514767369622     1.007825032070
           H         -2.208117777028     1.681448242451    -0.106493854315     1.007825032070
           H         -1.901910458980     0.307777059898    -1.174815858864     1.007825032070
           C         -1.794824143193     0.679394707034    -0.161807861887    12.000000000000
           H          0.235459339644     1.351262224681    -0.451160198347     1.007825032070
           H         -0.203937803517     1.077014443044     1.242329191760     1.007825032070
           C         -0.302750171342     0.699912038369     0.229839368847    12.000000000000
           H          0.177383722216    -1.212314547916     1.115460354787     1.007825032070
           H         -0.222861628378    -1.290982125041    -0.607393807626     1.007825032070
           C          0.298473561792    -0.722046639758     0.155019290476    12.000000000000
           H          2.212011520248    -1.660598728084    -0.246977130875     1.007825032070
           H          2.330532646523    -0.093826958400     0.560835449311     1.007825032070
           H          1.928980489173    -0.173902613921    -1.158140242911     1.007825032070
           C          1.798699076979    -0.658794203965    -0.196881887500    12.000000000000

  Nuclear repulsion =  130.939026066826301

  ==> Basis Set <==

  Basis Set: CC-PVDZ
    Number of shells: 54
    Number of basis function: 106
    Number of Cartesian functions: 110
    Spherical Harmonics?: true
    Max angular momentum: 2

  ==> DFJKGrad: Density-Fitted SCF Gradients <==

    Gradient:                    1
    J tasked:                  Yes
    K tasked:                  Yes
    wK tasked:                  No
    OpenMP threads:              1
    Integrals threads:           1
    Memory (MB):               715
    Schwarz Cutoff:          0E+00
    Fitting Condition:       1E-12

   => Auxiliary Basis Set <=

  Basis Set: 
    Number of shells: 186
    Number of basis function: 510
    Number of Cartesian functions: 574
    Spherical Harmonics?: true
    Max angular momentum: 3

  ==> DFT Potential <==

   => B3LYP Composite Functional <= 

    B3LYP Hybrid-GGA Exchange-Correlation Functional (VWN1-RPA)

    P.J. Stephens et. al., J. Phys. Chem., 98, 11623-11627, 1994

    Points   =           5000
    Deriv    =              1
    GGA      =           TRUE
    Meta     =          FALSE

    X_LRC        =          FALSE
    X_Hybrid     =           TRUE
    X_Alpha      =   2.000000E-01
    X_Omega      =   0.000000E+00
    C_LRC        =          FALSE
    C_Hybrid     =          FALSE
    C_Alpha      =   0.000000E+00
    C_Omega      =   0.000000E+00

   => Exchange Functionals <=

    0.8000    B3_X
    0.2000      HF 

   => Correlation Functionals <=

    0.1900 VWN3RPA_C
    0.8100   LYP_C

   => Molecular Quadrature <=

    Radial Scheme    =       TREUTLER
    Pruning Scheme   =           FLAT
    Nuclear Scheme   =       TREUTLER

    BS radius alpha  =              1
    Pruning alpha    =              1
    Radial Points    =             75
    Spherical Points =            302
    Total Points     =         312774
    Total Blocks     =            273
    Max Points       =           4971
    Max Functions    =            106


  -Total Gradient:
     Atom            X                  Y                   Z
    ------   -----------------  -----------------  -----------------
       1        0.008519223361     0.006807973913    -0.005803158719
       2        0.007658565793    -0.009202426942     0.000159223975
       3        0.003776491814     0.003947144476     0.011005003900
       4       -0.019607296539    -0.006178825192    -0.007941940401
       5       -0.006205338713    -0.009126757773     0.005565277245
       6       -0.003920398896    -0.007886845647    -0.009633307705
       7        0.017977741531     0.022083974979     0.006806100867
       8        0.004153875944     0.008878141597    -0.008501704390
       9        0.006213812890     0.008525260106     0.006946444367
      10       -0.018063762923    -0.022749124995     0.003309416532
      11       -0.007795764225     0.009450357408     0.001043568501
      12       -0.008382326957    -0.006147481919    -0.006898936518
      13       -0.003980589908    -0.005108536625     0.010335639925
      14        0.019655699732     0.006707061332    -0.006389452971


*** tstop() called on lski1497 at Tue Feb 21 17:45:47 2017
Module time:
	user time   =      38.66 seconds =       0.64 minutes
	system time =       0.49 seconds =       0.01 minutes
	total time  =         43 seconds =       0.72 minutes
Total time:
	user time   =     293.22 seconds =       4.89 minutes
	system time =       3.20 seconds =       0.05 minutes
	total time  =        338 seconds =       5.63 minutes

			-----------------------------------------
			 OPTKING 2.0: for geometry optimizations 
			  - R.A. King,  Bethel University        
			-----------------------------------------

	Previous internal coordinate definitions found.
	---Fragment 1 Geometry and Gradient---
	 H          -4.4271698164        0.0612068106        0.9727693507
	 H          -4.1727378677        3.1774766849       -0.2012442195
	 H          -3.5940898967        0.5816143532       -2.2200802298
	 C          -3.3917260873        1.2838699324       -0.3057725451
	 H           0.4449536674        2.5535155384       -0.8525692169
	 H          -0.3853865968        2.0352623385        2.3476619393
	 C          -0.5721149105        1.3226420696        0.4343334617
	 H           0.3352066554       -2.2909424825        2.1079145826
	 H          -0.4211474432       -2.4396026588       -1.1478079512
	 C           0.5640332897       -1.3644704043        0.2929440043
	 H           4.1800959761       -3.1380768127       -0.4667191384
	 H           4.4040684457       -0.1773072553        1.0598254048
	 H           3.6452448402       -0.3286283141       -2.1885678826
	 C           3.3990486510       -1.2449406234       -0.3720528479
	             0.0085192234        0.0068079739       -0.0058031587
	             0.0076585658       -0.0092024269        0.0001592240
	             0.0037764918        0.0039471445        0.0110050039
	            -0.0196072965       -0.0061788252       -0.0079419404
	            -0.0062053387       -0.0091267578        0.0055652772
	            -0.0039203989       -0.0078868456       -0.0096333077
	             0.0179777415        0.0220839750        0.0068061009
	             0.0041538759        0.0088781416       -0.0085017044
	             0.0062138129        0.0085252601        0.0069464444
	            -0.0180637629       -0.0227491250        0.0033094165
	            -0.0077957642        0.0094503574        0.0010435685
	            -0.0083823270       -0.0061474819       -0.0068989365
	            -0.0039805899       -0.0051085366        0.0103356399
	             0.0196556997        0.0067070613       -0.0063894530

	---Fragment 1 Intrafragment Coordinates---
	 - Coordinate -           - BOHR/RAD -       - ANG/DEG -
	 R(1,4)           =         2.049809	       1.084712
	 R(2,4)           =         2.051012	       1.085349
	 R(3,4)           =         2.049070	       1.084321
	 R(4,7)           =         2.915385	       1.542755
	 R(5,7)           =         2.050755	       1.085213
	 R(6,7)           =         2.050249	       1.084945
	 R(7,10)          =         2.920856	       1.545650
	 R(8,10)          =         2.050568	       1.085114
	 R(9,10)          =         2.049941	       1.084782
	 R(10,14)         =         2.914416	       1.542242
	 R(11,14)         =         2.050112	       1.084873
	 R(12,14)         =         2.049434	       1.084514
	 R(13,14)         =         2.049382	       1.084486
	 B(1,4,2)         =         1.903455	     109.059928
	 B(1,4,3)         =         1.905410	     109.171946
	 B(1,4,7)         =         1.915732	     109.763376
	 B(2,4,3)         =         1.903313	     109.051798
	 B(2,4,7)         =         1.920977	     110.063869
	 B(3,4,7)         =         1.914779	     109.708731
	 B(4,7,5)         =         1.905334	     109.167622
	 B(4,7,6)         =         1.906692	     109.245419
	 B(4,7,10)        =         1.930157	     110.589861
	 B(5,7,6)         =         1.909041	     109.380002
	 B(5,7,10)        =         1.905918	     109.201038
	 B(6,7,10)        =         1.906581	     109.239035
	 B(7,10,8)        =         1.906468	     109.232596
	 B(7,10,9)        =         1.906657	     109.243390
	 B(7,10,14)       =         1.930177	     110.590999
	 B(8,10,9)        =         1.908672	     109.358865
	 B(8,10,14)       =         1.906084	     109.210578
	 B(9,10,14)       =         1.905659	     109.186221
	 B(10,14,11)      =         1.921184	     110.075721
	 B(10,14,12)      =         1.916624	     109.814446
	 B(10,14,13)      =         1.914997	     109.721265
	 B(11,14,12)      =         1.903381	     109.055684
	 B(11,14,13)      =         1.903060	     109.037322
	 B(12,14,13)      =         1.904399	     109.114021
	 D(1,4,7,5)       =        -3.139303	    -179.868825
	 D(1,4,7,6)       =        -1.052444	     -60.300585
	 D(1,4,7,10)      =         1.046562	      59.963581
	 D(2,4,7,5)       =        -1.044164	     -59.826215
	 D(2,4,7,6)       =         1.042695	      59.742024
	 D(2,4,7,10)      =        -3.141485	    -179.993809
	 D(3,4,7,5)       =         1.050199	      60.171978
	 D(3,4,7,6)       =         3.137059	     179.740218
	 D(3,4,7,10)      =        -1.047121	     -59.995615
	 D(4,7,10,8)      =        -1.565045	     -89.670498
	 D(4,7,10,9)      =         0.522023	      29.909733
	 D(4,7,10,14)     =         2.619879	     150.108003
	 D(5,7,10,8)      =         2.621169	     150.181919
	 D(5,7,10,9)      =        -1.574948	     -90.237850
	 D(5,7,10,14)     =         0.522908	      29.960420
	 D(6,7,10,8)      =         0.534027	      30.597487
	 D(6,7,10,9)      =         2.621096	     150.177719
	 D(6,7,10,14)     =        -1.564234	     -89.624012
	 D(7,10,14,11)    =         3.141374	     179.987445
	 D(7,10,14,12)    =         1.045635	      59.910454
	 D(7,10,14,13)    =        -1.047493	     -60.016946
	 D(8,10,14,11)    =         1.042883	      59.752771
	 D(8,10,14,12)    =        -1.052856	     -60.324220
	 D(8,10,14,13)    =         3.137201	     179.748380
	 D(9,10,14,11)    =        -1.043359	     -59.780072
	 D(9,10,14,12)    =        -3.139098	    -179.857063
	 D(9,10,14,13)    =         1.050959	      60.215536

	Current energy   :      -158.4523554185

	Energy change for the previous step:
		Projected    :        -0.0076075264
		Actual       :        -0.0059161963

	Performing BFGS update.
	Previous computed or guess Hessian on step 1.
	Steps to be used in Hessian update: 1
	Adding user-defined constraint: Fragment 1; Coordinate 49:
		Value =     2.619879; Fixed value    =     2.617990
		Force =    -0.000992; Force constant =     0.525000
	Removing off-diagonal coupling between coordinate 49 and others.
	Taking RFO optimization step.
	Going to follow RFO solution 1.
	Using RFO vector 1.

	Determining step-restricting scale parameter for RS-RFO.
	Maximum step size allowed    0.10000

	 Iter      |step|        alpha        rfo_root  
	------------------------------------------------
	    0     0.22057       1.00000           1
	    1     0.16639       5.04427           1
	    2     0.12907      14.26354           1
	    3     0.10876      26.24749           1
	    4     0.10116      33.45117           1
	    5     0.10002      34.71532           1
	    6     0.10000      34.74352           1
	------------------------------------------------
	Norm of target step-size    0.10000
	Projected energy change by RFO approximation:        -0.0041642368

	Back-transformation to cartesian coordinates...
	Could not converge backtransformation.
	Using first guess instead.

	--- Internal Coordinate Step in ANG or DEG, aJ/ANG or AJ/DEG ---
	 ---------------------------------------------------------------------------
	   Coordinate                Previous        Force       Change         New 
	   ----------                --------       ------       ------       ------
	    1 R(1,4)          =      1.084712     0.098725     0.012452     1.097165
	    2 R(2,4)          =      1.085349     0.093965     0.011557     1.096906
	    3 R(3,4)          =      1.084321     0.098917     0.012544     1.096865
	    4 R(4,7)          =      1.542755    -0.003156    -0.002598     1.540157
	    5 R(5,7)          =      1.085213     0.099260     0.012622     1.097835
	    6 R(6,7)          =      1.084945     0.099594     0.012461     1.097406
	    7 R(7,10)         =      1.545650     0.022876     0.001897     1.547548
	    8 R(8,10)         =      1.085114     0.098864     0.012376     1.097490
	    9 R(9,10)         =      1.084782     0.101665     0.012887     1.097669
	   10 R(10,14)        =      1.542242    -0.001230    -0.002297     1.539945
	   11 R(11,14)        =      1.084873     0.096771     0.011865     1.096738
	   12 R(12,14)        =      1.084514     0.099955     0.012581     1.097095
	   13 R(13,14)        =      1.084486     0.098229     0.012462     1.096949
	   14 B(1,4,2)        =    109.059928    -0.000259    -0.677574   108.382354
	   15 B(1,4,3)        =    109.171946    -0.000225    -0.677041   108.494905
	   16 B(1,4,7)        =    109.763376     0.000219     0.635222   110.398598
	   17 B(2,4,3)        =    109.051798    -0.000234    -0.612695   108.439103
	   18 B(2,4,7)        =    110.063869     0.000317     0.766287   110.830156
	   19 B(3,4,7)        =    109.708731     0.000173     0.517015   110.225746
	   20 B(4,7,5)        =    109.167622    -0.000138    -0.242201   108.925420
	   21 B(4,7,6)        =    109.245419    -0.000145    -0.202086   109.043333
	   22 B(4,7,10)       =    110.589861     0.000583     1.289389   111.879250
	   23 B(5,7,6)        =    109.380002    -0.000067    -0.554972   108.825030
	   24 B(5,7,10)       =    109.201038    -0.000126    -0.195241   109.005797
	   25 B(6,7,10)       =    109.239035    -0.000112    -0.126552   109.112483
	   26 B(7,10,8)       =    109.232596    -0.000113    -0.126708   109.105888
	   27 B(7,10,9)       =    109.243390    -0.000130    -0.207509   109.035881
	   28 B(7,10,14)      =    110.590999     0.000585     1.290861   111.881861
	   29 B(8,10,9)       =    109.358865    -0.000065    -0.550743   108.808123
	   30 B(8,10,14)      =    109.210578    -0.000143    -0.192176   109.018402
	   31 B(9,10,14)      =    109.186221    -0.000139    -0.245684   108.940537
	   32 B(10,14,11)     =    110.075721     0.000317     0.763899   110.839620
	   33 B(10,14,12)     =    109.814446     0.000210     0.609885   110.424331
	   34 B(10,14,13)     =    109.721265     0.000171     0.513299   110.234564
	   35 B(11,14,12)     =    109.055684    -0.000256    -0.670890   108.384794
	   36 B(11,14,13)     =    109.037322    -0.000233    -0.608613   108.428709
	   37 B(12,14,13)     =    109.114021    -0.000218    -0.656950   108.457071
	   38 D(1,4,7,5)      =   -179.868825     0.000022     0.349123  -179.519702
	   39 D(1,4,7,6)      =    -60.300585    -0.000035    -0.584661   -60.885246
	   40 D(1,4,7,10)     =     59.963581    -0.000005    -0.059680    59.903901
	   41 D(2,4,7,5)      =    -59.826215     0.000026     0.403721   -59.422495
	   42 D(2,4,7,6)      =     59.742024    -0.000031    -0.530063    59.211961
	   43 D(2,4,7,10)     =   -179.993809    -0.000001    -0.005083  -179.998891
	   44 D(3,4,7,5)      =     60.171978     0.000030     0.460673    60.632651
	   45 D(3,4,7,6)      =    179.740218    -0.000027    -0.473111   179.267107
	   46 D(3,4,7,10)     =    -59.995615     0.000003     0.051869   -59.943746
	   47 D(4,7,10,8)     =    -89.670498     0.000038     0.653928   -89.016570
	   48 D(4,7,10,9)     =     29.909733    -0.000014    -0.211592    29.698142
	   49 D(4,7,10,14)    =    150.108003     0.000011     0.160483   150.268485
	   50 D(5,7,10,8)     =    150.181919     0.000012     0.271907   150.453826
	   51 D(5,7,10,9)     =    -90.237850    -0.000039    -0.593612   -90.831462
	   52 D(5,7,10,14)    =     29.960420    -0.000014    -0.221538    29.738882
	   53 D(6,7,10,8)     =     30.597487     0.000063     1.134922    31.732409
	   54 D(6,7,10,9)     =    150.177719     0.000012     0.269403   150.447121
	   55 D(6,7,10,14)    =    -89.624012     0.000037     0.641477   -88.982535
	   56 D(7,10,14,11)   =    179.987445    -0.000001    -0.000823   179.986622
	   57 D(7,10,14,12)   =     59.910454    -0.000004    -0.047129    59.863325
	   58 D(7,10,14,13)   =    -60.016946     0.000003     0.057593   -59.959353
	   59 D(8,10,14,11)   =     59.752771    -0.000031    -0.531925    59.220846
	   60 D(8,10,14,12)   =    -60.324220    -0.000035    -0.578231   -60.902451
	   61 D(8,10,14,13)   =    179.748380    -0.000027    -0.473508   179.274872
	   62 D(9,10,14,11)   =    -59.780072     0.000026     0.392516   -59.387556
	   63 D(9,10,14,12)   =   -179.857063     0.000022     0.346211  -179.510853
	   64 D(9,10,14,13)   =     60.215536     0.000030     0.450933    60.666469
	 ---------------------------------------------------------------------------
	 Forces used to impose fixed constraints are not included.
	  Forces zeroed: 49 

  ==> Convergence Check <==

  Measures of convergence in internal coordinates in au.
  Criteria marked as inactive (o), active & met (*), and active & unmet ( ).
  ---------------------------------------------------------------------------------------------
   Step     Total Energy     Delta E     MAX Force     RMS Force      MAX Disp      RMS Disp   
  ---------------------------------------------------------------------------------------------
    Convergence Criteria    1.00e-06 *    3.00e-04 *             o    1.20e-03 *             o
  ---------------------------------------------------------------------------------------------
      2    -158.45235542   -5.92e-03      1.23e-02      5.25e-03 o    2.44e-02      1.25e-02 o  ~
  ---------------------------------------------------------------------------------------------

	Writing optimization data to binary file.
	Structure for next step:
	Cartesian Geometry (in Angstrom)
	    H    -2.3707880849   0.0353925850   0.5185478243
	    H    -2.2287354431   1.6977032252  -0.0999767389
	    H    -1.9296732790   0.3176690544  -1.1832554363
	    C    -1.8048861522   0.6876742833  -0.1582492090
	    H     0.2272261666   1.3617001071  -0.4588119567
	    H    -0.2101303124   1.0815928985   1.2492014081
	    C    -0.3136721607   0.6964453178   0.2268317789
	    H     0.1832652129  -1.2174705204   1.1219309762
	    H    -0.2147012558  -1.3004227900  -0.6161371932
	    C     0.3094005335  -0.7181914389   0.1527588888
	    H     2.2327326859  -1.6778288477  -0.2419945508
	    H     2.3584513941  -0.0972263711   0.5650551898
	    H     1.9570000194  -0.1828765898  -1.1671194526
	    C     1.8088916844  -0.6674287657  -0.1942013462
			--------------------------
			 OPTKING Finished Execution 
			--------------------------

    Structure for next step:
    Molecular point group: c1
    Full point group: C1

    Geometry (in Angstrom), charge = 0, multiplicity = 1:

    H           -2.370813745573     0.035386245638     0.518364009771
    H           -2.228761103757     1.697696885799    -0.100160553445
    H           -1.929698939663     0.317662714954    -1.183439250881
    C           -1.804911812862     0.687667943914    -0.158433023593
    H            0.227200505972     1.361693767656    -0.458995771249
    H           -0.210155973102     1.081586559104     1.249017593525
    C           -0.313697821332     0.696438978354     0.226647964319
    H            0.183239552268    -1.217476859843     1.121747161667
    H           -0.214726916510    -1.300429129391    -0.616321007785
    C            0.309374872782    -0.718197778256     0.152575074253
    H            2.232707025270    -1.677835187140    -0.242178365393
    H            2.358425733410    -0.097232710544     0.564871375242
    H            1.956974358721    -0.182882929169    -1.167303267176
    C            1.808866023678    -0.667435105084    -0.194385160749

gradient() will perform analytic gradient computation.

*** tstart() called on lski1497
*** at Tue Feb 21 17:45:48 2017


         ---------------------------------------------------------
                                   SCF
            by Justin Turney, Rob Parrish, and Andy Simmonett
                              RKS Reference
                        1 Threads,   1000 MiB Core
         ---------------------------------------------------------

  ==> Geometry <==

    Molecular point group: c1
    Full point group: C1

    Geometry (in Angstrom), charge = 0, multiplicity = 1:

       Center              X                  Y                   Z               Mass       
    ------------   -----------------  -----------------  -----------------  -----------------
           H         -2.370813745573     0.035386245638     0.518364009771     1.007825032070
           H         -2.228761103757     1.697696885799    -0.100160553445     1.007825032070
           H         -1.929698939663     0.317662714954    -1.183439250881     1.007825032070
           C         -1.804911812862     0.687667943914    -0.158433023593    12.000000000000
           H          0.227200505972     1.361693767656    -0.458995771249     1.007825032070
           H         -0.210155973102     1.081586559104     1.249017593525     1.007825032070
           C         -0.313697821332     0.696438978354     0.226647964319    12.000000000000
           H          0.183239552268    -1.217476859843     1.121747161667     1.007825032070
           H         -0.214726916510    -1.300429129391    -0.616321007785     1.007825032070
           C          0.309374872782    -0.718197778256     0.152575074253    12.000000000000
           H          2.232707025270    -1.677835187140    -0.242178365393     1.007825032070
           H          2.358425733410    -0.097232710544     0.564871375242     1.007825032070
           H          1.956974358721    -0.182882929169    -1.167303267176     1.007825032070
           C          1.808866023678    -0.667435105084    -0.194385160749    12.000000000000

  Running in c1 symmetry.

  Rotational constants: A =      0.71008  B =      0.12196  C =      0.11627 [cm^-1]
  Rotational constants: A =  21287.80759  B =   3656.31627  C =   3485.75530 [MHz]
  Nuclear repulsion =  130.156722187693447

  Charge       = 0
  Multiplicity = 1
  Electrons    = 34
  Nalpha       = 17
  Nbeta        = 17

  ==> Algorithm <==

  SCF Algorithm Type is DF.
  DIIS enabled.
  MOM disabled.
  Fractional occupation disabled.
  Guess Type is READ.
  Energy threshold   = 1.00e-08
  Density threshold  = 1.00e-08
  Integral threshold = 0.00e+00

  ==> Primary Basis <==

  Basis Set: CC-PVDZ
    Number of shells: 54
    Number of basis function: 106
    Number of Cartesian functions: 110
    Spherical Harmonics?: true
    Max angular momentum: 2

  ==> DFT Potential <==

   => B3LYP Composite Functional <= 

    B3LYP Hybrid-GGA Exchange-Correlation Functional (VWN1-RPA)

    P.J. Stephens et. al., J. Phys. Chem., 98, 11623-11627, 1994

    Points   =           5000
    Deriv    =              1
    GGA      =           TRUE
    Meta     =          FALSE

    X_LRC        =          FALSE
    X_Hybrid     =           TRUE
    X_Alpha      =   2.000000E-01
    X_Omega      =   0.000000E+00
    C_LRC        =          FALSE
    C_Hybrid     =          FALSE
    C_Alpha      =   0.000000E+00
    C_Omega      =   0.000000E+00

   => Exchange Functionals <=

    0.8000    B3_X
    0.2000      HF 

   => Correlation Functionals <=

    0.1900 VWN3RPA_C
    0.8100   LYP_C

   => Molecular Quadrature <=

    Radial Scheme    =       TREUTLER
    Pruning Scheme   =           FLAT
    Nuclear Scheme   =       TREUTLER

    BS radius alpha  =              1
    Pruning alpha    =              1
    Radial Points    =             75
    Spherical Points =            302
    Total Points     =         312800
    Total Blocks     =            273
    Max Points       =           4945
    Max Functions    =            106

  ==> Pre-Iterations <==

   -------------------------------------------------------
    Irrep   Nso     Nmo     Nalpha   Nbeta   Ndocc  Nsocc
   -------------------------------------------------------
     A        106     106       0       0       0       0
   -------------------------------------------------------
    Total     106     106      17      17      17       0
   -------------------------------------------------------

  ==> Integral Setup <==

  ==> DFJK: Density-Fitted J/K Matrices <==

    J tasked:                  Yes
    K tasked:                  Yes
    wK tasked:                  No
    OpenMP threads:              1
    Integrals threads:           1
    Memory (MB):               715
    Algorithm:                Core
    Integral Cache:           NONE
    Schwarz Cutoff:          1E-12
    Fitting Condition:       1E-12

   => Auxiliary Basis Set <=

  Basis Set: 
    Number of shells: 186
    Number of basis function: 510
    Number of Cartesian functions: 574
    Spherical Harmonics?: true
    Max angular momentum: 3

  Minimum eigenvalue in the overlap matrix is 4.1418253121E-03.
  Using Symmetric Orthogonalization.
  SCF Guess was Projection but file not found.
  Switching over to SAD guess.

  SCF Guess: Superposition of Atomic Densities via on-the-fly atomic UHF.

  ==> Iterations <==

                           Total Energy        Delta E     RMS |[F,P]|

   @DF-RKS iter   0:  -158.95330164746292   -1.58953e+02   3.27415e-02 
   @DF-RKS iter   1:  -158.33497340515436    6.18328e-01   4.25998e-03 
   @DF-RKS iter   2:  -158.29645373937390    3.85197e-02   5.01750e-03 DIIS
   @DF-RKS iter   3:  -158.45439749367364   -1.57944e-01   3.43823e-04 DIIS
   @DF-RKS iter   4:  -158.45504496752622   -6.47474e-04   1.18212e-04 DIIS
   @DF-RKS iter   5:  -158.45511446629237   -6.94988e-05   4.48520e-05 DIIS
   @DF-RKS iter   6:  -158.45512567450717   -1.12082e-05   3.98582e-06 DIIS
   @DF-RKS iter   7:  -158.45512576860588   -9.40987e-08   8.04141e-07 DIIS
   @DF-RKS iter   8:  -158.45512577285720   -4.25132e-09   1.43205e-07 DIIS
   @DF-RKS iter   9:  -158.45512577299243   -1.35230e-10   3.09813e-08 DIIS
   @DF-RKS iter  10:  -158.45512577299868   -6.25278e-12   4.02510e-09 DIIS

  ==> Post-Iterations <==

    Orbital Energies (a.u.)
    -----------------------

    Doubly Occupied:                                                      

       1A    -10.178223     2A    -10.178070     3A    -10.173906  
       4A    -10.173873     5A     -0.789069     6A     -0.719634  
       7A     -0.626329     8A     -0.572037     9A     -0.465629  
      10A     -0.422317    11A     -0.420875    12A     -0.402200  
      13A     -0.363349    14A     -0.354266    15A     -0.326460  
      16A     -0.323125    17A     -0.316483  

    Virtual:                                                              

      18A      0.060950    19A      0.083247    20A      0.098041  
      21A      0.104667    22A      0.139254    23A      0.141391  
      24A      0.149322    25A      0.154172    26A      0.158155  
      27A      0.160118    28A      0.224059    29A      0.244551  
      30A      0.248141    31A      0.404440    32A      0.409817  
      33A      0.424435    34A      0.424737    35A      0.461657  
      36A      0.500770    37A      0.507611    38A      0.579102  
      39A      0.594311    40A      0.631054    41A      0.649667  
      42A      0.651065    43A      0.654235    44A      0.665766  
      45A      0.669549    46A      0.671933    47A      0.679042  
      48A      0.697693    49A      0.698256    50A      0.726008  
      51A      0.729697    52A      0.742630    53A      0.884683  
      54A      0.886684    55A      0.968826    56A      1.096760  
      57A      1.162318    58A      1.192685    59A      1.232599  
      60A      1.252969    61A      1.285888    62A      1.333629  
      63A      1.422264    64A      1.426397    65A      1.477977  
      66A      1.485290    67A      1.542588    68A      1.579983  
      69A      1.586162    70A      1.623938    71A      1.638448  
      72A      1.647671    73A      1.659379    74A      1.667517  
      75A      1.676637    76A      1.699137    77A      1.714865  
      78A      1.725572    79A      1.740065    80A      1.744881  
      81A      1.771997    82A      1.775745    83A      1.880288  
      84A      1.899663    85A      1.945274    86A      1.975656  
      87A      2.003122    88A      2.054959    89A      2.067272  
      90A      2.161609    91A      2.177891    92A      2.215436  
      93A      2.231779    94A      2.284777    95A      2.287525  
      96A      2.308475    97A      2.427918    98A      2.428965  
      99A      2.459205   100A      2.482716   101A      2.504742  
     102A      2.519960   103A      2.586349   104A      2.596694  
     105A      2.669605   106A      2.700933  

    Final Occupation by Irrep:
              A 
    DOCC [    17 ]

  Energy converged.

  @DF-RKS Final Energy:  -158.45512577299868

   => Energetics <=

    Nuclear Repulsion Energy =            130.1567221876934468
    One-Electron Energy =                -468.8048712171539592
    Two-Electron Energy =                 200.7892936310364007
    DFT Exchange-Correlation Energy =     -20.5962703745745799
    Empirical Dispersion Energy =           0.0000000000000000
    PCM Polarization Energy =               0.0000000000000000
    EFP Energy =                            0.0000000000000000
    Total Energy =                       -158.4551257729986844


  Saving occupied orbitals to File 180.

*** tstop() called on lski1497 at Tue Feb 21 17:47:43 2017
Module time:
	user time   =     106.91 seconds =       1.78 minutes
	system time =       1.13 seconds =       0.02 minutes
	total time  =        115 seconds =       1.92 minutes
Total time:
	user time   =     400.89 seconds =       6.68 minutes
	system time =       4.40 seconds =       0.07 minutes
	total time  =        454 seconds =       7.57 minutes


Properties will be evaluated at   0.000000,   0.000000,   0.000000 Bohr

Properties computed using the SCF density matrix

  Nuclear Dipole Moment: (a.u.)
     X:     0.0041      Y:     0.0170      Z:    -0.2947

  Electronic Dipole Moment: (a.u.)
     X:    -0.0043      Y:    -0.0180      Z:     0.3110

  Dipole Moment: (a.u.)
     X:    -0.0002      Y:    -0.0010      Z:     0.0163     Total:     0.0163

  Dipole Moment: (Debye)
     X:    -0.0004      Y:    -0.0025      Z:     0.0413     Total:     0.0414


*** tstart() called on lski1497
*** at Tue Feb 21 17:47:43 2017


         ------------------------------------------------------------
                                   SCF GRAD                          
                          Rob Parrish, Justin Turney,                
                       Andy Simmonett, and Alex Sokolov              
         ------------------------------------------------------------

  ==> Geometry <==

    Molecular point group: c1
    Full point group: C1

    Geometry (in Angstrom), charge = 0, multiplicity = 1:

       Center              X                  Y                   Z               Mass       
    ------------   -----------------  -----------------  -----------------  -----------------
           H         -2.370813745573     0.035386245638     0.518364009771     1.007825032070
           H         -2.228761103757     1.697696885799    -0.100160553445     1.007825032070
           H         -1.929698939663     0.317662714954    -1.183439250881     1.007825032070
           C         -1.804911812862     0.687667943914    -0.158433023593    12.000000000000
           H          0.227200505972     1.361693767656    -0.458995771249     1.007825032070
           H         -0.210155973102     1.081586559104     1.249017593525     1.007825032070
           C         -0.313697821332     0.696438978354     0.226647964319    12.000000000000
           H          0.183239552268    -1.217476859843     1.121747161667     1.007825032070
           H         -0.214726916510    -1.300429129391    -0.616321007785     1.007825032070
           C          0.309374872782    -0.718197778256     0.152575074253    12.000000000000
           H          2.232707025270    -1.677835187140    -0.242178365393     1.007825032070
           H          2.358425733410    -0.097232710544     0.564871375242     1.007825032070
           H          1.956974358721    -0.182882929169    -1.167303267176     1.007825032070
           C          1.808866023678    -0.667435105084    -0.194385160749    12.000000000000

  Nuclear repulsion =  130.156722187693447

  ==> Basis Set <==

  Basis Set: CC-PVDZ
    Number of shells: 54
    Number of basis function: 106
    Number of Cartesian functions: 110
    Spherical Harmonics?: true
    Max angular momentum: 2

  ==> DFJKGrad: Density-Fitted SCF Gradients <==

    Gradient:                    1
    J tasked:                  Yes
    K tasked:                  Yes
    wK tasked:                  No
    OpenMP threads:              1
    Integrals threads:           1
    Memory (MB):               715
    Schwarz Cutoff:          0E+00
    Fitting Condition:       1E-12

   => Auxiliary Basis Set <=

  Basis Set: 
    Number of shells: 186
    Number of basis function: 510
    Number of Cartesian functions: 574
    Spherical Harmonics?: true
    Max angular momentum: 3

  ==> DFT Potential <==

   => B3LYP Composite Functional <= 

    B3LYP Hybrid-GGA Exchange-Correlation Functional (VWN1-RPA)

    P.J. Stephens et. al., J. Phys. Chem., 98, 11623-11627, 1994

    Points   =           5000
    Deriv    =              1
    GGA      =           TRUE
    Meta     =          FALSE

    X_LRC        =          FALSE
    X_Hybrid     =           TRUE
    X_Alpha      =   2.000000E-01
    X_Omega      =   0.000000E+00
    C_LRC        =          FALSE
    C_Hybrid     =          FALSE
    C_Alpha      =   0.000000E+00
    C_Omega      =   0.000000E+00

   => Exchange Functionals <=

    0.8000    B3_X
    0.2000      HF 

   => Correlation Functionals <=

    0.1900 VWN3RPA_C
    0.8100   LYP_C

   => Molecular Quadrature <=

    Radial Scheme    =       TREUTLER
    Pruning Scheme   =           FLAT
    Nuclear Scheme   =       TREUTLER

    BS radius alpha  =              1
    Pruning alpha    =              1
    Radial Points    =             75
    Spherical Points =            302
    Total Points     =         312800
    Total Blocks     =            273
    Max Points       =           4945
[...]
  Basis Set: CC-PVDZ
    Number of shells: 54
    Number of basis function: 106
    Number of Cartesian functions: 110
    Spherical Harmonics?: true
    Max angular momentum: 2

  ==> DFJKGrad: Density-Fitted SCF Gradients <==

    Gradient:                    1
    J tasked:                  Yes
    K tasked:                  Yes
    wK tasked:                  No
    OpenMP threads:              1
    Integrals threads:           1
    Memory (MB):               715
    Schwarz Cutoff:          0E+00
    Fitting Condition:       1E-12

   => Auxiliary Basis Set <=

  Basis Set: 
    Number of shells: 186
    Number of basis function: 510
    Number of Cartesian functions: 574
    Spherical Harmonics?: true
    Max angular momentum: 3

  ==> DFT Potential <==

   => B3LYP Composite Functional <= 

    B3LYP Hybrid-GGA Exchange-Correlation Functional (VWN1-RPA)

    P.J. Stephens et. al., J. Phys. Chem., 98, 11623-11627, 1994

    Points   =           5000
    Deriv    =              1
    GGA      =           TRUE
    Meta     =          FALSE

    X_LRC        =          FALSE
    X_Hybrid     =           TRUE
    X_Alpha      =   2.000000E-01
    X_Omega      =   0.000000E+00
    C_LRC        =          FALSE
    C_Hybrid     =          FALSE
    C_Alpha      =   0.000000E+00
    C_Omega      =   0.000000E+00

   => Exchange Functionals <=

    0.8000    B3_X
    0.2000      HF 

   => Correlation Functionals <=

    0.1900 VWN3RPA_C
    0.8100   LYP_C

   => Molecular Quadrature <=

    Radial Scheme    =       TREUTLER
    Pruning Scheme   =           FLAT
    Nuclear Scheme   =       TREUTLER

    BS radius alpha  =              1
    Pruning alpha    =              1
    Radial Points    =             75
    Spherical Points =            302
    Total Points     =         312814
    Total Blocks     =            273
    Max Points       =           4845
    Max Functions    =            106


  -Total Gradient:
     Atom            X                  Y                   Z
    ------   -----------------  -----------------  -----------------
       1        0.000011426008     0.000006682408    -0.000007264622
       2       -0.000001526112    -0.000003320008    -0.000007005687
       3       -0.000022063236     0.000003956803    -0.000002332843
       4        0.000789276567     0.000491807818    -0.002919257512
       5       -0.000004590858    -0.000015011990     0.000030709647
       6        0.000000312777    -0.000003363140     0.000011358381
       7       -0.001334739825    -0.000714455375     0.002870204907
       8       -0.000000493880     0.000002285291     0.000011495301
       9        0.000004153204     0.000011885449     0.000032482016
      10        0.001267013295     0.000379462131     0.002963451842
      11        0.000001551598     0.000004306809    -0.000006399941
      12       -0.000011454327    -0.000006084846    -0.000008245433
      13        0.000021908931    -0.000003891428    -0.000001934991
      14       -0.000720691926    -0.000153854946    -0.002974323107


*** tstop() called on lski1497 at Tue Feb 21 17:58:41 2017
Module time:
	user time   =      34.38 seconds =       0.57 minutes
	system time =       0.53 seconds =       0.01 minutes
	total time  =         38 seconds =       0.63 minutes
Total time:
	user time   =    1008.41 seconds =      16.81 minutes
	system time =      11.89 seconds =       0.20 minutes
	total time  =       1112 seconds =      18.53 minutes

			-----------------------------------------
			 OPTKING 2.0: for geometry optimizations 
			  - R.A. King,  Bethel University        
			-----------------------------------------

	Previous internal coordinate definitions found.
	---Fragment 1 Geometry and Gradient---
	 H          -4.5298848892        0.0451241093        0.9535367122
	 H          -4.2477831622        3.2119581483       -0.1386941947
	 H          -3.7000247164        0.6458975289       -2.2469236840
	 C          -3.4235246646        1.3047411343       -0.2882752287
	 H           0.3925970844        2.5781501317       -0.8868752325
	 H          -0.3517248905        2.1098114947        2.3239324482
	 C          -0.6185643644        1.2972795399        0.4194154671
	 H           0.3009469427       -2.3616797879        2.0754766996
	 H          -0.3686893696       -2.4595926178       -1.1840721313
	 C           0.6104592411       -1.3374850280        0.2827639957
	 H           4.2540826960       -3.1807354913       -0.4065413379
	 H           4.5067981482       -0.1595991214        1.0461253309
	 H           3.7515806784       -0.3901476189       -2.2202255786
	 C           3.4309664272       -1.2678267640       -0.3564362898
	             0.0000114260        0.0000066824       -0.0000072646
	            -0.0000015261       -0.0000033200       -0.0000070057
	            -0.0000220632        0.0000039568       -0.0000023328
	             0.0007892766        0.0004918078       -0.0029192575
	            -0.0000045909       -0.0000150120        0.0000307096
	             0.0000003128       -0.0000033631        0.0000113584
	            -0.0013347398       -0.0007144554        0.0028702049
	            -0.0000004939        0.0000022853        0.0000114953
	             0.0000041532        0.0000118854        0.0000324820
	             0.0012670133        0.0003794621        0.0029634518
	             0.0000015516        0.0000043068       -0.0000063999
	            -0.0000114543       -0.0000060848       -0.0000082454
	             0.0000219089       -0.0000038914       -0.0000019350
	            -0.0007206919       -0.0001538549       -0.0029743231

	---Fragment 1 Intrafragment Coordinates---
	 - Coordinate -           - BOHR/RAD -       - ANG/DEG -
	 R(1,4)           =         2.086328	       1.104037
	 R(2,4)           =         2.083087	       1.102322
	 R(3,4)           =         2.084906	       1.103284
	 R(4,7)           =         2.892868	       1.530840
	 R(5,7)           =         2.090328	       1.106154
	 R(6,7)           =         2.087725	       1.104777
	 R(7,10)          =         2.910525	       1.540184
	 R(8,10)          =         2.087724	       1.104776
	 R(9,10)          =         2.090327	       1.106153
	 R(10,14)         =         2.892869	       1.530840
	 R(11,14)         =         2.083087	       1.102322
	 R(12,14)         =         2.086327	       1.104037
	 R(13,14)         =         2.084904	       1.103284
	 B(1,4,2)         =         1.875702	     107.469814
	 B(1,4,3)         =         1.873450	     107.340751
	 B(1,4,7)         =         1.946589	     111.531341
	 B(2,4,3)         =         1.880009	     107.716605
	 B(2,4,7)         =         1.948150	     111.620781
	 B(3,4,7)         =         1.936486	     110.952470
	 B(4,7,5)         =         1.890807	     108.335278
	 B(4,7,6)         =         1.924198	     110.248401
	 B(4,7,10)        =         1.982625	     113.596067
	 B(5,7,6)         =         1.843951	     105.650610
	 B(5,7,10)        =         1.897685	     108.729335
	 B(6,7,10)        =         1.918967	     109.948734
	 B(7,10,8)        =         1.918968	     109.948785
	 B(7,10,9)        =         1.897684	     108.729282
	 B(7,10,14)       =         1.982621	     113.595831
	 B(8,10,9)        =         1.843955	     105.650818
	 B(8,10,14)       =         1.924199	     110.248480
	 B(9,10,14)       =         1.890807	     108.335257
	 B(10,14,11)      =         1.948149	     111.620744
	 B(10,14,12)      =         1.946588	     111.531255
	 B(10,14,13)      =         1.936485	     110.952418
	 B(11,14,12)      =         1.875701	     107.469750
	 B(11,14,13)      =         1.880011	     107.716695
	 B(12,14,13)      =         1.873452	     107.340913
	 D(1,4,7,5)       =         3.136773	     179.723829
	 D(1,4,7,6)       =        -1.136468	     -65.114825
	 D(1,4,7,10)      =         1.026259	      58.800323
	 D(2,4,7,5)       =        -1.047943	     -60.042731
	 D(2,4,7,6)       =         0.962001	      55.118614
	 D(2,4,7,10)      =         3.124729	     179.033763
	 D(3,4,7,5)       =         1.049090	      60.108451
	 D(3,4,7,6)       =         3.059035	     175.269797
	 D(3,4,7,10)      =        -1.061423	     -60.815054
	 D(4,7,10,8)      =        -1.490622	     -85.406373
	 D(4,7,10,9)      =         0.520354	      29.814112
	 D(4,7,10,14)     =         2.626998	     150.515917
	 D(5,7,10,8)      =         2.685915	     153.891603
	 D(5,7,10,9)      =        -1.586293	     -90.887911
	 D(5,7,10,14)     =         0.520351	      29.813894
	 D(6,7,10,8)      =         0.674943	      38.671365
	 D(6,7,10,9)      =         2.685919	     153.891851
	 D(6,7,10,14)     =        -1.490622	     -85.406344
	 D(7,10,14,11)    =         3.124729	     179.033791
	 D(7,10,14,12)    =         1.026263	      58.800518
	 D(7,10,14,13)    =        -1.061421	     -60.814972
	 D(8,10,14,11)    =         0.962003	      55.118689
	 D(8,10,14,12)    =        -1.136464	     -65.114584
	 D(8,10,14,13)    =         3.059037	     175.269926
	 D(9,10,14,11)    =        -1.047947	     -60.042937
	 D(9,10,14,12)    =         3.136772	     179.723790
	 D(9,10,14,13)    =         1.049088	      60.108300

	Current energy   :      -158.4563399893

	Energy change for the previous step:
		Projected    :         0.0000129736
		Actual       :        -0.0000027812

	Performing BFGS update.
	Previous computed or guess Hessian on step 1.
	Steps to be used in Hessian update: 6 5
	Adding user-defined constraint: Fragment 1; Coordinate 49:
		Value =     2.626998; Fixed value    =     2.617990
		Force =    -0.005855; Force constant =     0.650000
	Removing off-diagonal coupling between coordinate 49 and others.
	Taking RFO optimization step.
	Going to follow RFO solution 1.
	Rejecting RFO root 1 because normalization gives large value.
	Using RFO vector 2.
	Norm of target step-size    0.00048
	Projected energy change by RFO approximation:        -0.0000000341

	Back-transformation to cartesian coordinates...
	Successfully converged to displaced geometry.

	--- Internal Coordinate Step in ANG or DEG, aJ/ANG or AJ/DEG ---
	 ---------------------------------------------------------------------------
	   Coordinate                Previous        Force       Change         New 
	   ----------                --------       ------       ------       ------
	    1 R(1,4)          =      1.104037     0.000108     0.000020     1.104057
	    2 R(2,4)          =      1.102322     0.000032     0.000008     1.102330
	    3 R(3,4)          =      1.103284    -0.000033    -0.000002     1.103282
	    4 R(4,7)          =      1.530840     0.000268     0.000058     1.530898
	    5 R(5,7)          =      1.106154     0.000258     0.000035     1.106189
	    6 R(6,7)          =      1.104777    -0.000077    -0.000014     1.104762
	    7 R(7,10)         =      1.540184    -0.000171    -0.000022     1.540162
	    8 R(8,10)         =      1.104776    -0.000075    -0.000014     1.104762
	    9 R(9,10)         =      1.106153     0.000262     0.000036     1.106189
	   10 R(10,14)        =      1.530840     0.000268     0.000058     1.530898
	   11 R(11,14)        =      1.102322     0.000034     0.000009     1.102331
	   12 R(12,14)        =      1.104037     0.000110     0.000020     1.104057
	   13 R(13,14)        =      1.103284    -0.000029    -0.000002     1.103282
	   14 B(1,4,2)        =    107.469814    -0.000000     0.000497   107.470311
	   15 B(1,4,3)        =    107.340751     0.000001     0.003229   107.343980
	   16 B(1,4,7)        =    111.531341     0.000001     0.005815   111.537156
	   17 B(2,4,3)        =    107.716605     0.000001     0.004509   107.721113
	   18 B(2,4,7)        =    111.620781    -0.000000    -0.002154   111.618627
	   19 B(3,4,7)        =    110.952470    -0.000002    -0.011370   110.941100
	   20 B(4,7,5)        =    108.335278    -0.000006    -0.003712   108.331566
	   21 B(4,7,6)        =    110.248401     0.000005    -0.003166   110.245235
	   22 B(4,7,10)       =    113.596067     0.000000     0.001037   113.597104
	   23 B(5,7,6)        =    105.650610     0.000000     0.003481   105.654091
	   24 B(5,7,10)       =    108.729335    -0.000000     0.001133   108.730468
	   25 B(6,7,10)       =    109.948734     0.000000     0.001400   109.950134
	   26 B(7,10,8)       =    109.948785     0.000000     0.001326   109.950111
	   27 B(7,10,9)       =    108.729282    -0.000000     0.001214   108.730496
	   28 B(7,10,14)      =    113.595831     0.000001     0.001211   113.597042
	   29 B(8,10,9)       =    105.650818     0.000000     0.003339   105.654157
	   30 B(8,10,14)      =    110.248480     0.000005    -0.003265   110.245215
	   31 B(9,10,14)      =    108.335257    -0.000006    -0.003670   108.331586
	   32 B(10,14,11)     =    111.620744    -0.000000    -0.002112   111.618632
	   33 B(10,14,12)     =    111.531255     0.000001     0.005847   111.537102
	   34 B(10,14,13)     =    110.952418    -0.000002    -0.011373   110.941045
	   35 B(11,14,12)     =    107.469750    -0.000000     0.000572   107.470322
	   36 B(11,14,13)     =    107.716695     0.000001     0.004455   107.721149
	   37 B(12,14,13)     =    107.340913     0.000001     0.003131   107.344044
	   38 D(1,4,7,5)      =    179.723829    -0.000000    -0.002290   179.721538
	   39 D(1,4,7,6)      =    -65.114825    -0.000000    -0.001931   -65.116756
	   40 D(1,4,7,10)     =     58.800323     0.000001    -0.001773    58.798550
	   41 D(2,4,7,5)      =    -60.042731    -0.000000     0.000867   -60.041864
	   42 D(2,4,7,6)      =     55.118614    -0.000000     0.001227    55.119842
	   43 D(2,4,7,10)     =    179.033763     0.000001     0.001385   179.035147
	   44 D(3,4,7,5)      =     60.108451    -0.000000    -0.002601    60.105850
	   45 D(3,4,7,6)      =    175.269797    -0.000000    -0.002241   175.267556
	   46 D(3,4,7,10)     =    -60.815054     0.000001    -0.002084   -60.817138
	   47 D(4,7,10,8)     =    -85.406373    -0.000002    -0.003129   -85.409503
	   48 D(4,7,10,9)     =     29.814112    -0.000001     0.002268    29.816380
	   49 D(4,7,10,14)    =    150.515917    -0.000003    -0.000749   150.515168
	   50 D(5,7,10,8)     =    153.891603     0.000000     0.000112   153.891715
	   51 D(5,7,10,9)     =    -90.887911     0.000000     0.005509   -90.882403
	   52 D(5,7,10,14)    =     29.813894    -0.000001     0.002492    29.816386
	   53 D(6,7,10,8)     =     38.671365     0.000000    -0.005450    38.665916
	   54 D(6,7,10,9)     =    153.891851     0.000000    -0.000053   153.891798
	   55 D(6,7,10,14)    =    -85.406344    -0.000002    -0.003070   -85.409414
	   56 D(7,10,14,11)   =    179.033791     0.000001     0.001132   179.034923
	   57 D(7,10,14,12)   =     58.800518     0.000001    -0.002172    58.798346
	   58 D(7,10,14,13)   =    -60.814972     0.000001    -0.002379   -60.817351
	   59 D(8,10,14,11)   =     55.118689    -0.000000     0.001019    55.119709
	   60 D(8,10,14,12)   =    -65.114584    -0.000000    -0.002285   -65.116869
	   61 D(8,10,14,13)   =    175.269926    -0.000000    -0.002491   175.267435
	   62 D(9,10,14,11)   =    -60.042937    -0.000000     0.000859   -60.042078
	   63 D(9,10,14,12)   =    179.723790    -0.000000    -0.002445   179.721345
	   64 D(9,10,14,13)   =     60.108300    -0.000000    -0.002651    60.105648
	 ---------------------------------------------------------------------------
	 Forces used to impose fixed constraints are not included.
	  Forces zeroed: 49 

  ==> Convergence Check <==

  Measures of convergence in internal coordinates in au.
  Criteria marked as inactive (o), active & met (*), and active & unmet ( ).
  ---------------------------------------------------------------------------------------------
   Step     Total Energy     Delta E     MAX Force     RMS Force      MAX Disp      RMS Disp   
  ---------------------------------------------------------------------------------------------
    Convergence Criteria    1.00e-06 *    3.00e-04 *             o    1.20e-03 *             o
  ---------------------------------------------------------------------------------------------
      7    -158.45633999   -2.78e-06      8.62e-05 *    3.30e-05 o    1.99e-04 *    6.05e-05 o  ~
  ---------------------------------------------------------------------------------------------


  **** Optimization is complete! (in 7 steps) ****

  ==> Optimization Summary <==

  Measures of convergence in internal coordinates in au.
  --------------------------------------------------------------------------------------------------------------- ~
   Step         Total Energy             Delta E       MAX Force       RMS Force        MAX Disp        RMS Disp  ~
  --------------------------------------------------------------------------------------------------------------- ~
      1    -158.446439222237   -158.446439222237      0.02327263      0.00966086      0.02885138      0.01250582  ~
      2    -158.452355418489     -0.005916196252      0.01233992      0.00525348      0.02435314      0.01250621  ~
      3    -158.455125772999     -0.002770354509      0.00405014      0.00198760      0.04079096      0.01251027  ~
      4    -158.456006836450     -0.000881063452      0.00176126      0.00066025      0.04849030      0.01252318  ~
      5    -158.456281117498     -0.000274281048      0.00080676      0.00021164      0.02752020      0.01249758  ~
      6    -158.456337208040     -0.000056090542      0.00015911      0.00005344      0.00525837      0.00197328  ~
      7    -158.456339989279     -0.000002781240      0.00017735      0.00003973      0.00019850      0.00006048  ~
  --------------------------------------------------------------------------------------------------------------- ~

	Writing optimization data to binary file.
	Final energy is   -158.4563399892791
	Final (previous) structure:
	Cartesian Geometry (in Angstrom)
	    H    -2.3971118409   0.0238786502   0.5045898957
	    H    -2.2478300365   1.6996950470  -0.0733938068
	    H    -1.9579687512   0.3417942514  -1.1890208030
	    C    -1.8116512256   0.6904392714  -0.1525486808
	    H     0.2077534292   1.3642982900  -0.4693141599
	    H    -0.1861247957   1.1164641574   1.2297720859
	    C    -0.3273301637   0.6864907657   0.2219451061
	    H     0.1592542631  -1.2497471177   1.0982949664
	    H    -0.1951020115  -1.3015603557  -0.6265839852
	    C     0.3230411172  -0.7077665937   0.1496322619
	    H     2.2511636062  -1.6831727285  -0.2151324104
	    H     2.3848948637  -0.0844562176   0.5535856824
	    H     1.9852509912  -0.2064572279  -1.1748927741
	    C     1.8155892367  -0.6709050280  -0.1886179609
	Saving final (previous) structure.
			--------------------------
			 OPTKING Finished Execution 
			--------------------------

    Final optimized geometry and variables:
    Molecular point group: c1
    Full point group: C1

    Geometry (in Angstrom), charge = 0, multiplicity = 1:

    H           -2.397111840914     0.023878650200     0.504589895663
    H           -2.247830036456     1.699695047034    -0.073393806784
    H           -1.957968751155     0.341794251392    -1.189020803021
    C           -1.811651225577     0.690439271381    -0.152548680806
    H            0.207753429247     1.364298290006    -0.469314159918
    H           -0.186124795739     1.116464157400     1.229772085873
    C           -0.327330163679     0.686490765699     0.221945106132
    H            0.159254263051    -1.249747117741     1.098294966396
    H           -0.195102011465    -1.301560355748    -0.626583985232
    C            0.323041117190    -0.707766593654     0.149632261930
    H            2.251163606194    -1.683172728529    -0.215132410358
    H            2.384894863746    -0.084456217560     0.553585682433
    H            1.985250991201    -0.206457227882    -1.174892774133
    C            1.815589236721    -0.670905027951    -0.188617960882

	Cleaning optimization helper files.

*** Psi4 exiting successfully. Buy a developer a beer!
