    -----------------------------------------------------------------------
          Psi4: An Open-Source Ab Initio Electronic Structure Package
                              Psi4 1.0.0 Driver

                          Git: Rev {master} 6a9a71b 

    J. M. Turney, A. C. Simmonett, R. M. Parrish, E. G. Hohenstein,
    F. A. Evangelista, J. T. Fermann, B. J. Mintz, L. A. Burns, J. J. Wilke,
    M. L. Abrams, N. J. Russ, M. L. Leininger, C. L. Janssen, E. T. Seidl,
    W. D. Allen, H. F. Schaefer, R. A. King, E. F. Valeev, C. D. Sherrill,
    and T. D. Crawford, WIREs Comput. Mol. Sci. 2, 556-565 (2012)
    (doi: 10.1002/wcms.93)

                         Additional Contributions by
    A. E. DePrince, U. Bozkaya, A. Yu. Sokolov, D. G. A. Smith, R. Di Remigio,
    R. M. Richard, J. F. Gonthier, H. R. McAlexander, M. Saitow, and
    B. P. Pritchard
    -----------------------------------------------------------------------


    Psi4 started on: Tue Feb 21 18:15:19 2017

    Process ID:  36350
    PSI4DATADIR: /Users/sternc1/anaconda/share/psi4
    Memory level set to 256.000 MB

  ==> Input File <==

--------------------------------------------------------------------------

memory 1000 mb

molecule butane {
  symmetry C1
  0 1 
  H      1.604   0.760   -8.260
  H      1.745   2.388   -8.880
  H      2.043   1.024   -9.930
  C      2.142   1.395   -8.932
  H      4.169   2.051   -9.210
  H      3.731   1.788   -7.539
  C      3.631   1.416   -8.537
  H      3.434   -0.688   -8.921
  H      5.006   -0.038   -9.318
  C      4.203   -0.012   -8.612
  H      5.123   -1.421   -7.278
  H      3.924   -0.404   -6.519
  H      5.496   0.246   -6.916
  C      4.726   -0.430   -7.226
  units Angstrom
}

dih_string = "4 7 10 14 240"
set optking fixed_dihedral = $dih_string

optimize('B3LYP/cc-PVDZ')
--------------------------------------------------------------------------

  Memory set to 1000.000 MiB by Python script.
gradient() will perform analytic gradient computation.

*** tstart() called on lski1497
*** at Tue Feb 21 18:15:21 2017


         ---------------------------------------------------------
                                   SCF
            by Justin Turney, Rob Parrish, and Andy Simmonett
                              RKS Reference
                        1 Threads,   1000 MiB Core
         ---------------------------------------------------------

  ==> Geometry <==

    Molecular point group: c1
    Full point group: C1

    Geometry (in Angstrom), charge = 0, multiplicity = 1:

       Center              X                  Y                   Z               Mass       
    ------------   -----------------  -----------------  -----------------  -----------------
           H         -2.063170616578     0.171506898981     0.058134294023     1.007825032070
           H         -1.922170616578     1.799506898981    -0.561865705977     1.007825032070
           H         -1.624170616578     0.435506898981    -1.611865705977     1.007825032070
           C         -1.525170616578     0.806506898981    -0.613865705977    12.000000000000
           H          0.501829383422     1.462506898981    -0.891865705977     1.007825032070
           H          0.063829383422     1.199506898981     0.779134294023     1.007825032070
           C         -0.036170616578     0.827506898981    -0.218865705977    12.000000000000
           H         -0.233170616578    -1.276493101019    -0.602865705977     1.007825032070
           H          1.338829383422    -0.626493101019    -0.999865705977     1.007825032070
           C          0.535829383422    -0.600493101019    -0.293865705977    12.000000000000
           H          1.455829383422    -2.009493101019     1.040134294023     1.007825032070
           H          0.256829383422    -0.992493101019     1.799134294023     1.007825032070
           H          1.828829383422    -0.342493101019     1.402134294023     1.007825032070
           C          1.058829383422    -1.018493101019     1.092134294023    12.000000000000

  Running in c1 symmetry.

  Rotational constants: A =      0.58975  B =      0.13122  C =      0.13112 [cm^-1]
  Rotational constants: A =  17680.11081  B =   3933.97258  C =   3930.98071 [MHz]
  Nuclear repulsion =  132.581039688683205

  Charge       = 0
  Multiplicity = 1
  Electrons    = 34
  Nalpha       = 17
  Nbeta        = 17

  ==> Algorithm <==

  SCF Algorithm Type is DF.
  DIIS enabled.
  MOM disabled.
  Fractional occupation disabled.
  Guess Type is SAD.
  Energy threshold   = 1.00e-08
  Density threshold  = 1.00e-08
  Integral threshold = 0.00e+00

  ==> Primary Basis <==

  Basis Set: CC-PVDZ
    Number of shells: 54
    Number of basis function: 106
    Number of Cartesian functions: 110
    Spherical Harmonics?: true
    Max angular momentum: 2

  ==> DFT Potential <==

   => B3LYP Composite Functional <= 

    B3LYP Hybrid-GGA Exchange-Correlation Functional (VWN1-RPA)

    P.J. Stephens et. al., J. Phys. Chem., 98, 11623-11627, 1994

    Points   =           5000
    Deriv    =              1
    GGA      =           TRUE
    Meta     =          FALSE

    X_LRC        =          FALSE
    X_Hybrid     =           TRUE
    X_Alpha      =   2.000000E-01
    X_Omega      =   0.000000E+00
    C_LRC        =          FALSE
    C_Hybrid     =          FALSE
    C_Alpha      =   0.000000E+00
    C_Omega      =   0.000000E+00

   => Exchange Functionals <=

    0.8000    B3_X
    0.2000      HF 

   => Correlation Functionals <=

    0.1900 VWN3RPA_C
    0.8100   LYP_C

   => Molecular Quadrature <=

    Radial Scheme    =       TREUTLER
    Pruning Scheme   =           FLAT
    Nuclear Scheme   =       TREUTLER

    BS radius alpha  =              1
    Pruning alpha    =              1
    Radial Points    =             75
    Spherical Points =            302
    Total Points     =         312762
    Total Blocks     =            274
    Max Points       =           4982
    Max Functions    =            106

  ==> Pre-Iterations <==

   -------------------------------------------------------
    Irrep   Nso     Nmo     Nalpha   Nbeta   Ndocc  Nsocc
   -------------------------------------------------------
     A        106     106       0       0       0       0
   -------------------------------------------------------
    Total     106     106      17      17      17       0
   -------------------------------------------------------

  ==> Integral Setup <==

  ==> DFJK: Density-Fitted J/K Matrices <==

    J tasked:                  Yes
    K tasked:                  Yes
    wK tasked:                  No
    OpenMP threads:              1
    Integrals threads:           1
    Memory (MB):               715
    Algorithm:                Core
    Integral Cache:           NONE
    Schwarz Cutoff:          1E-12
    Fitting Condition:       1E-12

   => Auxiliary Basis Set <=

  Basis Set: 
    Number of shells: 186
    Number of basis function: 510
    Number of Cartesian functions: 574
    Spherical Harmonics?: true
    Max angular momentum: 3

  Minimum eigenvalue in the overlap matrix is 4.6222241829E-03.
  Using Symmetric Orthogonalization.
  SCF Guess: Superposition of Atomic Densities via on-the-fly atomic UHF.

  ==> Iterations <==

                           Total Energy        Delta E     RMS |[F,P]|

   @DF-RKS iter   0:  -159.05744267546615   -1.59057e+02   3.40115e-02 
   @DF-RKS iter   1:  -158.30004380462233    7.57399e-01   4.69439e-03 
   @DF-RKS iter   2:  -158.25762069969997    4.24231e-02   5.47480e-03 DIIS
   @DF-RKS iter   3:  -158.44268124119839   -1.85061e-01   3.59057e-04 DIIS
   @DF-RKS iter   4:  -158.44338211694784   -7.00876e-04   1.22378e-04 DIIS
   @DF-RKS iter   5:  -158.44345637637409   -7.42594e-05   4.61812e-05 DIIS
   @DF-RKS iter   6:  -158.44346807180418   -1.16954e-05   5.53137e-06 DIIS
   @DF-RKS iter   7:  -158.44346825731631   -1.85512e-07   9.86923e-07 DIIS
   @DF-RKS iter   8:  -158.44346826375229   -6.43598e-09   1.35620e-07 DIIS
   @DF-RKS iter   9:  -158.44346826386629   -1.13999e-10   3.67264e-08 DIIS
   @DF-RKS iter  10:  -158.44346826387238   -6.08225e-12   1.54901e-08 DIIS
   @DF-RKS iter  11:  -158.44346826387422   -1.84741e-12   2.75488e-09 DIIS

  ==> Post-Iterations <==

    Orbital Energies (a.u.)
    -----------------------

    Doubly Occupied:                                                      

       1A    -10.168612     2A    -10.168370     3A    -10.164795  
       4A    -10.164586     5A     -0.795046     6A     -0.722657  
       7A     -0.632609     8A     -0.578368     9A     -0.467006  
      10A     -0.439427    11A     -0.423325    12A     -0.397177  
      13A     -0.365843    14A     -0.363796    15A     -0.331418  
      16A     -0.322133    17A     -0.309946  

    Virtual:                                                              

      18A      0.064338    19A      0.091987    20A      0.101987  
      21A      0.109137    22A      0.141564    23A      0.147579  
      24A      0.150612    25A      0.153838    26A      0.158784  
      27A      0.174689    28A      0.224096    29A      0.250487  
      30A      0.258229    31A      0.404668    32A      0.423210  
      33A      0.432468    34A      0.457033    35A      0.477099  
      36A      0.484941    37A      0.505608    38A      0.587528  
      39A      0.590649    40A      0.635998    41A      0.644107  
      42A      0.666425    43A      0.666805    44A      0.671016  
      45A      0.674628    46A      0.694129    47A      0.696440  
      48A      0.699664    49A      0.707956    50A      0.738333  
      51A      0.745649    52A      0.752384    53A      0.872967  
      54A      0.882510    55A      0.974932    56A      1.124632  
      57A      1.128801    58A      1.190545    59A      1.213745  
      60A      1.256338    61A      1.364597    62A      1.400223  
      63A      1.438432    64A      1.451031    65A      1.464464  
      66A      1.484009    67A      1.578720    68A      1.580224  
      69A      1.610327    70A      1.639563    71A      1.662710  
      72A      1.670199    73A      1.678122    74A      1.700020  
      75A      1.707294    76A      1.711808    77A      1.714205  
      78A      1.736720    79A      1.752850    80A      1.780207  
      81A      1.794517    82A      1.815075    83A      1.849210  
      84A      1.930920    85A      1.990848    86A      2.024172  
      87A      2.031161    88A      2.086581    89A      2.143677  
      90A      2.145383    91A      2.224388    92A      2.253760  
      93A      2.280535    94A      2.306070    95A      2.346269  
      96A      2.356292    97A      2.499939    98A      2.514398  
      99A      2.529517   100A      2.535547   101A      2.571155  
     102A      2.608622   103A      2.621370   104A      2.635192  
     105A      2.681144   106A      2.744455  

    Final Occupation by Irrep:
              A 
    DOCC [    17 ]

  Energy converged.

  @DF-RKS Final Energy:  -158.44346826387422

   => Energetics <=

    Nuclear Repulsion Energy =            132.5810396886832052
    One-Electron Energy =                -473.5518700422159100
    Two-Electron Energy =                 203.2098482933895127
    DFT Exchange-Correlation Energy =     -20.6824862037309920
    Empirical Dispersion Energy =           0.0000000000000000
    PCM Polarization Energy =               0.0000000000000000
    EFP Energy =                            0.0000000000000000
    Total Energy =                       -158.4434682638742231


  Saving occupied orbitals to File 180.

*** tstop() called on lski1497 at Tue Feb 21 18:17:26 2017
Module time:
	user time   =     114.29 seconds =       1.90 minutes
	system time =       1.45 seconds =       0.02 minutes
	total time  =        125 seconds =       2.08 minutes
Total time:
	user time   =     114.29 seconds =       1.90 minutes
	system time =       1.45 seconds =       0.02 minutes
	total time  =        125 seconds =       2.08 minutes


Properties will be evaluated at   0.000000,   0.000000,   0.000000 Bohr

Properties computed using the SCF density matrix

  Nuclear Dipole Moment: (a.u.)
     X:    -0.3719      Y:    -0.1677      Z:     0.3847

  Electronic Dipole Moment: (a.u.)
     X:     0.3922      Y:     0.1761      Z:    -0.4056

  Dipole Moment: (a.u.)
     X:     0.0203      Y:     0.0084      Z:    -0.0210     Total:     0.0304

  Dipole Moment: (Debye)
     X:     0.0516      Y:     0.0213      Z:    -0.0533     Total:     0.0772


*** tstart() called on lski1497
*** at Tue Feb 21 18:17:26 2017


         ------------------------------------------------------------
                                   SCF GRAD                          
                          Rob Parrish, Justin Turney,                
                       Andy Simmonett, and Alex Sokolov              
         ------------------------------------------------------------

  ==> Geometry <==

    Molecular point group: c1
    Full point group: C1

    Geometry (in Angstrom), charge = 0, multiplicity = 1:

       Center              X                  Y                   Z               Mass       
    ------------   -----------------  -----------------  -----------------  -----------------
           H         -2.063170616578     0.171506898981     0.058134294023     1.007825032070
           H         -1.922170616578     1.799506898981    -0.561865705977     1.007825032070
           H         -1.624170616578     0.435506898981    -1.611865705977     1.007825032070
           C         -1.525170616578     0.806506898981    -0.613865705977    12.000000000000
           H          0.501829383422     1.462506898981    -0.891865705977     1.007825032070
           H          0.063829383422     1.199506898981     0.779134294023     1.007825032070
           C         -0.036170616578     0.827506898981    -0.218865705977    12.000000000000
           H         -0.233170616578    -1.276493101019    -0.602865705977     1.007825032070
           H          1.338829383422    -0.626493101019    -0.999865705977     1.007825032070
           C          0.535829383422    -0.600493101019    -0.293865705977    12.000000000000
           H          1.455829383422    -2.009493101019     1.040134294023     1.007825032070
           H          0.256829383422    -0.992493101019     1.799134294023     1.007825032070
           H          1.828829383422    -0.342493101019     1.402134294023     1.007825032070
           C          1.058829383422    -1.018493101019     1.092134294023    12.000000000000

  Nuclear repulsion =  132.581039688683205

  ==> Basis Set <==

  Basis Set: CC-PVDZ
    Number of shells: 54
    Number of basis function: 106
    Number of Cartesian functions: 110
    Spherical Harmonics?: true
    Max angular momentum: 2

  ==> DFJKGrad: Density-Fitted SCF Gradients <==

    Gradient:                    1
    J tasked:                  Yes
    K tasked:                  Yes
    wK tasked:                  No
    OpenMP threads:              1
    Integrals threads:           1
    Memory (MB):               715
    Schwarz Cutoff:          0E+00
    Fitting Condition:       1E-12

   => Auxiliary Basis Set <=

  Basis Set: 
    Number of shells: 186
    Number of basis function: 510
    Number of Cartesian functions: 574
    Spherical Harmonics?: true
    Max angular momentum: 3

  ==> DFT Potential <==

   => B3LYP Composite Functional <= 

    B3LYP Hybrid-GGA Exchange-Correlation Functional (VWN1-RPA)

    P.J. Stephens et. al., J. Phys. Chem., 98, 11623-11627, 1994

    Points   =           5000
    Deriv    =              1
    GGA      =           TRUE
    Meta     =          FALSE

    X_LRC        =          FALSE
    X_Hybrid     =           TRUE
    X_Alpha      =   2.000000E-01
    X_Omega      =   0.000000E+00
    C_LRC        =          FALSE
    C_Hybrid     =          FALSE
    C_Alpha      =   0.000000E+00
    C_Omega      =   0.000000E+00

   => Exchange Functionals <=

    0.8000    B3_X
    0.2000      HF 

   => Correlation Functionals <=

    0.1900 VWN3RPA_C
    0.8100   LYP_C

   => Molecular Quadrature <=

    Radial Scheme    =       TREUTLER
    Pruning Scheme   =           FLAT
    Nuclear Scheme   =       TREUTLER

    BS radius alpha  =              1
    Pruning alpha    =              1
    Radial Points    =             75
    Spherical Points =            302
    Total Points     =         312762
    Total Blocks     =            274
    Max Points       =           4982
    Max Functions    =            106


  -Total Gradient:
     Atom            X                  Y                   Z
    ------   -----------------  -----------------  -----------------
       1        0.014135878837     0.013081190568    -0.012833081771
       2        0.013041988479    -0.019033830938     0.000258827973
       3        0.005195247174     0.007652297412     0.021169870309
       4       -0.029153093362    -0.010116737619    -0.009165321942
       5       -0.010868819147    -0.016747470460     0.011028413344
       6       -0.003262340861    -0.011258962166    -0.019553363049
       7        0.022961078960     0.026200398532     0.016364771458
       8        0.013797905149     0.016057065262     0.009095558012
       9       -0.015865519817     0.004746317744     0.016496380274
      10       -0.006414017407    -0.019077887930    -0.032793426115
      11       -0.009930637063     0.022004513657    -0.003895338459
      12        0.015455611603     0.000252608131    -0.017500062135
      13       -0.016170182347    -0.012356363638    -0.009025938019
      14        0.007074054042    -0.001397903698     0.030345411172


*** tstop() called on lski1497 at Tue Feb 21 18:18:08 2017
Module time:
	user time   =      37.76 seconds =       0.63 minutes
	system time =       0.62 seconds =       0.01 minutes
	total time  =         42 seconds =       0.70 minutes
Total time:
	user time   =     152.07 seconds =       2.53 minutes
	system time =       2.08 seconds =       0.03 minutes
	total time  =        167 seconds =       2.78 minutes

			-----------------------------------------
			 OPTKING 2.0: for geometry optimizations 
			  - R.A. King,  Bethel University        
			-----------------------------------------

	Internal coordinates to be generated automatically.
	Detected frag 1 with atoms:  1 2 3 4 5 6 7 8 9 10 11 12 13 14
	---Fragment 1 Bond Connectivity---
	 1 : 4
	 2 : 4
	 3 : 4
	 4 : 1 2 3 7
	 5 : 7
	 6 : 7
	 7 : 4 5 6 10
	 8 : 10
	 9 : 10
	 10 : 7 8 9 14
	 11 : 14
	 12 : 14
	 13 : 14
	 14 : 10 11 12 13

	Assuming in current code that numbering for constraints corresponds to unified fragment.
	Fixed dihedral atom list: 
	     4     7    10    14
	---Fragment 1 Geometry and Gradient---
	 H          -3.8988274307        0.3241010690        0.1098578946
	 H          -3.6323760460        3.4005752133       -1.0617723078
	 H          -3.0692376584        0.8229887681       -3.0459847473
	 C          -2.8821547713        1.5240771634       -1.1600380667
	 H           0.9483201001        2.7637375065       -1.6853819316
	 H           0.1206200539        2.2667395336        1.4723504364
	 C          -0.0683525594        1.5637614121       -0.4135962442
	 H          -0.4406286076       -2.4122223714       -1.1392510792
	 H           2.5300208733       -1.1839003851       -1.8894723540
	 C           1.0125707886       -1.1347675056       -0.5553257041
	 H           2.7511188309       -3.7973916268        1.9655689571
	 H           0.4853371975       -1.8755401497        3.3998710920
	 H           3.4559866784       -0.6472181633        2.6496498172
	 C           2.0008975561       -1.9246730292        2.0638347160
	             0.0141358788        0.0130811906       -0.0128330818
	             0.0130419885       -0.0190338309        0.0002588280
	             0.0051952472        0.0076522974        0.0211698703
	            -0.0291530934       -0.0101167376       -0.0091653219
	            -0.0108688191       -0.0167474705        0.0110284133
	            -0.0032623409       -0.0112589622       -0.0195533630
	             0.0229610790        0.0262003985        0.0163647715
	             0.0137979051        0.0160570653        0.0090955580
	            -0.0158655198        0.0047463177        0.0164963803
	            -0.0064140174       -0.0190778879       -0.0327934261
	            -0.0099306371        0.0220045137       -0.0038953385
	             0.0154556116        0.0002526081       -0.0175000621
	            -0.0161701823       -0.0123563636       -0.0090259380
	             0.0070740540       -0.0013979037        0.0303454112

	Previous optimization step data not found.  Starting new optimization.

	---Fragment 1 Intrafragment Coordinates---
	 - Coordinate -           - BOHR/RAD -       - ANG/DEG -
	 R(1,4)           =         2.021436	       1.069698
	 R(2,4)           =         2.023298	       1.070683
	 R(3,4)           =         2.020723	       1.069320
	 R(4,7)           =         2.911397	       1.540645
	 R(5,7)           =         2.022623	       1.070326
	 R(6,7)           =         2.021555	       1.069761
	 R(7,10)          =         2.910419	       1.540128
	 R(8,10)          =         2.021051	       1.069494
	 R(9,10)          =         2.021142	       1.069542
	 R(10,14)         =         2.908735	       1.539236
	 R(11,14)         =         2.019793	       1.068828
	 R(12,14)         =         2.020973	       1.069453
	 R(13,14)         =         2.022957	       1.070503
	 B(1,4,2)         =         1.910870	     109.484805
	 B(1,4,3)         =         1.911121	     109.499161
	 B(1,4,7)         =         1.910399	     109.457783
	 B(2,4,3)         =         1.910042	     109.437340
	 B(2,4,7)         =         1.910564	     109.467262
	 B(3,4,7)         =         1.910803	     109.480971
	 B(4,7,5)         =         1.909937	     109.431343
	 B(4,7,6)         =         1.911630	     109.528316
	 B(4,7,10)        =         1.911154	     109.501062
	 B(5,7,6)         =         1.910605	     109.469614
	 B(5,7,10)        =         1.910047	     109.437654
	 B(6,7,10)        =         1.910425	     109.459295
	 B(7,10,8)        =         1.910364	     109.455816
	 B(7,10,9)        =         1.910837	     109.482906
	 B(7,10,14)       =         1.911485	     109.520015
	 B(8,10,9)        =         1.911085	     109.497105
	 B(8,10,14)       =         1.910091	     109.440145
	 B(9,10,14)       =         1.909937	     109.431337
	 B(10,14,11)      =         1.911538	     109.523084
	 B(10,14,12)      =         1.911197	     109.503507
	 B(10,14,13)      =         1.910987	     109.491497
	 B(11,14,12)      =         1.910544	     109.466094
	 B(11,14,13)      =         1.909661	     109.415539
	 B(12,14,13)      =         1.909871	     109.427523
	 D(1,4,7,5)       =         3.140997	     179.965873
	 D(1,4,7,6)       =        -1.047644	     -60.025575
	 D(1,4,7,10)      =         1.047427	      60.013132
	 D(2,4,7,5)       =        -1.047689	     -60.028143
	 D(2,4,7,6)       =         1.046856	      59.980409
	 D(2,4,7,10)      =        -3.141259	    -179.980883
	 D(3,4,7,5)       =         1.046044	      59.933911
	 D(3,4,7,6)       =         3.140588	     179.942463
	 D(3,4,7,10)      =        -1.047526	     -60.018830
	 D(4,7,10,8)      =        -0.000019	      -0.001086
	 D(4,7,10,9)      =         2.094890	     120.028337
	 D(4,7,10,14)     =        -2.094106	    -119.983464
	 D(5,7,10,8)      =        -2.093522	    -119.949962
	 D(5,7,10,9)      =         0.001387	       0.079461
	 D(5,7,10,14)     =         2.095576	     120.067660
	 D(6,7,10,8)      =         2.095789	     120.079839
	 D(6,7,10,9)      =        -2.092488	    -119.890737
	 D(6,7,10,14)     =         0.001701	       0.097462
	 D(7,10,14,11)    =        -3.141564	    -179.998331
	 D(7,10,14,12)    =         1.046435	      59.956338
	 D(7,10,14,13)    =        -1.047587	     -60.022338
	 D(8,10,14,11)    =         1.047367	      60.009703
	 D(8,10,14,12)    =        -1.047819	     -60.035629
	 D(8,10,14,13)    =         3.141343	     179.985696
	 D(9,10,14,11)    =        -1.046824	     -59.978581
	 D(9,10,14,12)    =         3.141175	     179.976087
	 D(9,10,14,13)    =         1.047152	      59.997411

	Current energy   :      -158.4434682639

	Generating empirical Hessian (Schlegel '84) for each fragment.
	Adding user-defined constraint: Fragment 1; Coordinate 49:
		Value =    -2.094106; Fixed value    =    -2.094395
		Force =    -0.000144; Force constant =     0.500000
	Removing off-diagonal coupling between coordinate 49 and others.
	Taking RFO optimization step.
	Going to follow RFO solution 1.
	Using RFO vector 1.

	Determining step-restricting scale parameter for RS-RFO.
	Maximum step size allowed    0.10000

	 Iter      |step|        alpha        rfo_root  
	------------------------------------------------
	    0     0.26641       1.00000           1
	    1     0.19333       6.42155           1
	    2     0.14291      19.92958           1
	    3     0.11419      39.56071           1
	    4     0.10240      53.66059           1
	    5     0.10009      57.08949           1
	    6     0.10000      57.22684           1
	------------------------------------------------
	Norm of target step-size    0.10000
	Projected energy change by RFO approximation:        -0.0074996033

	Back-transformation to cartesian coordinates...
	Successfully converged to displaced geometry.

	--- Internal Coordinate Step in ANG or DEG, aJ/ANG or AJ/DEG ---
	 ---------------------------------------------------------------------------
	   Coordinate                Previous        Force       Change         New 
	   ----------                --------       ------       ------       ------
	    1 R(1,4)          =      1.069698     0.188957     0.014877     1.084575
	    2 R(2,4)          =      1.070683     0.185182     0.014603     1.085285
	    3 R(3,4)          =      1.069320     0.188620     0.014842     1.084163
	    4 R(4,7)          =      1.540645     0.023483     0.002073     1.542718
	    5 R(5,7)          =      1.070326     0.184005     0.014502     1.084828
	    6 R(6,7)          =      1.069761     0.185056     0.014572     1.084332
	    7 R(7,10)         =      1.540128     0.112085     0.009887     1.550014
	    8 R(8,10)         =      1.069494     0.187007     0.014719     1.084214
	    9 R(9,10)         =      1.069542     0.188800     0.014862     1.084404
	   10 R(10,14)        =      1.539236     0.029567     0.002605     1.541842
	   11 R(11,14)        =      1.068828     0.196916     0.015483     1.084311
	   12 R(12,14)        =      1.069453     0.190760     0.015014     1.084466
	   13 R(13,14)        =      1.070503     0.181634     0.014319     1.084821
	   14 B(1,4,2)        =    109.484805    -0.000322    -0.403839   109.080966
	   15 B(1,4,3)        =    109.499161    -0.000238    -0.304755   109.194407
	   16 B(1,4,7)        =    109.457783     0.000195     0.239869   109.697651
	   17 B(2,4,3)        =    109.437340    -0.000317    -0.392226   109.045114
	   18 B(2,4,7)        =    109.467262     0.000484     0.609900   110.077162
	   19 B(3,4,7)        =    109.480971     0.000199     0.243898   109.724869
	   20 B(4,7,5)        =    109.431343    -0.000307    -0.352949   109.078394
	   21 B(4,7,6)        =    109.528316    -0.000275    -0.317568   109.210748
	   22 B(4,7,10)       =    109.501062     0.000928     1.087007   110.588070
	   23 B(5,7,6)        =    109.469614    -0.000016    -0.117984   109.351629
	   24 B(5,7,10)       =    109.437654    -0.000128    -0.102205   109.335449
	   25 B(6,7,10)       =    109.459295    -0.000202    -0.201199   109.258096
	   26 B(7,10,8)       =    109.455816    -0.000203    -0.203987   109.251829
	   27 B(7,10,9)       =    109.482906    -0.000132    -0.108191   109.374715
	   28 B(7,10,14)      =    109.520015     0.000925     1.083581   110.603596
	   29 B(8,10,9)       =    109.497105    -0.000019    -0.121998   109.375107
	   30 B(8,10,14)      =    109.440145    -0.000266    -0.304585   109.135560
	   31 B(9,10,14)      =    109.431337    -0.000304    -0.349665   109.081672
	   32 B(10,14,11)     =    109.523084     0.000478     0.601638   110.124723
	   33 B(10,14,12)     =    109.503507     0.000188     0.231306   109.734813
	   34 B(10,14,13)     =    109.491497     0.000200     0.246062   109.737559
	   35 B(11,14,12)     =    109.466094    -0.000317    -0.397272   109.068822
	   36 B(11,14,13)     =    109.415539    -0.000315    -0.390351   109.025188
	   37 B(12,14,13)     =    109.427523    -0.000234    -0.299970   109.127553
	   38 D(1,4,7,5)      =    179.965873     0.000040     0.249816   180.215689
	   39 D(1,4,7,6)      =    -60.025575    -0.000047    -0.298911   -60.324486
	   40 D(1,4,7,10)     =     60.013132    -0.000012    -0.073132    59.940000
	   41 D(2,4,7,5)      =    -60.028143     0.000044     0.279366   -59.748776
	   42 D(2,4,7,6)      =     59.980409    -0.000042    -0.269361    59.711049
	   43 D(2,4,7,10)     =   -179.980883    -0.000007    -0.043582  -180.024466
	   44 D(3,4,7,5)      =     59.933911     0.000051     0.325709    60.259619
	   45 D(3,4,7,6)      =    179.942463    -0.000035    -0.223018   179.719444
	   46 D(3,4,7,10)     =    -60.018830     0.000000     0.002760   -60.016070
	   47 D(4,7,10,8)     =     -0.001086     0.000026     0.171335     0.170248
	   48 D(4,7,10,9)     =    120.028337    -0.000026    -0.167584   119.860753
	   49 D(4,7,10,14)    =   -119.983464    -0.000000     0.004857  -119.978607
	   50 D(5,7,10,8)     =   -119.949962     0.000000    -0.001607  -119.951569
	   51 D(5,7,10,9)     =      0.079461    -0.000052    -0.340526    -0.261065
	   52 D(5,7,10,14)    =    120.067660    -0.000026    -0.168085   119.899576
	   53 D(6,7,10,8)     =    120.079839     0.000051     0.326568   120.406407
	   54 D(6,7,10,9)     =   -119.890737    -0.000001    -0.012351  -119.903089
	   55 D(6,7,10,14)    =      0.097462     0.000025     0.160090     0.257551
	   56 D(7,10,14,11)   =   -179.998331    -0.000006    -0.041232  -180.039563
	   57 D(7,10,14,12)   =     59.956338    -0.000011    -0.069616    59.886722
	   58 D(7,10,14,13)   =    -60.022338     0.000000     0.004309   -60.018029
	   59 D(8,10,14,11)   =     60.009703    -0.000042    -0.267709    59.741994
	   60 D(8,10,14,12)   =    -60.035629    -0.000046    -0.296093   -60.331722
	   61 D(8,10,14,13)   =    179.985696    -0.000035    -0.222168   179.763527
	   62 D(9,10,14,11)   =    -59.978581     0.000044     0.274934   -59.703647
	   63 D(9,10,14,12)   =    179.976087     0.000039     0.246550   180.222637
	   64 D(9,10,14,13)   =     59.997411     0.000050     0.320475    60.317886
	 ---------------------------------------------------------------------------
	 Forces used to impose fixed constraints are not included.
	  Forces zeroed: 49 

  ==> Convergence Check <==

  Measures of convergence in internal coordinates in au.
  Criteria marked as inactive (o), active & met (*), and active & unmet ( ).
  --------------------------------------------------------------------------------------------- ~
   Step     Total Energy     Delta E     MAX Force     RMS Force      MAX Disp      RMS Disp    ~
  --------------------------------------------------------------------------------------------- ~
    Convergence Criteria    1.00e-06 *    3.00e-04 *             o    1.20e-03 *             o  ~
  --------------------------------------------------------------------------------------------- ~
      1    -158.44346826   -1.58e+02      2.39e-02      9.74e-03 o    2.93e-02      1.25e-02 o  ~
  ---------------------------------------------------------------------------------------------

	Writing optimization data to binary file.
	Structure for next step:
	Cartesian Geometry (in Angstrom)
	    H    -2.0935332962   0.1703245641   0.0505342903
	    H    -1.9507942914   1.8095732989  -0.5946143898
	    H    -1.6416646902   0.4194964386  -1.6402117658
	    C    -1.5400589732   0.8057197066  -0.6322850154
	    H     0.4923446064   1.4683099801  -0.9172389930
	    H     0.0417101345   1.2195000799   0.7760502334
	    C    -0.0506826250   0.8274888158  -0.2307107204
	    H    -0.2201731059  -1.3003637488  -0.5909914041
	    H     1.3653649378  -0.6246171991  -0.9922190399
	    C     0.5480462679  -0.6013734601  -0.2799116248
	    H     1.4930439610  -2.0164818438   1.0646683512
	    H     0.2664335617  -1.0003123342   1.8281906651
	    H     1.8497225797  -0.3250158461   1.4268716806
	    C     1.0768523006  -1.0161518661   1.1077478489
			--------------------------
			 OPTKING Finished Execution 
			--------------------------

    Structure for next step:
    Molecular point group: c1
    Full point group: C1

    Geometry (in Angstrom), charge = 0, multiplicity = 1:

    H           -2.093692172077     0.170200481945     0.050666148896
    H           -1.950953167273     1.809449216803    -0.594482531262
    H           -1.641823566066     0.419372356466    -1.640079907278
    C           -1.540217849078     0.805595624506    -0.632153156849
    H            0.492185730537     1.468185897922    -0.917107134424
    H            0.041551258559     1.219375997751     0.776182091955
    C           -0.050841500859     0.827364733642    -0.230578861828
    H           -0.220331981772    -1.300487830955    -0.590859545570
    H            1.365206061938    -0.624741281260    -0.992087181364
    C            0.547887391998    -0.601497542244    -0.279779766218
    H            1.492885085057    -2.016605925916     1.064800209707
    H            0.266274685790    -1.000436416321     1.828322523702
    H            1.849563703792    -0.325139928197     1.427003539189
    C            1.076693424664    -1.016275948219     1.107879707412

gradient() will perform analytic gradient computation.

*** tstart() called on lski1497
*** at Tue Feb 21 18:18:08 2017


         ---------------------------------------------------------
                                   SCF
            by Justin Turney, Rob Parrish, and Andy Simmonett
                              RKS Reference
                        1 Threads,   1000 MiB Core
         ---------------------------------------------------------

  ==> Geometry <==

    Molecular point group: c1
    Full point group: C1

    Geometry (in Angstrom), charge = 0, multiplicity = 1:

       Center              X                  Y                   Z               Mass       
    ------------   -----------------  -----------------  -----------------  -----------------
           H         -2.093692172077     0.170200481945     0.050666148896     1.007825032070
           H         -1.950953167273     1.809449216803    -0.594482531262     1.007825032070
           H         -1.641823566066     0.419372356466    -1.640079907278     1.007825032070
           C         -1.540217849078     0.805595624506    -0.632153156849    12.000000000000
           H          0.492185730537     1.468185897922    -0.917107134424     1.007825032070
           H          0.041551258559     1.219375997751     0.776182091955     1.007825032070
           C         -0.050841500859     0.827364733642    -0.230578861828    12.000000000000
           H         -0.220331981772    -1.300487830955    -0.590859545570     1.007825032070
           H          1.365206061938    -0.624741281260    -0.992087181364     1.007825032070
           C          0.547887391998    -0.601497542244    -0.279779766218    12.000000000000
           H          1.492885085057    -2.016605925916     1.064800209707     1.007825032070
           H          0.266274685790    -1.000436416321     1.828322523702     1.007825032070
           H          1.849563703792    -0.325139928197     1.427003539189     1.007825032070
           C          1.076693424664    -1.016275948219     1.107879707412    12.000000000000

  Running in c1 symmetry.

  Rotational constants: A =      0.58820  B =      0.12835  C =      0.12834 [cm^-1]
  Rotational constants: A =  17633.76294  B =   3847.71695  C =   3847.38863 [MHz]
  Nuclear repulsion =  131.399513302126906

  Charge       = 0
  Multiplicity = 1
  Electrons    = 34
  Nalpha       = 17
  Nbeta        = 17

  ==> Algorithm <==

  SCF Algorithm Type is DF.
  DIIS enabled.
  MOM disabled.
  Fractional occupation disabled.
  Guess Type is READ.
  Energy threshold   = 1.00e-08
  Density threshold  = 1.00e-08
  Integral threshold = 0.00e+00

  ==> Primary Basis <==

  Basis Set: CC-PVDZ
    Number of shells: 54
    Number of basis function: 106
    Number of Cartesian functions: 110
    Spherical Harmonics?: true
    Max angular momentum: 2

  ==> DFT Potential <==

   => B3LYP Composite Functional <= 

    B3LYP Hybrid-GGA Exchange-Correlation Functional (VWN1-RPA)

    P.J. Stephens et. al., J. Phys. Chem., 98, 11623-11627, 1994

    Points   =           5000
    Deriv    =              1
    GGA      =           TRUE
    Meta     =          FALSE

    X_LRC        =          FALSE
    X_Hybrid     =           TRUE
    X_Alpha      =   2.000000E-01
    X_Omega      =   0.000000E+00
    C_LRC        =          FALSE
    C_Hybrid     =          FALSE
    C_Alpha      =   0.000000E+00
    C_Omega      =   0.000000E+00

   => Exchange Functionals <=

    0.8000    B3_X
    0.2000      HF 

   => Correlation Functionals <=

    0.1900 VWN3RPA_C
    0.8100   LYP_C

   => Molecular Quadrature <=

    Radial Scheme    =       TREUTLER
    Pruning Scheme   =           FLAT
    Nuclear Scheme   =       TREUTLER

    BS radius alpha  =              1
    Pruning alpha    =              1
    Radial Points    =             75
    Spherical Points =            302
    Total Points     =         312796
    Total Blocks     =            270
    Max Points       =           4849
    Max Functions    =            106

  ==> Pre-Iterations <==

   -------------------------------------------------------
    Irrep   Nso     Nmo     Nalpha   Nbeta   Ndocc  Nsocc
   -------------------------------------------------------
     A        106     106       0       0       0       0
   -------------------------------------------------------
    Total     106     106      17      17      17       0
   -------------------------------------------------------

  ==> Integral Setup <==

  ==> DFJK: Density-Fitted J/K Matrices <==

    J tasked:                  Yes
    K tasked:                  Yes
    wK tasked:                  No
    OpenMP threads:              1
    Integrals threads:           1
    Memory (MB):               715
    Algorithm:                Core
    Integral Cache:           NONE
    Schwarz Cutoff:          1E-12
    Fitting Condition:       1E-12

   => Auxiliary Basis Set <=

  Basis Set: 
    Number of shells: 186
    Number of basis function: 510
    Number of Cartesian functions: 574
    Spherical Harmonics?: true
    Max angular momentum: 3

  Minimum eigenvalue in the overlap matrix is 4.7307415544E-03.
  Using Symmetric Orthogonalization.
  SCF Guess was Projection but file not found.
  Switching over to SAD guess.

  SCF Guess: Superposition of Atomic Densities via on-the-fly atomic UHF.

  ==> Iterations <==

                           Total Energy        Delta E     RMS |[F,P]|

   @DF-RKS iter   0:  -158.98466963445364   -1.58985e+02   3.31566e-02 
   @DF-RKS iter   1:  -158.31365463482837    6.71015e-01   4.54799e-03 
   @DF-RKS iter   2:  -158.26964409470582    4.40105e-02   5.36361e-03 DIIS
   @DF-RKS iter   3:  -158.44869041011873   -1.79046e-01   3.50681e-04 DIIS
   @DF-RKS iter   4:  -158.44936927506799   -6.78865e-04   1.18124e-04 DIIS
   @DF-RKS iter   5:  -158.44943813232911   -6.88573e-05   4.64206e-05 DIIS
   @DF-RKS iter   6:  -158.44945000726199   -1.18749e-05   5.49868e-06 DIIS
   @DF-RKS iter   7:  -158.44945019132999   -1.84068e-07   9.81338e-07 DIIS
   @DF-RKS iter   8:  -158.44945019775878   -6.42879e-09   1.38699e-07 DIIS
   @DF-RKS iter   9:  -158.44945019787943   -1.20650e-10   3.66614e-08 DIIS
   @DF-RKS iter  10:  -158.44945019788679   -7.36122e-12   1.58092e-08 DIIS
   @DF-RKS iter  11:  -158.44945019788761   -8.24230e-13   2.88127e-09 DIIS

  ==> Post-Iterations <==

    Orbital Energies (a.u.)
    -----------------------

    Doubly Occupied:                                                      

       1A    -10.173722     2A    -10.173541     3A    -10.170070  
       4A    -10.169947     5A     -0.790956     6A     -0.720215  
       7A     -0.629598     8A     -0.574257     9A     -0.463352  
      10A     -0.436983    11A     -0.420600    12A     -0.395562  
      13A     -0.363737    14A     -0.361871    15A     -0.328808  
      16A     -0.320643    17A     -0.312685  

    Virtual:                                                              

      18A      0.062161    19A      0.089515    20A      0.099590  
      21A      0.106809    22A      0.138804    23A      0.145165  
      24A      0.147347    25A      0.150071    26A      0.154820  
      27A      0.170194    28A      0.220542    29A      0.249589  
      30A      0.257648    31A      0.402315    32A      0.421482  
      33A      0.428847    34A      0.452334    35A      0.476660  
      36A      0.485271    37A      0.505898    38A      0.584264  
      39A      0.585116    40A      0.628442    41A      0.637603  
      42A      0.658016    43A      0.659255    44A      0.665443  
      45A      0.670408    46A      0.686221    47A      0.689332  
      48A      0.693033    49A      0.700620    50A      0.728126  
      51A      0.733025    52A      0.748232    53A      0.870491  
      54A      0.881614    55A      0.971695    56A      1.122363  
      57A      1.123725    58A      1.188896    59A      1.201477  
      60A      1.249702    61A      1.353048    62A      1.391050  
      63A      1.429454    64A      1.440834    65A      1.458494  
      66A      1.470589    67A      1.566836    68A      1.575948  
      69A      1.598442    70A      1.631305    71A      1.652749  
      72A      1.658832    73A      1.669351    74A      1.687323  
      75A      1.696419    76A      1.697140    77A      1.702970  
      78A      1.726110    79A      1.743339    80A      1.765547  
      81A      1.780251    82A      1.799746    83A      1.843807  
      84A      1.913139    85A      1.969545    86A      2.015224  
      87A      2.025482    88A      2.067427    89A      2.119669  
      90A      2.129382    91A      2.201163    92A      2.229072  
      93A      2.256608    94A      2.285503    95A      2.317901  
      96A      2.324668    97A      2.456703    98A      2.471411  
      99A      2.500459   100A      2.501947   101A      2.545542  
     102A      2.581527   103A      2.583542   104A      2.604908  
     105A      2.650749   106A      2.714624  

    Final Occupation by Irrep:
              A 
    DOCC [    17 ]

  Energy converged.

  @DF-RKS Final Energy:  -158.44945019788761

   => Energetics <=

    Nuclear Repulsion Energy =            131.3995133021269055
    One-Electron Energy =                -471.2518895786776056
    Two-Electron Energy =                 202.0363767880929800
    DFT Exchange-Correlation Energy =     -20.6334507094299191
    Empirical Dispersion Energy =           0.0000000000000000
    PCM Polarization Energy =               0.0000000000000000
    EFP Energy =                            0.0000000000000000
    Total Energy =                       -158.4494501978876144


  Saving occupied orbitals to File 180.

*** tstop() called on lski1497 at Tue Feb 21 18:20:19 2017
Module time:
	user time   =     116.30 seconds =       1.94 minutes
	system time =       1.51 seconds =       0.03 minutes
	total time  =        131 seconds =       2.18 minutes
Total time:
	user time   =     269.06 seconds =       4.48 minutes
	system time =       3.62 seconds =       0.06 minutes
	total time  =        298 seconds =       4.97 minutes


Properties will be evaluated at   0.000000,   0.000000,   0.000000 Bohr

Properties computed using the SCF density matrix

  Nuclear Dipole Moment: (a.u.)
     X:    -0.3742      Y:    -0.1695      Z:     0.3866

  Electronic Dipole Moment: (a.u.)
     X:     0.3929      Y:     0.1777      Z:    -0.4060

  Dipole Moment: (a.u.)
     X:     0.0188      Y:     0.0081      Z:    -0.0194     Total:     0.0282

  Dipole Moment: (Debye)
     X:     0.0477      Y:     0.0207      Z:    -0.0493     Total:     0.0717


*** tstart() called on lski1497
*** at Tue Feb 21 18:20:19 2017


         ------------------------------------------------------------
                                   SCF GRAD                          
                          Rob Parrish, Justin Turney,                
                       Andy Simmonett, and Alex Sokolov              
         ------------------------------------------------------------

  ==> Geometry <==

    Molecular point group: c1
    Full point group: C1

    Geometry (in Angstrom), charge = 0, multiplicity = 1:

       Center              X                  Y                   Z               Mass       
    ------------   -----------------  -----------------  -----------------  -----------------
           H         -2.093692172077     0.170200481945     0.050666148896     1.007825032070
           H         -1.950953167273     1.809449216803    -0.594482531262     1.007825032070
           H         -1.641823566066     0.419372356466    -1.640079907278     1.007825032070
           C         -1.540217849078     0.805595624506    -0.632153156849    12.000000000000
           H          0.492185730537     1.468185897922    -0.917107134424     1.007825032070
           H          0.041551258559     1.219375997751     0.776182091955     1.007825032070
           C         -0.050841500859     0.827364733642    -0.230578861828    12.000000000000
           H         -0.220331981772    -1.300487830955    -0.590859545570     1.007825032070
           H          1.365206061938    -0.624741281260    -0.992087181364     1.007825032070
           C          0.547887391998    -0.601497542244    -0.279779766218    12.000000000000
           H          1.492885085057    -2.016605925916     1.064800209707     1.007825032070
           H          0.266274685790    -1.000436416321     1.828322523702     1.007825032070
           H          1.849563703792    -0.325139928197     1.427003539189     1.007825032070
           C          1.076693424664    -1.016275948219     1.107879707412    12.000000000000

  Nuclear repulsion =  131.399513302126906

  ==> Basis Set <==

  Basis Set: CC-PVDZ
    Number of shells: 54
    Number of basis function: 106
    Number of Cartesian functions: 110
    Spherical Harmonics?: true
    Max angular momentum: 2

  ==> DFJKGrad: Density-Fitted SCF Gradients <==

    Gradient:                    1
    J tasked:                  Yes
    K tasked:                  Yes
    wK tasked:                  No
    OpenMP threads:              1
    Integrals threads:           1
    Memory (MB):               715
    Schwarz Cutoff:          0E+00
    Fitting Condition:       1E-12

   => Auxiliary Basis Set <=

  Basis Set: 
    Number of shells: 186
    Number of basis function: 510
    Number of Cartesian functions: 574
    Spherical Harmonics?: true
    Max angular momentum: 3

  ==> DFT Potential <==

   => B3LYP Composite Functional <= 

    B3LYP Hybrid-GGA Exchange-Correlation Functional (VWN1-RPA)

    P.J. Stephens et. al., J. Phys. Chem., 98, 11623-11627, 1994

    Points   =           5000
    Deriv    =              1
    GGA      =           TRUE
    Meta     =          FALSE

    X_LRC        =          FALSE
    X_Hybrid     =           TRUE
    X_Alpha      =   2.000000E-01
    X_Omega      =   0.000000E+00
    C_LRC        =          FALSE
    C_Hybrid     =          FALSE
    C_Alpha      =   0.000000E+00
    C_Omega      =   0.000000E+00

   => Exchange Functionals <=

    0.8000    B3_X
    0.2000      HF 

   => Correlation Functionals <=

    0.1900 VWN3RPA_C
    0.8100   LYP_C

   => Molecular Quadrature <=

    Radial Scheme    =       TREUTLER
    Pruning Scheme   =           FLAT
    Nuclear Scheme   =       TREUTLER

    BS radius alpha  =              1
    Pruning alpha    =              1
    Radial Points    =             75
    Spherical Points =            302
    Total Points     =         312796
    Total Blocks     =            270
    Max Points       =           4849
    Max Functions    =            106


  -Total Gradient:
     Atom            X                  Y                   Z
    ------   -----------------  -----------------  -----------------
       1        0.008464884008     0.006755283250    -0.006132648845
       2        0.007741733438    -0.009402333987     0.000552211006
       3        0.003865194866     0.004180814973     0.011048348136
       4       -0.019989707129    -0.006926513814    -0.006381041901
       5       -0.006021950420    -0.010172294031     0.004227387673
       6       -0.002609471632    -0.007719789346    -0.009771085592
       7        0.015547679712     0.019368555660     0.011589259140
       8        0.006154526962     0.009324130803     0.006342307006
       9       -0.007404618902     0.004124887637     0.009610674472
      10       -0.004184234928    -0.014366821638    -0.022909302984
      11       -0.005433888261     0.011198932439    -0.003113367740
      12        0.007412214745     0.000408946755    -0.010089322534
      13       -0.008529674657    -0.006148926862    -0.005816979442
      14        0.004980602811    -0.000626628651     0.020835372843


*** tstop() called on lski1497 at Tue Feb 21 18:21:02 2017
Module time:
	user time   =      37.95 seconds =       0.63 minutes
	system time =       0.62 seconds =       0.01 minutes
	total time  =         43 seconds =       0.72 minutes
Total time:
	user time   =     307.04 seconds =       5.12 minutes
	system time =       4.24 seconds =       0.07 minutes
	total time  =        341 seconds =       5.68 minutes

			-----------------------------------------
			 OPTKING 2.0: for geometry optimizations 
			  - R.A. King,  Bethel University        
			-----------------------------------------

	Previous internal coordinate definitions found.
	---Fragment 1 Geometry and Gradient---
	 H          -3.9565048118        0.3216322986        0.0957451456
	 H          -3.6867671842        3.4193634711       -1.1234091749
	 H          -3.1025968984        0.7924989014       -3.0993018608
	 C          -2.9105899197        1.5223551042       -1.1945963405
	 H           0.9300962372        2.7744692592       -1.7330813186
	 H           0.0785204992        2.3042866888        1.4667715830
	 C          -0.0960765128        1.5634927586       -0.4357309009
	 H          -0.4163671039       -2.4575658397       -1.1165627241
	 H           2.5798655720       -1.1805899255       -1.8747730727
	 C           1.0353571225       -1.1366656244       -0.5287071357
	 H           2.8211439586       -3.8108329179        2.0121807826
	 H           0.5031862323       -1.8905508402        3.4550288524
	 H           3.4951688655       -0.6144254192        2.6966458797
	 C           2.0346557017       -1.9204832176        2.0935892352
	             0.0084648840        0.0067552832       -0.0061326488
	             0.0077417334       -0.0094023340        0.0005522110
	             0.0038651949        0.0041808150        0.0110483481
	            -0.0199897071       -0.0069265138       -0.0063810419
	            -0.0060219504       -0.0101722940        0.0042273877
	            -0.0026094716       -0.0077197893       -0.0097710856
	             0.0155476797        0.0193685557        0.0115892591
	             0.0061545270        0.0093241308        0.0063423070
	            -0.0074046189        0.0041248876        0.0096106745
	            -0.0041842349       -0.0143668216       -0.0229093030
	            -0.0054338883        0.0111989324       -0.0031133677
	             0.0074122147        0.0004089468       -0.0100893225
	            -0.0085296747       -0.0061489269       -0.0058169794
	             0.0049806028       -0.0006266287        0.0208353728

	---Fragment 1 Intrafragment Coordinates---
	 - Coordinate -           - BOHR/RAD -       - ANG/DEG -
	 R(1,4)           =         2.049550	       1.084575
	 R(2,4)           =         2.050892	       1.085285
	 R(3,4)           =         2.048770	       1.084163
	 R(4,7)           =         2.915314	       1.542718
	 R(5,7)           =         2.050027	       1.084828
	 R(6,7)           =         2.049091	       1.084332
	 R(7,10)          =         2.929103	       1.550014
	 R(8,10)          =         2.048867	       1.084214
	 R(9,10)          =         2.049226	       1.084404
	 R(10,14)         =         2.913659	       1.541842
	 R(11,14)         =         2.049052	       1.084311
	 R(12,14)         =         2.049344	       1.084466
	 R(13,14)         =         2.050015	       1.084821
	 B(1,4,2)         =         1.903822	     109.080966
	 B(1,4,3)         =         1.905802	     109.194407
	 B(1,4,7)         =         1.914585	     109.697651
	 B(2,4,3)         =         1.903196	     109.045114
	 B(2,4,7)         =         1.921209	     110.077162
	 B(3,4,7)         =         1.915060	     109.724869
	 B(4,7,5)         =         1.903777	     109.078394
	 B(4,7,6)         =         1.906087	     109.210748
	 B(4,7,10)        =         1.930126	     110.588070
	 B(5,7,6)         =         1.908546	     109.351629
	 B(5,7,10)        =         1.908264	     109.335449
	 B(6,7,10)        =         1.906914	     109.258096
	 B(7,10,8)        =         1.906804	     109.251829
	 B(7,10,9)        =         1.908949	     109.374715
	 B(7,10,14)       =         1.930397	     110.603596
	 B(8,10,9)        =         1.908956	     109.375107
	 B(8,10,14)       =         1.904775	     109.135560
	 B(9,10,14)       =         1.903834	     109.081672
	 B(10,14,11)      =         1.922039	     110.124723
	 B(10,14,12)      =         1.915234	     109.734813
	 B(10,14,13)      =         1.915282	     109.737559
	 B(11,14,12)      =         1.903610	     109.068822
	 B(11,14,13)      =         1.902848	     109.025188
	 B(12,14,13)      =         1.904635	     109.127553
	 D(1,4,7,5)       =        -3.137828	    -179.784311
	 D(1,4,7,6)       =        -1.052861	     -60.324486
	 D(1,4,7,10)      =         1.046150	      59.940000
	 D(2,4,7,5)       =        -1.042813	     -59.748776
	 D(2,4,7,6)       =         1.042154	      59.711049
	 D(2,4,7,10)      =         3.141166	     179.975534
	 D(3,4,7,5)       =         1.051729	      60.259619
	 D(3,4,7,6)       =         3.136696	     179.719444
	 D(3,4,7,10)      =        -1.047478	     -60.016070
	 D(4,7,10,8)      =         0.002971	       0.170248
	 D(4,7,10,9)      =         2.091965	     119.860753
	 D(4,7,10,14)     =        -2.094022	    -119.978607
	 D(5,7,10,8)      =        -2.093550	    -119.951569
	 D(5,7,10,9)      =        -0.004556	      -0.261065
	 D(5,7,10,14)     =         2.092642	     119.899576
	 D(6,7,10,8)      =         2.101488	     120.406407
	 D(6,7,10,9)      =        -2.092704	    -119.903089
	 D(6,7,10,14)     =         0.004495	       0.257551
	 D(7,10,14,11)    =         3.140902	     179.960437
	 D(7,10,14,12)    =         1.045220	      59.886722
	 D(7,10,14,13)    =        -1.047512	     -60.018029
	 D(8,10,14,11)    =         1.042694	      59.741994
	 D(8,10,14,12)    =        -1.052987	     -60.331722
	 D(8,10,14,13)    =         3.137465	     179.763527
	 D(9,10,14,11)    =        -1.042025	     -59.703647
	 D(9,10,14,12)    =        -3.137707	    -179.777363
	 D(9,10,14,13)    =         1.052746	      60.317886

	Current energy   :      -158.4494501979

	Energy change for the previous step:
		Projected    :        -0.0074996033
		Actual       :        -0.0059819340

	Performing BFGS update.
	Previous computed or guess Hessian on step 1.
	Steps to be used in Hessian update: 1
	Adding user-defined constraint: Fragment 1; Coordinate 49:
		Value =    -2.094022; Fixed value    =    -2.094400
		Force =    -0.000199; Force constant =     0.525000
	Removing off-diagonal coupling between coordinate 49 and others.
	Taking RFO optimization step.
	Going to follow RFO solution 1.
	Using RFO vector 1.

	Determining step-restricting scale parameter for RS-RFO.
	Maximum step size allowed    0.10000

	 Iter      |step|        alpha        rfo_root  
	------------------------------------------------
	    0     0.20289       1.00000           1
	    1     0.15061       7.45253           1
	    2     0.11970      18.71862           1
	    3     0.10467      29.96287           1
	    4     0.10036      34.47015           1
	    5     0.10000      34.88023           1
	------------------------------------------------
	Norm of target step-size    0.10000
	Projected energy change by RFO approximation:        -0.0040556834

	Back-transformation to cartesian coordinates...
	Successfully converged to displaced geometry.

	--- Internal Coordinate Step in ANG or DEG, aJ/ANG or AJ/DEG ---
	 ---------------------------------------------------------------------------
	   Coordinate                Previous        Force       Change         New 
	   ----------                --------       ------       ------       ------
	    1 R(1,4)          =      1.084575     0.099994     0.012415     1.096990
	    2 R(2,4)          =      1.085285     0.095635     0.011635     1.096921
	    3 R(3,4)          =      1.084163     0.099886     0.012404     1.096567
	    4 R(4,7)          =      1.542718    -0.001928    -0.002328     1.540390
	    5 R(5,7)          =      1.084828     0.096384     0.011870     1.096698
	    6 R(6,7)          =      1.084332     0.099562     0.012536     1.096869
	    7 R(7,10)         =      1.550014     0.050683     0.005537     1.555551
	    8 R(8,10)         =      1.084214     0.100451     0.012627     1.096841
	    9 R(9,10)         =      1.084404     0.098716     0.012128     1.096532
	   10 R(10,14)        =      1.541842     0.001672    -0.001782     1.540060
	   11 R(11,14)        =      1.084311     0.101284     0.012255     1.096566
	   12 R(12,14)        =      1.084466     0.100816     0.012500     1.096966
	   13 R(13,14)        =      1.084821     0.096427     0.012016     1.096837
	   14 B(1,4,2)        =    109.080966    -0.000251    -0.668508   108.412458
	   15 B(1,4,3)        =    109.194407    -0.000220    -0.663043   108.531363
	   16 B(1,4,7)        =    109.697651     0.000189     0.573065   110.270717
	   17 B(2,4,3)        =    109.045114    -0.000247    -0.646643   108.398471
	   18 B(2,4,7)        =    110.077162     0.000329     0.788463   110.865625
	   19 B(3,4,7)        =    109.724869     0.000190     0.568343   110.293212
	   20 B(4,7,5)        =    109.078394    -0.000184    -0.318695   108.759698
	   21 B(4,7,6)        =    109.210748    -0.000162    -0.286857   108.923891
	   22 B(4,7,10)       =    110.588070     0.000593     1.300503   111.888573
	   23 B(5,7,6)        =    109.351629    -0.000079    -0.587494   108.764135
	   24 B(5,7,10)       =    109.335449    -0.000059     0.010271   109.345720
	   25 B(6,7,10)       =    109.258096    -0.000115    -0.152200   109.105896
	   26 B(7,10,8)       =    109.251829    -0.000116    -0.153841   109.097988
	   27 B(7,10,9)       =    109.374715    -0.000061     0.001154   109.375870
	   28 B(7,10,14)      =    110.603596     0.000590     1.289861   111.893457
	   29 B(8,10,9)       =    109.375107    -0.000082    -0.595259   108.779848
	   30 B(8,10,14)      =    109.135560    -0.000154    -0.261645   108.873915
	   31 B(9,10,14)      =    109.081672    -0.000182    -0.314651   108.767021
	   32 B(10,14,11)     =    110.124723     0.000324     0.769802   110.894524
	   33 B(10,14,12)     =    109.734813     0.000182     0.553716   110.288529
	   34 B(10,14,13)     =    109.737559     0.000190     0.567819   110.305377
	   35 B(11,14,12)     =    109.068822    -0.000247    -0.657625   108.411196
	   36 B(11,14,13)     =    109.025188    -0.000244    -0.638982   108.386206
	   37 B(12,14,13)     =    109.127553    -0.000215    -0.643919   108.483634
	   38 D(1,4,7,5)      =   -179.784311     0.000032     0.501861  -179.282450
	   39 D(1,4,7,6)      =    -60.324486    -0.000037    -0.561137   -60.885622
	   40 D(1,4,7,10)     =     59.940000    -0.000009    -0.119038    59.820963
	   41 D(2,4,7,5)      =    -59.748776     0.000036     0.540485   -59.208291
	   42 D(2,4,7,6)      =     59.711049    -0.000034    -0.522512    59.188537
	   43 D(2,4,7,10)     =    179.975534    -0.000005    -0.080413   179.895121
	   44 D(3,4,7,5)      =     60.259619     0.000040     0.603473    60.863092
	   45 D(3,4,7,6)      =    179.719444    -0.000029    -0.459525   179.259920
	   46 D(3,4,7,10)     =    -60.016070    -0.000000    -0.017426   -60.033495
	   47 D(4,7,10,8)     =      0.170248     0.000024     0.402965     0.573213
	   48 D(4,7,10,9)     =    119.860753    -0.000024    -0.412245   119.448508
	   49 D(4,7,10,14)    =   -119.978607     0.000000     0.015880  -119.962727
	   50 D(5,7,10,8)     =   -119.951569    -0.000000    -0.031302  -119.982871
	   51 D(5,7,10,9)     =     -0.261065    -0.000048    -0.846511    -1.107576
	   52 D(5,7,10,14)    =    119.899576    -0.000024    -0.418387   119.481189
	   53 D(6,7,10,8)     =    120.406407     0.000046     0.767560   121.173967
	   54 D(6,7,10,9)     =   -119.903089    -0.000002    -0.047649  -119.950738
	   55 D(6,7,10,14)    =      0.257551     0.000022     0.380475     0.638026
	   56 D(7,10,14,11)   =    179.960437    -0.000005    -0.075929   179.884509
	   57 D(7,10,14,12)   =     59.886722    -0.000008    -0.105188    59.781533
	   58 D(7,10,14,13)   =    -60.018029    -0.000000    -0.014721   -60.032750
	   59 D(8,10,14,11)   =     59.741994    -0.000034    -0.523777    59.218216
	   60 D(8,10,14,12)   =    -60.331722    -0.000037    -0.553037   -60.884759
	   61 D(8,10,14,13)   =    179.763527    -0.000029    -0.462569   179.300958
	   62 D(9,10,14,11)   =    -59.703647     0.000035     0.530511   -59.173136
	   63 D(9,10,14,12)   =   -179.777363     0.000032     0.501252  -179.276111
	   64 D(9,10,14,13)   =     60.317886     0.000040     0.591719    60.909606
	 ---------------------------------------------------------------------------
	 Forces used to impose fixed constraints are not included.
	  Forces zeroed: 49 

  ==> Convergence Check <==

  Measures of convergence in internal coordinates in au.
  Criteria marked as inactive (o), active & met (*), and active & unmet ( ).
  ---------------------------------------------------------------------------------------------
   Step     Total Energy     Delta E     MAX Force     RMS Force      MAX Disp      RMS Disp   
  ---------------------------------------------------------------------------------------------
    Convergence Criteria    1.00e-06 *    3.00e-04 *             o    1.20e-03 *             o
  ---------------------------------------------------------------------------------------------
      2    -158.44945020   -5.98e-03      1.23e-02      5.33e-03 o    2.39e-02      1.25e-02 o  ~
  ---------------------------------------------------------------------------------------------

	Writing optimization data to binary file.
	Structure for next step:
	Cartesian Geometry (in Angstrom)
	    H    -2.1262097176   0.1742869647   0.0391650409
	    H    -1.9749471992   1.8180468330  -0.6256219436
	    H    -1.6629395768   0.4077125518  -1.6641775136
	    C    -1.5513707099   0.8064730172  -0.6487949418
	    H     0.4823700635   1.4721358187  -0.9367596567
	    H     0.0210876209   1.2385870405   0.7698284804
	    C    -0.0657540054   0.8242859741  -0.2420676162
	    H    -0.2045801495  -1.3217879718  -0.5802584262
	    H     1.3858906094  -0.6236432695  -0.9837799282
	    C     0.5587147198  -0.6002429211  -0.2643254153
	    H     1.5277724976  -2.0208448570   1.0853632160
	    H     0.2818648463  -1.0120141316   1.8571141433
	    H     1.8689491328  -0.3141472917   1.4528387046
	    C     1.0935389732  -1.0144883213   1.1192019924
			--------------------------
			 OPTKING Finished Execution 
			--------------------------

    Structure for next step:
    Molecular point group: c1
    Full point group: C1

    Geometry (in Angstrom), charge = 0, multiplicity = 1:

    H           -2.126513963001     0.174127815407     0.039421287331
    H           -1.975251444662     1.817887683714    -0.625365697191
    H           -1.663243822234     0.407553402481    -1.663921267167
    C           -1.551674955291     0.806313867890    -0.648538695376
    H            0.482065818039     1.471976669402    -0.936503410265
    H            0.020783375471     1.238427891220     0.770084726773
    C           -0.066058250812     0.824126824772    -0.241811369817
    H           -0.204884394898    -1.321947121105    -0.580002179803
    H            1.385586364001    -0.623802418821    -0.983523681823
    C            0.558410474374    -0.600402070400    -0.264069168893
    H            1.527468252193    -2.021004006333     1.085619462426
    H            0.281560600844    -1.012173280879     1.857370389727
    H            1.868644887386    -0.314306441016     1.453094950954
    C            1.093234727744    -1.014647470613     1.119458238844

gradient() will perform analytic gradient computation.

*** tstart() called on lski1497
*** at Tue Feb 21 18:21:03 2017


         ---------------------------------------------------------
                                   SCF
            by Justin Turney, Rob Parrish, and Andy Simmonett
                              RKS Reference
                        1 Threads,   1000 MiB Core
         ---------------------------------------------------------

  ==> Geometry <==

    Molecular point group: c1
    Full point group: C1

    Geometry (in Angstrom), charge = 0, multiplicity = 1:

       Center              X                  Y                   Z               Mass       
    ------------   -----------------  -----------------  -----------------  -----------------
           H         -2.126513963001     0.174127815407     0.039421287331     1.007825032070
           H         -1.975251444662     1.817887683714    -0.625365697191     1.007825032070
           H         -1.663243822234     0.407553402481    -1.663921267167     1.007825032070
           C         -1.551674955291     0.806313867890    -0.648538695376    12.000000000000
           H          0.482065818039     1.471976669402    -0.936503410265     1.007825032070
           H          0.020783375471     1.238427891220     0.770084726773     1.007825032070
           C         -0.066058250812     0.824126824772    -0.241811369817    12.000000000000
           H         -0.204884394898    -1.321947121105    -0.580002179803     1.007825032070
           H          1.385586364001    -0.623802418821    -0.983523681823     1.007825032070
           C          0.558410474374    -0.600402070400    -0.264069168893    12.000000000000
           H          1.527468252193    -2.021004006333     1.085619462426     1.007825032070
           H          0.281560600844    -1.012173280879     1.857370389727     1.007825032070
           H          1.868644887386    -0.314306441016     1.453094950954     1.007825032070
           C          1.093234727744    -1.014647470613     1.119458238844    12.000000000000

  Running in c1 symmetry.

  Rotational constants: A =      0.59068  B =      0.12595  C =      0.12586 [cm^-1]
  Rotational constants: A =  17708.26243  B =   3775.98388  C =   3773.26741 [MHz]
  Nuclear repulsion =  130.503216038163430

  Charge       = 0
  Multiplicity = 1
  Electrons    = 34
  Nalpha       = 17
  Nbeta        = 17

  ==> Algorithm <==

  SCF Algorithm Type is DF.
  DIIS enabled.
  MOM disabled.
  Fractional occupation disabled.
  Guess Type is READ.
  Energy threshold   = 1.00e-08
  Density threshold  = 1.00e-08
  Integral threshold = 0.00e+00

  ==> Primary Basis <==

  Basis Set: CC-PVDZ
    Number of shells: 54
    Number of basis function: 106
    Number of Cartesian functions: 110
    Spherical Harmonics?: true
    Max angular momentum: 2

  ==> DFT Potential <==

   => B3LYP Composite Functional <= 

    B3LYP Hybrid-GGA Exchange-Correlation Functional (VWN1-RPA)

    P.J. Stephens et. al., J. Phys. Chem., 98, 11623-11627, 1994

    Points   =           5000
    Deriv    =              1
    GGA      =           TRUE
    Meta     =          FALSE

    X_LRC        =          FALSE
    X_Hybrid     =           TRUE
    X_Alpha      =   2.000000E-01
    X_Omega      =   0.000000E+00
    C_LRC        =          FALSE
    C_Hybrid     =          FALSE
    C_Alpha      =   0.000000E+00
    C_Omega      =   0.000000E+00

   => Exchange Functionals <=

    0.8000    B3_X
    0.2000      HF 

   => Correlation Functionals <=

    0.1900 VWN3RPA_C
    0.8100   LYP_C

   => Molecular Quadrature <=

    Radial Scheme    =       TREUTLER
    Pruning Scheme   =           FLAT
    Nuclear Scheme   =       TREUTLER

    BS radius alpha  =              1
    Pruning alpha    =              1
    Radial Points    =             75
    Spherical Points =            302
    Total Points     =         312800
    Total Blocks     =            270
    Max Points       =           4909
    Max Functions    =            106

  ==> Pre-Iterations <==

   -------------------------------------------------------
    Irrep   Nso     Nmo     Nalpha   Nbeta   Ndocc  Nsocc
   -------------------------------------------------------
     A        106     106       0       0       0       0
   -------------------------------------------------------
    Total     106     106      17      17      17       0
   -------------------------------------------------------

  ==> Integral Setup <==

  ==> DFJK: Density-Fitted J/K Matrices <==

    J tasked:                  Yes
    K tasked:                  Yes
    wK tasked:                  No
    OpenMP threads:              1
    Integrals threads:           1
    Memory (MB):               715
    Algorithm:                Core
    Integral Cache:           NONE
    Schwarz Cutoff:          1E-12
    Fitting Condition:       1E-12

   => Auxiliary Basis Set <=

  Basis Set: 
    Number of shells: 186
    Number of basis function: 510
    Number of Cartesian functions: 574
    Spherical Harmonics?: true
    Max angular momentum: 3

  Minimum eigenvalue in the overlap matrix is 4.7913942359E-03.
  Using Symmetric Orthogonalization.
  SCF Guess was Projection but file not found.
  Switching over to SAD guess.

  SCF Guess: Superposition of Atomic Densities via on-the-fly atomic UHF.

  ==> Iterations <==

                           Total Energy        Delta E     RMS |[F,P]|

   @DF-RKS iter   0:  -158.93512429325764   -1.58935e+02   3.25708e-02 
   @DF-RKS iter   1:  -158.32216699204497    6.12957e-01   4.43576e-03 
   @DF-RKS iter   2:  -158.27630206077743    4.58649e-02   5.28851e-03 DIIS
   @DF-RKS iter   3:  -158.45151057352354   -1.75209e-01   3.45815e-04 DIIS
   @DF-RKS iter   4:  -158.45218022736572   -6.69654e-04   1.13956e-04 DIIS
   @DF-RKS iter   5:  -158.45224386877553   -6.36414e-05   4.65519e-05 DIIS
   @DF-RKS iter   6:  -158.45225584442429   -1.19756e-05   5.45552e-06 DIIS
   @DF-RKS iter   7:  -158.45225602577480   -1.81351e-07   9.77578e-07 DIIS
   @DF-RKS iter   8:  -158.45225603219819   -6.42339e-09   1.41933e-07 DIIS
   @DF-RKS iter   9:  -158.45225603232717   -1.28978e-10   3.70212e-08 DIIS
   @DF-RKS iter  10:  -158.45225603233337   -6.19593e-12   1.63460e-08 DIIS
   @DF-RKS iter  11:  -158.45225603233473   -1.36424e-12   2.95330e-09 DIIS

  ==> Post-Iterations <==

    Orbital Energies (a.u.)
    -----------------------

    Doubly Occupied:                                                      

       1A    -10.177843     2A    -10.177692     3A    -10.174173  
       4A    -10.174125     5A     -0.788352     6A     -0.719005  
       7A     -0.627727     8A     -0.571206     9A     -0.460195  
      10A     -0.435107    11A     -0.418630    12A     -0.394314  
      13A     -0.362045    14A     -0.360692    15A     -0.326932  
      16A     -0.318730    17A     -0.315634  

    Virtual:                                                              

      18A      0.060523    19A      0.087473    20A      0.097499  
      21A      0.104549    22A      0.136478    23A      0.143204  
      24A      0.144705    25A      0.146751    26A      0.150918  
      27A      0.166649    28A      0.218591    29A      0.251080  
      30A      0.259131    31A      0.399646    32A      0.418976  
      33A      0.425313    34A      0.448784    35A      0.476615  
      36A      0.485664    37A      0.507072    38A      0.580414  
      39A      0.585433    40A      0.623222    41A      0.631921  
      42A      0.651156    43A      0.652675    44A      0.660814  
      45A      0.666762    46A      0.675447    47A      0.683232  
      48A      0.693317    49A      0.695644    50A      0.720882  
      51A      0.723277    52A      0.745256    53A      0.869382  
      54A      0.881426    55A      0.969280    56A      1.116841  
      57A      1.124133    58A      1.185099    59A      1.191842  
      60A      1.243989    61A      1.343192    62A      1.383505  
      63A      1.424412    64A      1.433940    65A      1.452845  
      66A      1.459079    67A      1.553954    68A      1.576352  
      69A      1.589119    70A      1.626163    71A      1.647936  
      72A      1.649933    73A      1.664085    74A      1.675625  
      75A      1.684025    76A      1.691879    77A      1.697411  
      78A      1.718039    79A      1.736794    80A      1.753519  
      81A      1.769528    82A      1.787990    83A      1.838606  
      84A      1.896970    85A      1.952660    86A      2.008176  
      87A      2.027474    88A      2.055136    89A      2.098254  
      90A      2.118396    91A      2.182147    92A      2.208645  
      93A      2.238672    94A      2.270823    95A      2.293684  
      96A      2.297807    97A      2.421594    98A      2.436049  
      99A      2.480095   100A      2.481077   101A      2.528200  
     102A      2.557168   103A      2.564352   104A      2.582505  
     105A      2.631193   106A      2.696342  

    Final Occupation by Irrep:
              A 
    DOCC [    17 ]

  Energy converged.

  @DF-RKS Final Energy:  -158.45225603233473

   => Energetics <=

    Nuclear Repulsion Energy =            130.5032160381634299
    One-Electron Energy =                -469.4988247436132838
    Two-Electron Energy =                 201.1398511256114148
    DFT Exchange-Correlation Energy =     -20.5964984524962809
    Empirical Dispersion Energy =           0.0000000000000000
    PCM Polarization Energy =               0.0000000000000000
    EFP Energy =                            0.0000000000000000
    Total Energy =                       -158.4522560323347307


  Saving occupied orbitals to File 180.

*** tstop() called on lski1497 at Tue Feb 21 18:23:14 2017
Module time:
	user time   =     115.74 seconds =       1.93 minutes
	system time =       1.42 seconds =       0.02 minutes
	total time  =        131 seconds =       2.18 minutes
Total time:
	user time   =     423.44 seconds =       7.06 minutes
	system time =       5.68 seconds =       0.09 minutes
	total time  =        473 seconds =       7.88 minutes


Properties will be evaluated at   0.000000,   0.000000,   0.000000 Bohr

Properties computed using the SCF density matrix

  Nuclear Dipole Moment: (a.u.)
     X:    -0.3785      Y:    -0.1718      Z:     0.3902

  Electronic Dipole Moment: (a.u.)
     X:     0.3958      Y:     0.1796      Z:    -0.4081

  Dipole Moment: (a.u.)
     X:     0.0173      Y:     0.0078      Z:    -0.0179     Total:     0.0261

  Dipole Moment: (Debye)
     X:     0.0440      Y:     0.0197      Z:    -0.0455     Total:     0.0663


*** tstart() called on lski1497
*** at Tue Feb 21 18:23:14 2017


         ------------------------------------------------------------
                                   SCF GRAD                          
                          Rob Parrish, Justin Turney,                
                       Andy Simmonett, and Alex Sokolov              
         ------------------------------------------------------------

  ==> Geometry <==

    Molecular point group: c1
    Full point group: C1

    Geometry (in Angstrom), charge = 0, multiplicity = 1:

       Center              X                  Y                   Z               Mass       
    ------------   -----------------  -----------------  -----------------  -----------------
           H         -2.126513963001     0.174127815407     0.039421287331     1.007825032070
           H         -1.975251444662     1.817887683714    -0.625365697191     1.007825032070
           H         -1.663243822234     0.407553402481    -1.663921267167     1.007825032070
           C         -1.551674955291     0.806313867890    -0.648538695376    12.000000000000
           H          0.482065818039     1.471976669402    -0.936503410265     1.007825032070
           H          0.020783375471     1.238427891220     0.770084726773     1.007825032070
           C         -0.066058250812     0.824126824772    -0.241811369817    12.000000000000
           H         -0.204884394898    -1.321947121105    -0.580002179803     1.007825032070
           H          1.385586364001    -0.623802418821    -0.983523681823     1.007825032070
           C          0.558410474374    -0.600402070400    -0.264069168893    12.000000000000
           H          1.527468252193    -2.021004006333     1.085619462426     1.007825032070
           H          0.281560600844    -1.012173280879     1.857370389727     1.007825032070
           H          1.868644887386    -0.314306441016     1.453094950954     1.007825032070
           C          1.093234727744    -1.014647470613     1.119458238844    12.000000000000

  Nuclear repulsion =  130.503216038163430

  ==> Basis Set <==

  Basis Set: CC-PVDZ
    Number of shells: 54
    Number of basis function: 106
    Number of Cartesian functions: 110
    Spherical Harmonics?: true
    Max angular momentum: 2

  ==> DFJKGrad: Density-Fitted SCF Gradients <==

    Gradient:                    1
    J tasked:                  Yes
    K tasked:                  Yes
    wK tasked:                  No
    OpenMP threads:              1
    Integrals threads:           1
    Memory (MB):               715
    Schwarz Cutoff:          0E+00
    Fitting Condition:       1E-12

   => Auxiliary Basis Set <=

  Basis Set: 
    Number of shells: 186
    Number of basis function: 510
    Number of Cartesian functions: 574
    Spherical Harmonics?: true
    Max angular momentum: 3

  ==> DFT Potential <==

   => B3LYP Composite Functional <= 

    B3LYP Hybrid-GGA Exchange-Correlation Functional (VWN1-RPA)

    P.J. Stephens et. al., J. Phys. Chem., 98, 11623-11627, 1994

    Points   =           5000
    Deriv    =              1
    GGA      =           TRUE
    Meta     =          FALSE

    X_LRC        =          FALSE
    X_Hybrid     =           TRUE
    X_Alpha      =   2.000000E-01
    X_Omega      =   0.000000E+00
    C_LRC        =          FALSE
    C_Hybrid     =          FALSE
    C_Alpha      =   0.000000E+00
    C_Omega      =   0.000000E+00

   => Exchange Functionals <=

    0.8000    B3_X
    0.2000      HF 

   => Correlation Functionals <=

    0.1900 VWN3RPA_C
    0.8100   LYP_C

   => Molecular Quadrature <=

    Radial Scheme    =       TREUTLER
    Pruning Scheme   =           FLAT
    Nuclear Scheme   =       TREUTLER

    BS radius alpha  =              1
    Pruning alpha    =              1
    Radial Points    =             75
[...]

  ==> Basis Set <==

  Basis Set: CC-PVDZ
    Number of shells: 54
    Number of basis function: 106
    Number of Cartesian functions: 110
    Spherical Harmonics?: true
    Max angular momentum: 2

  ==> DFJKGrad: Density-Fitted SCF Gradients <==

    Gradient:                    1
    J tasked:                  Yes
    K tasked:                  Yes
    wK tasked:                  No
    OpenMP threads:              1
    Integrals threads:           1
    Memory (MB):               715
    Schwarz Cutoff:          0E+00
    Fitting Condition:       1E-12

   => Auxiliary Basis Set <=

  Basis Set: 
    Number of shells: 186
    Number of basis function: 510
    Number of Cartesian functions: 574
    Spherical Harmonics?: true
    Max angular momentum: 3

  ==> DFT Potential <==

   => B3LYP Composite Functional <= 

    B3LYP Hybrid-GGA Exchange-Correlation Functional (VWN1-RPA)

    P.J. Stephens et. al., J. Phys. Chem., 98, 11623-11627, 1994

    Points   =           5000
    Deriv    =              1
    GGA      =           TRUE
    Meta     =          FALSE

    X_LRC        =          FALSE
    X_Hybrid     =           TRUE
    X_Alpha      =   2.000000E-01
    X_Omega      =   0.000000E+00
    C_LRC        =          FALSE
    C_Hybrid     =          FALSE
    C_Alpha      =   0.000000E+00
    C_Omega      =   0.000000E+00

   => Exchange Functionals <=

    0.8000    B3_X
    0.2000      HF 

   => Correlation Functionals <=

    0.1900 VWN3RPA_C
    0.8100   LYP_C

   => Molecular Quadrature <=

    Radial Scheme    =       TREUTLER
    Pruning Scheme   =           FLAT
    Nuclear Scheme   =       TREUTLER

    BS radius alpha  =              1
    Pruning alpha    =              1
    Radial Points    =             75
    Spherical Points =            302
    Total Points     =         312806
    Total Blocks     =            271
    Max Points       =           4994
    Max Functions    =            106


  -Total Gradient:
     Atom            X                  Y                   Z
    ------   -----------------  -----------------  -----------------
       1       -0.000005644948     0.000003606850    -0.000005258917
       2       -0.000007093468    -0.000003851888     0.000001832583
       3        0.000002723093     0.000005026578     0.000008219285
       4       -0.000010897540    -0.000020480322     0.000133680239
       5       -0.000006101523    -0.000005176824    -0.000002973143
       6        0.000013158146    -0.000006624851    -0.000015615160
       7       -0.000032426784     0.000027117176    -0.000155880442
       8        0.000010343560     0.000017670173    -0.000007988565
       9        0.000001270358     0.000003027221     0.000008208187
      10        0.000156810299     0.000028878168     0.000026811304
      11       -0.000002545495    -0.000000493234     0.000007880757
      12        0.000006955814    -0.000003149918     0.000003595608
      13       -0.000005898811    -0.000006465731    -0.000005971006
      14       -0.000128323939    -0.000042576385     0.000011430596


*** tstop() called on lski1497 at Tue Feb 21 18:35:59 2017
Module time:
	user time   =      37.25 seconds =       0.62 minutes
	system time =       0.58 seconds =       0.01 minutes
	total time  =         41 seconds =       0.68 minutes
Total time:
	user time   =    1093.44 seconds =      18.22 minutes
	system time =      14.98 seconds =       0.25 minutes
	total time  =       1238 seconds =      20.63 minutes

			-----------------------------------------
			 OPTKING 2.0: for geometry optimizations 
			  - R.A. King,  Bethel University        
			-----------------------------------------

	Previous internal coordinate definitions found.
	---Fragment 1 Geometry and Gradient---
	 H          -4.0789701885        0.3528635916        0.0352717623
	 H          -3.7476768337        3.4652733937       -1.1998110164
	 H          -3.1913501751        0.8000424885       -3.1753161353
	 C          -2.9408668277        1.5447211589       -1.2434959366
	 H           0.9109807428        2.8070792124       -1.7428833877
	 H           0.0261448489        2.3819608623        1.4316338678
	 C          -0.1513040482        1.5400519169       -0.4711098570
	 H          -0.3475533254       -2.5279311181       -1.1012736824
	 H           2.6044442529       -1.2106143871       -1.8704401833
	 C           1.0637643793       -1.1256807774       -0.4667658346
	 H           2.9161202481       -3.8429050709        2.0545192443
	 H           0.5831918937       -1.9403689248        3.5578755718
	 H           3.5765082699       -0.6251437856        2.7794214342
	 C           2.0912410503       -1.9305587781        2.1167870527
	            -0.0000056449        0.0000036068       -0.0000052589
	            -0.0000070935       -0.0000038519        0.0000018326
	             0.0000027231        0.0000050266        0.0000082193
	            -0.0000108975       -0.0000204803        0.0001336802
	            -0.0000061015       -0.0000051768       -0.0000029731
	             0.0000131581       -0.0000066249       -0.0000156152
	            -0.0000324268        0.0000271172       -0.0001558804
	             0.0000103436        0.0000176702       -0.0000079886
	             0.0000012704        0.0000030272        0.0000082082
	             0.0001568103        0.0000288782        0.0000268113
	            -0.0000025455       -0.0000004932        0.0000078808
	             0.0000069558       -0.0000031499        0.0000035956
	            -0.0000058988       -0.0000064657       -0.0000059710
	            -0.0001283239       -0.0000425764        0.0000114306

	---Fragment 1 Intrafragment Coordinates---
	 - Coordinate -           - BOHR/RAD -       - ANG/DEG -
	 R(1,4)           =         2.085917	       1.103820
	 R(2,4)           =         2.083596	       1.102591
	 R(3,4)           =         2.085478	       1.103587
	 R(4,7)           =         2.894523	       1.531716
	 R(5,7)           =         2.085957	       1.103841
	 R(6,7)           =         2.088237	       1.105047
	 R(7,10)          =         2.929597	       1.550276
	 R(8,10)          =         2.088235	       1.105046
	 R(9,10)          =         2.085955	       1.103840
	 R(10,14)         =         2.894526	       1.531717
	 R(11,14)         =         2.083596	       1.102591
	 R(12,14)         =         2.085916	       1.103819
	 R(13,14)         =         2.085476	       1.103587
	 B(1,4,2)         =         1.878159	     107.610596
	 B(1,4,3)         =         1.873726	     107.356595
	 B(1,4,7)         =         1.940478	     111.181171
	 B(2,4,3)         =         1.877638	     107.580738
	 B(2,4,7)         =         1.948806	     111.658335
	 B(3,4,7)         =         1.941595	     111.245205
	 B(4,7,5)         =         1.904049	     109.093991
	 B(4,7,6)         =         1.901157	     108.928300
	 B(4,7,10)        =         1.984038	     113.676983
	 B(5,7,6)         =         1.841454	     105.507556
	 B(5,7,10)        =         1.920253	     110.022375
	 B(6,7,10)        =         1.907375	     109.284526
	 B(7,10,8)        =         1.907374	     109.284492
	 B(7,10,9)        =         1.920255	     110.022509
	 B(7,10,14)       =         1.984031	     113.676623
	 B(8,10,9)        =         1.841458	     105.507745
	 B(8,10,14)       =         1.901160	     108.928432
	 B(9,10,14)       =         1.904049	     109.093971
	 B(10,14,11)      =         1.948806	     111.658354
	 B(10,14,12)      =         1.940477	     111.181116
	 B(10,14,13)      =         1.941587	     111.244742
	 B(11,14,12)      =         1.878160	     107.610647
	 B(11,14,13)      =         1.877640	     107.580850
	 B(12,14,13)      =         1.873733	     107.356966
	 D(1,4,7,5)       =        -3.103119	    -177.795609
	 D(1,4,7,6)       =        -1.101284	     -63.098904
	 D(1,4,7,10)      =         1.030001	      59.014738
	 D(2,4,7,5)       =        -1.005267	     -57.597562
	 D(2,4,7,6)       =         0.996568	      57.099143
	 D(2,4,7,10)      =         3.127853	     179.212784
	 D(3,4,7,5)       =         1.092687	      62.606365
	 D(3,4,7,6)       =         3.094522	     177.303070
	 D(3,4,7,10)      =        -1.057378	     -60.583289
	 D(4,7,10,8)      =         0.033316	       1.908872
	 D(4,7,10,9)      =         2.047487	     117.312373
	 D(4,7,10,14)     =        -2.094523	    -120.007302
	 D(5,7,10,8)      =        -2.107863	    -120.771634
	 D(5,7,10,9)      =        -0.093692	      -5.368133
	 D(5,7,10,14)     =         2.047484	     117.312191
	 D(6,7,10,8)      =         2.161157	     123.825148
	 D(6,7,10,9)      =        -2.107858	    -120.771351
	 D(6,7,10,14)     =         0.033318	       1.908973
	 D(7,10,14,11)    =         3.127833	     179.211617
	 D(7,10,14,12)    =         1.029980	      59.013530
	 D(7,10,14,13)    =        -1.057401	     -60.584620
	 D(8,10,14,11)    =         0.996551	      57.098167
	 D(8,10,14,12)    =        -1.101301	     -63.099919
	 D(8,10,14,13)    =         3.094502	     177.301931
	 D(9,10,14,11)    =        -1.005289	     -57.598823
	 D(9,10,14,12)    =        -3.103141	    -177.796909
	 D(9,10,14,13)    =         1.092662	      62.604941

	Current energy   :      -158.4533539087

	Energy change for the previous step:
		Projected    :         0.0000019725
		Actual       :        -0.0000001725

	Performing BFGS update.
	Previous computed or guess Hessian on step 1.
	Steps to be used in Hessian update: 6 5
	Adding user-defined constraint: Fragment 1; Coordinate 49:
		Value =    -2.094523; Fixed value    =    -2.094400
		Force =     0.000080; Force constant =     0.650000
	Removing off-diagonal coupling between coordinate 49 and others.
	Taking RFO optimization step.
	Going to follow RFO solution 1.
	Using RFO vector 1.
	Norm of target step-size    0.00219
	Projected energy change by RFO approximation:        -0.0000002451

	Back-transformation to cartesian coordinates...
	Successfully converged to displaced geometry.

	--- Internal Coordinate Step in ANG or DEG, aJ/ANG or AJ/DEG ---
	 ---------------------------------------------------------------------------
	   Coordinate                Previous        Force       Change         New 
	   ----------                --------       ------       ------       ------
	    1 R(1,4)          =      1.103820     0.000024    -0.000011     1.103809
	    2 R(2,4)          =      1.102591     0.000009    -0.000015     1.102576
	    3 R(3,4)          =      1.103587     0.000074     0.000000     1.103588
	    4 R(4,7)          =      1.531716     0.000146     0.000050     1.531765
	    5 R(5,7)          =      1.103841     0.000030     0.000002     1.103842
	    6 R(6,7)          =      1.105047     0.000134     0.000026     1.105074
	    7 R(7,10)         =      1.550276    -0.000146    -0.000067     1.550209
	    8 R(8,10)         =      1.105046     0.000140     0.000027     1.105073
	    9 R(9,10)         =      1.103840     0.000032     0.000002     1.103842
	   10 R(10,14)        =      1.531717     0.000142     0.000048     1.531765
	   11 R(11,14)        =      1.102591     0.000009    -0.000016     1.102575
	   12 R(12,14)        =      1.103819     0.000026    -0.000010     1.103809
	   13 R(13,14)        =      1.103587     0.000078     0.000002     1.103588
	   14 B(1,4,2)        =    107.610596     0.000001     0.004551   107.615147
	   15 B(1,4,3)        =    107.356595     0.000000     0.001754   107.358349
	   16 B(1,4,7)        =    111.181171    -0.000001    -0.005482   111.175689
	   17 B(2,4,3)        =    107.580738     0.000000     0.001956   107.582695
	   18 B(2,4,7)        =    111.658335    -0.000001    -0.004435   111.653900
	   19 B(3,4,7)        =    111.245205     0.000001     0.002180   111.247385
	   20 B(4,7,5)        =    109.093991    -0.000001     0.004226   109.098217
	   21 B(4,7,6)        =    108.928300     0.000001    -0.011019   108.917280
	   22 B(4,7,10)       =    113.676983     0.000000     0.000777   113.677760
	   23 B(5,7,6)        =    105.507556     0.000000    -0.000207   105.507349
	   24 B(5,7,10)       =    110.022375    -0.000000     0.004447   110.026822
	   25 B(6,7,10)       =    109.284526     0.000000     0.001536   109.286062
	   26 B(7,10,8)       =    109.284492     0.000000     0.001551   109.286044
	   27 B(7,10,9)       =    110.022509    -0.000000     0.004267   110.026776
	   28 B(7,10,14)      =    113.676623     0.000000     0.001246   113.677868
	   29 B(8,10,9)       =    105.507745     0.000000    -0.000447   105.507298
	   30 B(8,10,14)      =    108.928432     0.000001    -0.011219   108.917213
	   31 B(9,10,14)      =    109.093971    -0.000001     0.004308   109.098279
	   32 B(10,14,11)     =    111.658354    -0.000001    -0.004507   111.653847
	   33 B(10,14,12)     =    111.181116    -0.000001    -0.005362   111.175755
	   34 B(10,14,13)     =    111.244742     0.000001     0.002754   111.247496
	   35 B(11,14,12)     =    107.610647     0.000001     0.004445   107.615091
	   36 B(11,14,13)     =    107.580850     0.000000     0.001814   107.582663
	   37 B(12,14,13)     =    107.356966     0.000000     0.001339   107.358305
	   38 D(1,4,7,5)      =   -177.795609    -0.000000     0.026220  -177.769388
	   39 D(1,4,7,6)      =    -63.098904    -0.000000     0.022306   -63.076598
	   40 D(1,4,7,10)     =     59.014738     0.000000     0.016734    59.031472
	   41 D(2,4,7,5)      =    -57.597562    -0.000000     0.025244   -57.572318
	   42 D(2,4,7,6)      =     57.099143    -0.000000     0.021329    57.120472
	   43 D(2,4,7,10)     =    179.212784     0.000000     0.015758   179.228542
	   44 D(3,4,7,5)      =     62.606365    -0.000000     0.026210    62.632575
	   45 D(3,4,7,6)      =    177.303070    -0.000000     0.022295   177.325365
	   46 D(3,4,7,10)     =    -60.583289     0.000000     0.016724   -60.566565
	   47 D(4,7,10,8)     =      1.908872    -0.000001    -0.022933     1.885939
	   48 D(4,7,10,9)     =    117.312373    -0.000000    -0.020196   117.292177
	   49 D(4,7,10,14)    =   -120.007302    -0.000001    -0.010464  -120.017766
	   50 D(5,7,10,8)     =   -120.771634    -0.000000    -0.032360  -120.803994
	   51 D(5,7,10,9)     =     -5.368133    -0.000000    -0.029622    -5.397756
	   52 D(5,7,10,14)    =    117.312191    -0.000000    -0.019891   117.292301
	   53 D(6,7,10,8)     =    123.825148    -0.000000    -0.035478   123.789669
	   54 D(6,7,10,9)     =   -120.771351    -0.000000    -0.032741  -120.804092
	   55 D(6,7,10,14)    =      1.908973    -0.000001    -0.023009     1.885964
	   56 D(7,10,14,11)   =    179.211617     0.000000     0.016743   179.228360
	   57 D(7,10,14,12)   =     59.013530     0.000000     0.017822    59.031352
	   58 D(7,10,14,13)   =    -60.584620     0.000000     0.017872   -60.566747
	   59 D(8,10,14,11)   =     57.098167    -0.000000     0.022122    57.120289
	   60 D(8,10,14,12)   =    -63.099919    -0.000000     0.023200   -63.076719
	   61 D(8,10,14,13)   =    177.301931    -0.000000     0.023251   177.325182
	   62 D(9,10,14,11)   =    -57.598823    -0.000000     0.026385   -57.572438
	   63 D(9,10,14,12)   =   -177.796909    -0.000000     0.027463  -177.769446
	   64 D(9,10,14,13)   =     62.604941    -0.000000     0.027514    62.632455
	 ---------------------------------------------------------------------------
	 Forces used to impose fixed constraints are not included.
	  Forces zeroed: 49 

  ==> Convergence Check <==

  Measures of convergence in internal coordinates in au.
  Criteria marked as inactive (o), active & met (*), and active & unmet ( ).
  ---------------------------------------------------------------------------------------------
   Step     Total Energy     Delta E     MAX Force     RMS Force      MAX Disp      RMS Disp   
  ---------------------------------------------------------------------------------------------
    Convergence Criteria    1.00e-06 *    3.00e-04 *             o    1.20e-03 *             o
  ---------------------------------------------------------------------------------------------
      7    -158.45335391   -1.73e-07 *    2.98e-05 *    1.10e-05 o    6.19e-04 *    2.74e-04 o  ~
  ---------------------------------------------------------------------------------------------


  **** Optimization is complete! (in 7 steps) ****

  ==> Optimization Summary <==

  Measures of convergence in internal coordinates in au.
  --------------------------------------------------------------------------------------------------------------- ~
   Step         Total Energy             Delta E       MAX Force       RMS Force        MAX Disp        RMS Disp  ~
  --------------------------------------------------------------------------------------------------------------- ~
      1    -158.443468263874   -158.443468263874      0.02390124      0.00973803      0.02925893      0.01250439  ~
      2    -158.449450197888     -0.005981934013      0.01229360      0.00533012      0.02386222      0.01251784  ~
      3    -158.452256032335     -0.002805834447      0.00406807      0.00203374      0.03029800      0.01250459  ~
      4    -158.453142588723     -0.000886556388      0.00138337      0.00062665      0.03486638      0.01121992  ~
      5    -158.453345587193     -0.000202998470      0.00082934      0.00016843      0.00759833      0.00253016  ~
      6    -158.453353736172     -0.000008148979      0.00012461      0.00003374      0.00159805      0.00066507  ~
      7    -158.453353908691     -0.000000172519      0.00005035      0.00001271      0.00061921      0.00027434  ~
  --------------------------------------------------------------------------------------------------------------- ~

	Writing optimization data to binary file.
	Final energy is   -158.4533539086909
	Final (previous) structure:
	Cartesian Geometry (in Angstrom)
	    H    -2.1584980583   0.1867273704   0.0186650127
	    H    -1.9831851655   1.8337437015  -0.6349126445
	    H    -1.6887897773   0.4233642508  -1.6803049289
	    C    -1.5562396987   0.8174312309  -0.6580297086
	    H     0.4820702466   1.4854423419  -0.9222941660
	    H     0.0138352582   1.2604794001   0.7575880139
	    C    -0.0800666539   0.8149603744  -0.2493005991
	    H    -0.1839172986  -1.3377235326  -0.5827689331
	    H     1.3782125397  -0.6406295420  -0.9897943150
	    C     0.5629198649  -0.5956846115  -0.2470018414
	    H     1.5431443728  -2.0335777783   1.0872047587
	    H     0.3086118584  -1.0267990113   1.8827466636
	    H     1.8926066627  -0.3308118434   1.4708064760
	    C     1.1066371015  -1.0216077052   1.1201554638
	Saving final (previous) structure.
			--------------------------
			 OPTKING Finished Execution 
			--------------------------

    Final optimized geometry and variables:
    Molecular point group: c1
    Full point group: C1

    Geometry (in Angstrom), charge = 0, multiplicity = 1:

    H           -2.158498058261     0.186727370390     0.018665012734
    H           -1.983185165536     1.833743701467    -0.634912644494
    H           -1.688789777301     0.423364250796    -1.680304928860
    C           -1.556239698729     0.817431230933    -0.658029708599
    H            0.482070246579     1.485442341916    -0.922294166003
    H            0.013835258150     1.260479400081     0.757588013906
    C           -0.080066653870     0.814960374444    -0.249300599089
    H           -0.183917298582    -1.337723532606    -0.582768933125
    H            1.378212539687    -0.640629542033    -0.989794315021
    C            0.562919864853    -0.595684611540    -0.247001841420
    H            1.543144372824    -2.033577778283     1.087204758718
    H            0.308611858383    -1.026799011283     1.882746663616
    H            1.892606662744    -0.330811843445     1.470806476031
    C            1.106637101477    -1.021607705203     1.120155463753

	Cleaning optimization helper files.

*** Psi4 exiting successfully. Buy a developer a beer!
