    -----------------------------------------------------------------------
          Psi4: An Open-Source Ab Initio Electronic Structure Package
                              Psi4 1.0.0 Driver

                          Git: Rev {master} 6a9a71b 

    J. M. Turney, A. C. Simmonett, R. M. Parrish, E. G. Hohenstein,
    F. A. Evangelista, J. T. Fermann, B. J. Mintz, L. A. Burns, J. J. Wilke,
    M. L. Abrams, N. J. Russ, M. L. Leininger, C. L. Janssen, E. T. Seidl,
    W. D. Allen, H. F. Schaefer, R. A. King, E. F. Valeev, C. D. Sherrill,
    and T. D. Crawford, WIREs Comput. Mol. Sci. 2, 556-565 (2012)
    (doi: 10.1002/wcms.93)

                         Additional Contributions by
    A. E. DePrince, U. Bozkaya, A. Yu. Sokolov, D. G. A. Smith, R. Di Remigio,
    R. M. Richard, J. F. Gonthier, H. R. McAlexander, M. Saitow, and
    B. P. Pritchard
    -----------------------------------------------------------------------


    Psi4 started on: Mon Feb 20 17:30:10 2017

    Process ID:  28165
    PSI4DATADIR: /Users/sternc1/anaconda/share/psi4
    Memory level set to 256.000 MB

  ==> Input File <==

--------------------------------------------------------------------------

memory 1000 mb

molecule butane {
  symmetry C1
  0 1 
  H      1.604   0.760   -8.260
  H      1.745   2.388   -8.880
  H      2.043   1.024   -9.930
  C      2.142   1.395   -8.932
  H      4.169   2.051   -9.210
  H      3.731   1.788   -7.539
  C      3.631   1.416   -8.537
  H      4.589   -0.190   -9.594
  H      4.989   -0.119   -7.895
  C      4.203   -0.012   -8.612
  H      3.486   -2.021   -8.359
  H      2.301   -0.922   -9.024
  H      2.701   -0.852   -7.325
  C      3.088   -1.029   -8.307
  units Angstrom
}

dih_string = "4 7 10 14 330"
set optking fixed_dihedral = $dih_string

optimize('MP2/6-31G(d)')
--------------------------------------------------------------------------

  Memory set to 1000.000 MiB by Python script.
gradient() will perform analytic gradient computation.
    SCF Algorithm Type (re)set to DF.

*** tstart() called on lski1497
*** at Mon Feb 20 17:30:11 2017


         ---------------------------------------------------------
                                   SCF
            by Justin Turney, Rob Parrish, and Andy Simmonett
                              RHF Reference
                        1 Threads,   1000 MiB Core
         ---------------------------------------------------------

  ==> Geometry <==

    Molecular point group: c1
    Full point group: C1

    Geometry (in Angstrom), charge = 0, multiplicity = 1:

       Center              X                  Y                   Z               Mass       
    ------------   -----------------  -----------------  -----------------  -----------------
           H         -1.639406547468     0.326488792943     0.337798232578     1.007825032070
           H         -1.498406547468     1.954488792943    -0.282201767422     1.007825032070
           H         -1.200406547468     0.590488792943    -1.332201767422     1.007825032070
           C         -1.101406547468     0.961488792943    -0.334201767422    12.000000000000
           H          0.925593452532     1.617488792943    -0.612201767422     1.007825032070
           H          0.487593452532     1.354488792943     1.058798232578     1.007825032070
           C          0.387593452532     0.982488792943     0.060798232578    12.000000000000
           H          1.345593452532    -0.623511207057    -0.996201767422     1.007825032070
           H          1.745593452532    -0.552511207057     0.702798232578     1.007825032070
           C          0.959593452532    -0.445511207057    -0.014201767422    12.000000000000
           H          0.242593452532    -2.454511207057     0.238798232578     1.007825032070
           H         -0.942406547468    -1.355511207057    -0.426201767422     1.007825032070
           H         -0.542406547468    -1.285511207057     1.272798232578     1.007825032070
           C         -0.155406547468    -1.462511207057     0.290798232578    12.000000000000

  Running in c1 symmetry.

  Rotational constants: A =      0.38640  B =      0.20047  C =      0.14895 [cm^-1]
  Rotational constants: A =  11583.88646  B =   6010.03908  C =   4465.42997 [MHz]
  Nuclear repulsion =  136.008553233335533

  Charge       = 0
  Multiplicity = 1
  Electrons    = 34
  Nalpha       = 17
  Nbeta        = 17

  ==> Algorithm <==

  SCF Algorithm Type is DF.
  DIIS enabled.
  MOM disabled.
  Fractional occupation disabled.
  Guess Type is SAD.
  Energy threshold   = 1.00e-10
  Density threshold  = 1.00e-10
  Integral threshold = 0.00e+00

  ==> Primary Basis <==

  Basis Set: 6-31G(D)
    Number of shells: 44
    Number of basis function: 80
    Number of Cartesian functions: 80
    Spherical Harmonics?: false
    Max angular momentum: 2

  ==> Pre-Iterations <==

   -------------------------------------------------------
    Irrep   Nso     Nmo     Nalpha   Nbeta   Ndocc  Nsocc
   -------------------------------------------------------
     A         80      80       0       0       0       0
   -------------------------------------------------------
    Total      80      80      17      17      17       0
   -------------------------------------------------------

  ==> Integral Setup <==

  ==> DFJK: Density-Fitted J/K Matrices <==

    J tasked:                  Yes
    K tasked:                  Yes
    wK tasked:                  No
    OpenMP threads:              1
    Integrals threads:           1
    Memory (MB):               715
    Algorithm:                Core
    Integral Cache:           NONE
    Schwarz Cutoff:          1E-12
    Fitting Condition:       1E-12

   => Auxiliary Basis Set <=

  Basis Set: 
    Number of shells: 186
    Number of basis function: 574
    Number of Cartesian functions: 574
    Spherical Harmonics?: false
    Max angular momentum: 3

  Minimum eigenvalue in the overlap matrix is 4.3036746089E-03.
  Using Symmetric Orthogonalization.
  SCF Guess: Superposition of Atomic Densities via on-the-fly atomic UHF.

  ==> Iterations <==

                           Total Energy        Delta E     RMS |[F,P]|

   @DF-RHF iter   0:  -158.86192350830629   -1.58862e+02   4.63438e-02 
   @DF-RHF iter   1:  -157.16639927014552    1.69552e+00   4.78249e-03 
   @DF-RHF iter   2:  -157.26762166645801   -1.01222e-01   1.61485e-03 DIIS
   @DF-RHF iter   3:  -157.27893252093662   -1.13109e-02   6.16476e-04 DIIS
   @DF-RHF iter   4:  -157.28087161412589   -1.93909e-03   8.71855e-05 DIIS
   @DF-RHF iter   5:  -157.28092900988190   -5.73958e-05   1.97317e-05 DIIS
   @DF-RHF iter   6:  -157.28093168685052   -2.67697e-06   5.40638e-06 DIIS
   @DF-RHF iter   7:  -157.28093184577381   -1.58923e-07   1.29295e-06 DIIS
   @DF-RHF iter   8:  -157.28093185787446   -1.21007e-08   3.13514e-07 DIIS
   @DF-RHF iter   9:  -157.28093185866965   -7.95183e-10   8.14111e-08 DIIS
   @DF-RHF iter  10:  -157.28093185871768   -4.80327e-11   2.39338e-08 DIIS
   @DF-RHF iter  11:  -157.28093185872098   -3.29692e-12   5.23472e-09 DIIS
   @DF-RHF iter  12:  -157.28093185872098    0.00000e+00   1.11831e-09 DIIS
   @DF-RHF iter  13:  -157.28093185872115   -1.70530e-13   2.18438e-10 DIIS
   @DF-RHF iter  14:  -157.28093185872115    0.00000e+00   7.08622e-11 DIIS

  ==> Post-Iterations <==

    Orbital Energies (a.u.)
    -----------------------

    Doubly Occupied:                                                      

       1A    -11.207391     2A    -11.206808     3A    -11.198659  
       4A    -11.198643     5A     -1.076727     6A     -0.968430  
       7A     -0.886498     8A     -0.773609     9A     -0.643884  
      10A     -0.628354    11A     -0.570557    12A     -0.539573  
      13A     -0.527965    14A     -0.509751    15A     -0.462900  
      16A     -0.454428    17A     -0.452486  

    Virtual:                                                              

      18A      0.232477    19A      0.280035    20A      0.288793  
      21A      0.305842    22A      0.312263    23A      0.318076  
      24A      0.357727    25A      0.360232    26A      0.362142  
      27A      0.377471    28A      0.402295    29A      0.425151  
      30A      0.460589    31A      0.714023    32A      0.733980  
      33A      0.758223    34A      0.771587    35A      0.781822  
      36A      0.827558    37A      0.847238    38A      0.930448  
      39A      0.946681    40A      0.999345    41A      1.123127  
      42A      1.148011    43A      1.171288    44A      1.184720  
      45A      1.190441    46A      1.210110    47A      1.213217  
      48A      1.213402    49A      1.232417    50A      1.270390  
      51A      1.272550    52A      1.303886    53A      1.330183  
      54A      1.606008    55A      1.682921    56A      1.723318  
      57A      1.750821    58A      1.946985    59A      1.980400  
      60A      2.083600    61A      2.165260    62A      2.295792  
      63A      2.308088    64A      2.321375    65A      2.360695  
      66A      2.445660    67A      2.514796    68A      2.611975  
      69A      2.661989    70A      2.690981    71A      2.732763  
      72A      2.750944    73A      2.810007    74A      2.929248  
      75A      2.957895    76A      3.097853    77A      4.591855  
      78A      4.694058    79A      4.790895    80A      4.976244  

    Final Occupation by Irrep:
              A 
    DOCC [    17 ]

  Energy converged.

  @DF-RHF Final Energy:  -157.28093185872115

   => Energetics <=

    Nuclear Repulsion Energy =            136.0085532333355332
    One-Electron Energy =                -479.9656462516441593
    Two-Electron Energy =                 186.6761611595875934
    DFT Exchange-Correlation Energy =       0.0000000000000000
    Empirical Dispersion Energy =           0.0000000000000000
    PCM Polarization Energy =               0.0000000000000000
    EFP Energy =                            0.0000000000000000
    Total Energy =                       -157.2809318587210328


  Saving occupied orbitals to File 180.

*** tstop() called on lski1497 at Mon Feb 20 17:30:19 2017
Module time:
	user time   =       4.82 seconds =       0.08 minutes
	system time =       0.16 seconds =       0.00 minutes
	total time  =          8 seconds =       0.13 minutes
Total time:
	user time   =       4.82 seconds =       0.08 minutes
	system time =       0.16 seconds =       0.00 minutes
	total time  =          8 seconds =       0.13 minutes


Properties will be evaluated at   0.000000,   0.000000,   0.000000 Bohr

Properties computed using the SCF density matrix

  Nuclear Dipole Moment: (a.u.)
     X:    -1.0088      Y:    -0.4013      Z:    -0.0356

  Electronic Dipole Moment: (a.u.)
     X:     1.0385      Y:     0.4127      Z:     0.0367

  Dipole Moment: (a.u.)
     X:     0.0297      Y:     0.0113      Z:     0.0010     Total:     0.0318

  Dipole Moment: (Debye)
     X:     0.0755      Y:     0.0288      Z:     0.0027     Total:     0.0808


  //>>>>>>>>>>>>>>>>>>>>>>>>>>>>>>>>>>>//
  //               DFMP2               //
  //<<<<<<<<<<<<<<<<<<<<<<<<<<<<<<<<<<<//


*** tstart() called on lski1497
*** at Mon Feb 20 17:30:19 2017


*** tstop() called on lski1497 at Mon Feb 20 17:30:20 2017
Module time:
	user time   =       0.52 seconds =       0.01 minutes
	system time =       0.00 seconds =       0.00 minutes
	total time  =          1 seconds =       0.02 minutes
Total time:
	user time   =       5.35 seconds =       0.09 minutes
	system time =       0.16 seconds =       0.00 minutes
	total time  =          9 seconds =       0.15 minutes
	 --------------------------------------------------------
	                          DF-MP2                         
	      2nd-Order Density-Fitted Moller-Plesset Theory     
	              RMP2 Wavefunction,   1 Threads             
	                                                         
	        Rob Parrish, Justin Turney, Andy Simmonett,      
	           Ed Hohenstein, and C. David Sherrill          
	 --------------------------------------------------------

   => Auxiliary Basis Set <=

  Basis Set: 
    Number of shells: 132
    Number of basis function: 364
    Number of Cartesian functions: 414
    Spherical Harmonics?: true
    Max angular momentum: 3

	 --------------------------------------------------------
	                 NBF =    80, NAUX =   364
	 --------------------------------------------------------
	   CLASS    FOCC     OCC    AOCC    AVIR     VIR    FVIR
	   PAIRS       0      17      17      63      63       0
	 --------------------------------------------------------

DGAS Warning! /src/lib/libfock/apps.cc:80 is not currently checking restricted

         ------------------------------------------------------------
                                     CPHF                           
                                  Rob Parrish                       
         ------------------------------------------------------------

  ==> Geometry <==

    Molecular point group: c1
    Full point group: C1

    Geometry (in Angstrom), charge = 0, multiplicity = 1:

       Center              X                  Y                   Z               Mass       
    ------------   -----------------  -----------------  -----------------  -----------------
           H         -1.639406547468     0.326488792943     0.337798232578     1.007825032070
           H         -1.498406547468     1.954488792943    -0.282201767422     1.007825032070
           H         -1.200406547468     0.590488792943    -1.332201767422     1.007825032070
           C         -1.101406547468     0.961488792943    -0.334201767422    12.000000000000
           H          0.925593452532     1.617488792943    -0.612201767422     1.007825032070
           H          0.487593452532     1.354488792943     1.058798232578     1.007825032070
           C          0.387593452532     0.982488792943     0.060798232578    12.000000000000
           H          1.345593452532    -0.623511207057    -0.996201767422     1.007825032070
           H          1.745593452532    -0.552511207057     0.702798232578     1.007825032070
           C          0.959593452532    -0.445511207057    -0.014201767422    12.000000000000
           H          0.242593452532    -2.454511207057     0.238798232578     1.007825032070
           H         -0.942406547468    -1.355511207057    -0.426201767422     1.007825032070
           H         -0.542406547468    -1.285511207057     1.272798232578     1.007825032070
           C         -0.155406547468    -1.462511207057     0.290798232578    12.000000000000

  Nuclear repulsion =  136.008553233335533
  Reference energy  = -157.280931858721146

  ==> Basis Set <==

  Basis Set: 6-31G(D)
    Number of shells: 44
    Number of basis function: 80
    Number of Cartesian functions: 80
    Spherical Harmonics?: false
    Max angular momentum: 2

  ==> CGRSolver (by Rob Parrish) <==

   Number of roots    =         1
   Preconditioning    =    JACOBI
   Convergence cutoff =     1E-06
   Maximum iterations =       100

  ==> CPHFRHamiltonian (by Rob Parrish) <== 

  ==> DFJK: Density-Fitted J/K Matrices <==

    J tasked:                  Yes
    K tasked:                  Yes
    wK tasked:                  No
    OpenMP threads:              1
    Integrals threads:           1
    Memory (MB):               715
    Algorithm:                Core
    Integral Cache:           NONE
    Schwarz Cutoff:          1E-12
    Fitting Condition:       1E-12

   => Auxiliary Basis Set <=

  Basis Set: 
    Number of shells: 186
    Number of basis function: 574
    Number of Cartesian functions: 574
    Spherical Harmonics?: false
    Max angular momentum: 3

  ==> CPHF Iterations <==

  => Iterations <=

             Iter  Converged  Remaining    Residual
  CGR           1          0          1   7.598E-02
  CGR           2          0          1   8.720E-03
  CGR           3          0          1   2.224E-03
  CGR           4          0          1   4.321E-04
  CGR           5          0          1   7.795E-05
  CGR           6          0          1   1.420E-05
  CGR           7          0          1   1.937E-06
  CGR           8          1          0   4.941E-07

    CGRSolver converged.

  ==> DFCorrGrad: Density-Fitted Correlated Gradients <==

    OpenMP threads:              1
    Integrals threads:           1
    Memory (MB):               715
    Schwarz Cutoff:          0E+00
    Fitting Condition:       1E-12

   => Auxiliary Basis Set <=

  Basis Set: 
    Number of shells: 186
    Number of basis function: 510
    Number of Cartesian functions: 574
    Spherical Harmonics?: true
    Max angular momentum: 3

	-----------------------------------------------------------
	 ==================> DF-MP2 Energies <==================== 
	-----------------------------------------------------------
	 Reference Energy          =    -157.2809318587211465 [Eh]
	 Singles Energy            =      -0.0000000000000000 [Eh]
	 Same-Spin Energy          =      -0.1254413306003166 [Eh]
	 Opposite-Spin Energy      =      -0.4215326808968617 [Eh]
	 Correlation Energy        =      -0.5469740114971784 [Eh]
	 Total Energy              =    -157.8279058702183306 [Eh]
	-----------------------------------------------------------
	 ================> DF-SCS-MP2 Energies <================== 
	-----------------------------------------------------------
	 SCS Same-Spin Scale       =       0.3333333333333333 [-]
	 SCS Opposite-Spin Scale   =       1.2000000000000000 [-]
	 SCS Same-Spin Energy      =      -0.0418137768667722 [Eh]
	 SCS Opposite-Spin Energy  =      -0.5058392170762340 [Eh]
	 SCS Correlation Energy    =      -0.5476529939430063 [Eh]
	 SCS Total Energy          =    -157.8285848526641644 [Eh]
	-----------------------------------------------------------


  -Total Gradient:
     Atom            X                  Y                   Z
    ------   -----------------  -----------------  -----------------
       1        0.011701037053     0.001584139742    -0.006509125669
       2        0.008809898990    -0.014473653875     0.000956212742
       3        0.005212073509     0.004434538413     0.016014771838
       4       -0.024770670291    -0.014250041034    -0.008515774431
       5       -0.009415560607    -0.013516571978     0.006622132250
       6       -0.001693933932    -0.008594369946    -0.015498563239
       7        0.018106922093     0.024444065777     0.010488247786
       8       -0.008045888790     0.004614650574     0.014966178383
       9       -0.016288313205     0.003571091949    -0.008018738431
      10        0.030888098924    -0.005367668505    -0.007895716548
      11       -0.003645635252     0.016999998789    -0.000734319702
      12        0.008935275225     0.006761400360     0.007149728189
      13        0.007446233503     0.000829303157    -0.014983193331
      14       -0.027239537220    -0.007036883425     0.005958160165


			-----------------------------------------
			 OPTKING 2.0: for geometry optimizations 
			  - R.A. King,  Bethel University        
			-----------------------------------------

	Internal coordinates to be generated automatically.
	Detected frag 1 with atoms:  1 2 3 4 5 6 7 8 9 10 11 12 13 14
	---Fragment 1 Bond Connectivity---
	 1 : 4
	 2 : 4
	 3 : 4
	 4 : 1 2 3 7
	 5 : 7
	 6 : 7
	 7 : 4 5 6 10
	 8 : 10
	 9 : 10
	 10 : 7 8 9 14
	 11 : 14
	 12 : 14
	 13 : 14
	 14 : 10 11 12 13

	Assuming in current code that numbering for constraints corresponds to unified fragment.
	Fixed dihedral atom list: 
	     4     7    10    14
	---Fragment 1 Geometry and Gradient---
	 H          -3.0980293952        0.6169744041        0.6383461477
	 H          -2.8315780104        3.6934485485       -0.5332840546
	 H          -2.2684396228        1.1158621032       -2.5174964942
	 C          -2.0813567357        1.8169504985       -0.6315498136
	 H           1.7491181357        3.0566108417       -1.1568936785
	 H           0.9214180895        2.5596128687        2.0008386896
	 C           0.7324454762        1.8566347473        0.1148920089
	 H           2.5428031115       -1.1782654221       -1.8825485135
	 H           3.2986935646       -1.0440948667        1.3280961862
	 C           1.8133688242       -0.8418941705       -0.0268374510
	 H           0.4584351869       -4.6383539714        0.4512632606
	 H          -1.7808902806       -2.5615449514       -0.8054046178
	 H          -1.0249998274       -2.4292641221        2.4052400820
	 C          -0.2936758140       -2.7637456476        0.5495290195
	             0.0117010371        0.0015841397       -0.0065091257
	             0.0088098990       -0.0144736539        0.0009562127
	             0.0052120735        0.0044345384        0.0160147718
	            -0.0247706703       -0.0142500410       -0.0085157744
	            -0.0094155606       -0.0135165720        0.0066221322
	            -0.0016939339       -0.0085943699       -0.0154985632
	             0.0181069221        0.0244440658        0.0104882478
	            -0.0080458888        0.0046146506        0.0149661784
	            -0.0162883132        0.0035710919       -0.0080187384
	             0.0308880989       -0.0053676685       -0.0078957165
	            -0.0036456353        0.0169999988       -0.0007343197
	             0.0089352752        0.0067614004        0.0071497282
	             0.0074462335        0.0008293032       -0.0149831933
	            -0.0272395372       -0.0070368834        0.0059581602

	Previous optimization step data not found.  Starting new optimization.

	---Fragment 1 Intrafragment Coordinates---
	 - Coordinate -           - BOHR/RAD -       - ANG/DEG -
	 R(1,4)           =         2.021436	       1.069698
	 R(2,4)           =         2.023298	       1.070683
	 R(3,4)           =         2.020723	       1.069320
	 R(4,7)           =         2.911397	       1.540645
	 R(5,7)           =         2.022623	       1.070326
	 R(6,7)           =         2.021555	       1.069761
	 R(7,10)          =         2.910419	       1.540128
	 R(8,10)          =         2.022099	       1.070049
	 R(9,10)          =         2.020624	       1.069268
	 R(10,14)         =         2.909527	       1.539655
	 R(11,14)         =         2.022247	       1.070127
	 R(12,14)         =         2.022013	       1.070003
	 R(13,14)         =         2.022468	       1.070244
	 B(1,4,2)         =         1.910870	     109.484805
	 B(1,4,3)         =         1.911121	     109.499161
	 B(1,4,7)         =         1.910399	     109.457783
	 B(2,4,3)         =         1.910042	     109.437340
	 B(2,4,7)         =         1.910564	     109.467262
	 B(3,4,7)         =         1.910803	     109.480971
	 B(4,7,5)         =         1.909937	     109.431343
	 B(4,7,6)         =         1.911630	     109.528316
	 B(4,7,10)        =         1.911154	     109.501062
	 B(5,7,6)         =         1.910605	     109.469614
	 B(5,7,10)        =         1.910047	     109.437654
	 B(6,7,10)        =         1.910425	     109.459295
	 B(7,10,8)        =         1.910176	     109.445000
	 B(7,10,9)        =         1.910425	     109.459288
	 B(7,10,14)       =         1.911170	     109.501953
	 B(8,10,9)        =         1.910877	     109.485160
	 B(8,10,14)       =         1.910443	     109.460349
	 B(9,10,14)       =         1.910709	     109.475573
	 B(10,14,11)      =         1.910649	     109.472142
	 B(10,14,12)      =         1.911184	     109.502783
	 B(10,14,13)      =         1.911752	     109.535296
	 B(11,14,12)      =         1.911009	     109.492779
	 B(11,14,13)      =         1.909622	     109.413305
	 B(12,14,13)      =         1.909582	     109.410974
	 D(1,4,7,5)       =         3.140997	     179.965873
	 D(1,4,7,6)       =        -1.047644	     -60.025575
	 D(1,4,7,10)      =         1.047427	      60.013132
	 D(2,4,7,5)       =        -1.047689	     -60.028143
	 D(2,4,7,6)       =         1.046856	      59.980409
	 D(2,4,7,10)      =        -3.141259	    -179.980883
	 D(3,4,7,5)       =         1.046044	      59.933911
	 D(3,4,7,6)       =         3.140588	     179.942463
	 D(3,4,7,10)      =        -1.047526	     -60.018830
	 D(4,7,10,8)      =         1.570742	      89.996863
	 D(4,7,10,9)      =        -2.618158	    -150.009419
	 D(4,7,10,14)     =        -0.523469	     -29.992576
	 D(5,7,10,8)      =        -0.522761	     -29.952013
	 D(5,7,10,9)      =         1.571524	      90.041705
	 D(5,7,10,14)     =        -2.616972	    -149.941452
	 D(6,7,10,8)      =        -2.616636	    -149.922212
	 D(6,7,10,9)      =        -0.522351	     -29.928493
	 D(6,7,10,14)     =         1.572338	      90.088350
	 D(7,10,14,11)    =        -3.141349	    -179.986053
	 D(7,10,14,12)    =         1.046633	      59.967629
	 D(7,10,14,13)    =        -1.047497	     -60.017186
	 D(8,10,14,11)    =         1.047789	      60.033904
	 D(8,10,14,12)    =        -1.047414	     -60.012414
	 D(8,10,14,13)    =        -3.141544	    -179.997229
	 D(9,10,14,11)    =        -1.046834	     -59.979175
	 D(9,10,14,12)    =         3.141148	     179.974506
	 D(9,10,14,13)    =         1.047018	      59.989692

	Current energy   :      -157.8279058702

	Generating empirical Hessian (Schlegel '84) for each fragment.
	Adding user-defined constraint: Fragment 1; Coordinate 49:
		Value =    -0.523469; Fixed value    =    -0.523599
		Force =    -0.000065; Force constant =     0.500000
	Removing off-diagonal coupling between coordinate 49 and others.
	Taking RFO optimization step.
	Going to follow RFO solution 1.
	Using RFO vector 1.

	Determining step-restricting scale parameter for RS-RFO.
	Maximum step size allowed    0.10000

	 Iter      |step|        alpha        rfo_root  
	------------------------------------------------
	    0     0.43553       1.00000           1
	    1     0.29553       4.30669           1
	    2     0.20039      13.69452           1
	    3     0.14356      32.38159           1
	    4     0.11378      56.56058           1
	    5     0.10217      72.62254           1
	    6     0.10007      76.18097           1
	    7     0.10000      76.30349           1
	------------------------------------------------
	Norm of target step-size    0.10000
	Projected energy change by RFO approximation:        -0.0097464935

	Back-transformation to cartesian coordinates...
	Could not converge backtransformation.
	Using first guess instead.

	--- Internal Coordinate Step in ANG or DEG, aJ/ANG or AJ/DEG ---
	 ---------------------------------------------------------------------------
	   Coordinate                Previous        Force       Change         New 
	   ----------                --------       ------       ------       ------
	    1 R(1,4)          =      1.069698     0.089921     0.006168     1.075865
	    2 R(2,4)          =      1.070683     0.137123     0.008907     1.079589
	    3 R(3,4)          =      1.069320     0.139793     0.008142     1.077462
	    4 R(4,7)          =      1.540645     0.009144     0.002225     1.542870
	    5 R(5,7)          =      1.070326     0.139364     0.008131     1.078457
	    6 R(6,7)          =      1.069761     0.145050     0.008194     1.077954
	    7 R(7,10)         =      1.540128     0.178516     0.011019     1.551147
	    8 R(8,10)         =      1.070049     0.143392     0.008103     1.078152
	    9 R(9,10)         =      1.069268     0.145888     0.008490     1.077758
	   10 R(10,14)        =      1.539655     0.013253     0.002478     1.542133
	   11 R(11,14)        =      1.070127     0.140710     0.009103     1.079230
	   12 R(12,14)        =      1.070003     0.088046     0.006065     1.076068
	   13 R(13,14)        =      1.070244     0.134318     0.007839     1.078083
	   14 B(1,4,2)        =    109.484805    -0.000448    -0.350511   109.134293
	   15 B(1,4,3)        =    109.499161    -0.000273    -0.286591   109.212571
	   16 B(1,4,7)        =    109.457783     0.000622     0.537242   109.995025
	   17 B(2,4,3)        =    109.437340    -0.000306    -0.231069   109.206271
	   18 B(2,4,7)        =    109.467262     0.000116     0.106488   109.573750
	   19 B(3,4,7)        =    109.480971     0.000289     0.219670   109.700641
	   20 B(4,7,5)        =    109.431343    -0.001146    -0.838815   108.592528
	   21 B(4,7,6)        =    109.528316    -0.000990    -0.782607   108.745709
	   22 B(4,7,10)       =    109.501062     0.003672     2.827187   112.328249
	   23 B(5,7,6)        =    109.469614     0.000423     0.229974   109.699588
	   24 B(5,7,10)       =    109.437654    -0.001035    -0.776212   108.661442
	   25 B(6,7,10)       =    109.459295    -0.000924    -0.669335   108.789960
	   26 B(7,10,8)       =    109.445000    -0.000924    -0.669386   108.775613
	   27 B(7,10,9)       =    109.459288    -0.001038    -0.778783   108.680505
	   28 B(7,10,14)      =    109.501953     0.003675     2.829366   112.331319
	   29 B(8,10,9)       =    109.485160     0.000422     0.229066   109.714226
	   30 B(8,10,14)      =    109.460349    -0.000983    -0.776311   108.684039
	   31 B(9,10,14)      =    109.475573    -0.001151    -0.843133   108.632440
	   32 B(10,14,11)     =    109.472142     0.000120     0.109798   109.581940
	   33 B(10,14,12)     =    109.502783     0.000615     0.531709   110.034492
	   34 B(10,14,13)     =    109.535296     0.000280     0.213554   109.748850
	   35 B(11,14,12)     =    109.492779    -0.000448    -0.351611   109.141168
	   36 B(11,14,13)     =    109.413305    -0.000304    -0.230206   109.183100
	   37 B(12,14,13)     =    109.410974    -0.000264    -0.278946   109.132028
	   38 D(1,4,7,5)      =    179.965873     0.000122     0.435644   180.401517
	   39 D(1,4,7,6)      =    -60.025575    -0.000059    -0.249809   -60.275384
	   40 D(1,4,7,10)     =     60.013132     0.000059     0.181990    60.195123
	   41 D(2,4,7,5)      =    -60.028143     0.000100     0.402113   -59.626030
	   42 D(2,4,7,6)      =     59.980409    -0.000081    -0.283340    59.697069
	   43 D(2,4,7,10)     =   -179.980883     0.000037     0.148459  -179.832424
	   44 D(3,4,7,5)      =     59.933911     0.000071     0.319084    60.252994
	   45 D(3,4,7,6)      =    179.942463    -0.000110    -0.366370   179.576093
	   46 D(3,4,7,10)     =    -60.018830     0.000008     0.065430   -59.953400
	   47 D(4,7,10,8)     =     89.996863     0.000040     0.191269    90.188131
	   48 D(4,7,10,9)     =   -150.009419    -0.000117    -0.393455  -150.402874
	   49 D(4,7,10,14)    =    -29.992576    -0.000070    -0.179154   -30.171730
	   50 D(5,7,10,8)     =    -29.952013    -0.000008    -0.026318   -29.978331
	   51 D(5,7,10,9)     =     90.041705    -0.000164    -0.611041    89.430664
	   52 D(5,7,10,14)    =   -149.941452    -0.000117    -0.396740  -150.338192
	   53 D(6,7,10,8)     =   -149.922212     0.000148     0.555280  -149.366932
	   54 D(6,7,10,9)     =    -29.928493    -0.000009    -0.029444   -29.957938
	   55 D(6,7,10,14)    =     90.088350     0.000038     0.184857    90.273206
	   56 D(7,10,14,11)   =   -179.986053     0.000037     0.148788  -179.837264
	   57 D(7,10,14,12)   =     59.967629     0.000060     0.184554    60.152183
	   58 D(7,10,14,13)   =    -60.017186     0.000008     0.065254   -59.951931
	   59 D(8,10,14,11)   =     60.033904    -0.000081    -0.283982    59.749923
	   60 D(8,10,14,12)   =    -60.012414    -0.000059    -0.248216   -60.260630
	   61 D(8,10,14,13)   =   -179.997229    -0.000110    -0.367516  -180.364744
	   62 D(9,10,14,11)   =    -59.979175     0.000100     0.400888   -59.578288
	   63 D(9,10,14,12)   =    179.974506     0.000123     0.436653   180.411160
	   64 D(9,10,14,13)   =     59.989692     0.000071     0.317354    60.307045
	 ---------------------------------------------------------------------------
	 Forces used to impose fixed constraints are not included.
	  Forces zeroed: 49 

  ==> Convergence Check <==

  Measures of convergence in internal coordinates in au.
  Criteria marked as inactive (o), active & met (*), and active & unmet ( ).
  --------------------------------------------------------------------------------------------- ~
   Step     Total Energy     Delta E     MAX Force     RMS Force      MAX Disp      RMS Disp    ~
  --------------------------------------------------------------------------------------------- ~
    Convergence Criteria    1.00e-06 *    3.00e-04 *             o    1.20e-03 *             o  ~
  --------------------------------------------------------------------------------------------- ~
      1    -157.82790587   -1.58e+02      4.83e-02      1.26e-02 o    4.94e-02      1.27e-02 o  ~
  ---------------------------------------------------------------------------------------------

	Writing optimization data to binary file.
	Structure for next step:
	Cartesian Geometry (in Angstrom)
	    H    -1.7002119902   0.4240806978   0.3295479894
	    H    -1.4744971919   2.0512922564  -0.2914759721
	    H    -1.2440495232   0.6650155218  -1.3483092709
	    C    -1.1212390427   1.0324312431  -0.3428995898
	    H     0.9269438132   1.6034049461  -0.6318405255
	    H     0.4757668405   1.3591244818   1.0550416814
	    C     0.3696734582   0.9817827125   0.0508789211
	    H     1.3399499571  -0.6349348080  -0.9930576114
	    H     1.7359572462  -0.5417001951   0.7222858575
	    C     0.9455033434  -0.4574185303  -0.0054794202
	    H     0.3257577379  -2.5088183063   0.2518036763
	    H    -0.9199067965  -1.4684565281  -0.4191791852
	    H    -0.5236442950  -1.3700594394   1.2878384837
	    C    -0.1216952215  -1.5279009512   0.3000202218
			--------------------------
			 OPTKING Finished Execution 
			--------------------------

    Structure for next step:
    Molecular point group: c1
    Full point group: C1

    Geometry (in Angstrom), charge = 0, multiplicity = 1:

    H           -1.696780376491     0.425417040175     0.329675326393
    H           -1.471065578182     2.052628598755    -0.291348635170
    H           -1.240617909492     0.666351864173    -1.348181933919
    C           -1.117807428940     1.033767585405    -0.342772252852
    H            0.930375426890     1.604741288398    -0.631713188502
    H            0.479198454280     1.360460824174     1.055169018379
    C            0.373105071912     0.983119054825     0.051006258095
    H            1.343381570785    -0.633598465710    -0.992930274464
    H            1.739388859958    -0.540363852759     0.722413194426
    C            0.948934957165    -0.456082187946    -0.005352083285
    H            0.329189351608    -2.507481963946     0.251931013219
    H           -0.916475182797    -1.467120185792    -0.419051848267
    H           -0.520212681248    -1.368723097110     1.287965820601
    C           -0.118263607730    -1.526564608874     0.300147558710

gradient() will perform analytic gradient computation.
    SCF Algorithm Type (re)set to DF.

*** tstart() called on lski1497
*** at Mon Feb 20 17:30:41 2017


         ---------------------------------------------------------
                                   SCF
            by Justin Turney, Rob Parrish, and Andy Simmonett
                              RHF Reference
                        1 Threads,   1000 MiB Core
         ---------------------------------------------------------

  ==> Geometry <==

    Molecular point group: c1
    Full point group: C1

    Geometry (in Angstrom), charge = 0, multiplicity = 1:

       Center              X                  Y                   Z               Mass       
    ------------   -----------------  -----------------  -----------------  -----------------
           H         -1.696780376491     0.425417040175     0.329675326393     1.007825032070
           H         -1.471065578182     2.052628598755    -0.291348635170     1.007825032070
           H         -1.240617909492     0.666351864173    -1.348181933919     1.007825032070
           C         -1.117807428940     1.033767585405    -0.342772252852    12.000000000000
           H          0.930375426890     1.604741288398    -0.631713188502     1.007825032070
           H          0.479198454280     1.360460824174     1.055169018379     1.007825032070
           C          0.373105071912     0.983119054825     0.051006258095    12.000000000000
           H          1.343381570785    -0.633598465710    -0.992930274464     1.007825032070
           H          1.739388859958    -0.540363852759     0.722413194426     1.007825032070
           C          0.948934957165    -0.456082187946    -0.005352083285    12.000000000000
           H          0.329189351608    -2.507481963946     0.251931013219     1.007825032070
           H         -0.916475182797    -1.467120185792    -0.419051848267     1.007825032070
           H         -0.520212681248    -1.368723097110     1.287965820601     1.007825032070
           C         -0.118263607730    -1.526564608874     0.300147558710    12.000000000000

  Running in c1 symmetry.

  Rotational constants: A =      0.39451  B =      0.18563  C =      0.14162 [cm^-1]
  Rotational constants: A =  11827.20990  B =   5564.98281  C =   4245.53680 [MHz]
  Nuclear repulsion =  134.172381013628183

  Charge       = 0
  Multiplicity = 1
  Electrons    = 34
  Nalpha       = 17
  Nbeta        = 17

  ==> Algorithm <==

  SCF Algorithm Type is DF.
  DIIS enabled.
  MOM disabled.
  Fractional occupation disabled.
  Guess Type is READ.
  Energy threshold   = 1.00e-10
  Density threshold  = 1.00e-10
  Integral threshold = 0.00e+00

  ==> Primary Basis <==

  Basis Set: 6-31G(D)
    Number of shells: 44
    Number of basis function: 80
    Number of Cartesian functions: 80
    Spherical Harmonics?: false
    Max angular momentum: 2

  ==> Pre-Iterations <==

   -------------------------------------------------------
    Irrep   Nso     Nmo     Nalpha   Nbeta   Ndocc  Nsocc
   -------------------------------------------------------
     A         80      80       0       0       0       0
   -------------------------------------------------------
    Total      80      80      17      17      17       0
   -------------------------------------------------------

  ==> Integral Setup <==

  ==> DFJK: Density-Fitted J/K Matrices <==

    J tasked:                  Yes
    K tasked:                  Yes
    wK tasked:                  No
    OpenMP threads:              1
    Integrals threads:           1
    Memory (MB):               715
    Algorithm:                Core
    Integral Cache:           NONE
    Schwarz Cutoff:          1E-12
    Fitting Condition:       1E-12

   => Auxiliary Basis Set <=

  Basis Set: 
    Number of shells: 186
    Number of basis function: 574
    Number of Cartesian functions: 574
    Spherical Harmonics?: false
    Max angular momentum: 3

  Minimum eigenvalue in the overlap matrix is 4.5043191880E-03.
  Using Symmetric Orthogonalization.
  SCF Guess was Projection but file not found.
  Switching over to SAD guess.

  SCF Guess: Superposition of Atomic Densities via on-the-fly atomic UHF.

  ==> Iterations <==

                           Total Energy        Delta E     RMS |[F,P]|

   @DF-RHF iter   0:  -158.73449877960388   -1.58734e+02   4.53842e-02 
   @DF-RHF iter   1:  -157.17322900583810    1.56127e+00   4.79122e-03 
   @DF-RHF iter   2:  -157.27478367967484   -1.01555e-01   1.65409e-03 DIIS
   @DF-RHF iter   3:  -157.28641197396263   -1.16283e-02   6.18017e-04 DIIS
   @DF-RHF iter   4:  -157.28840712945913   -1.99516e-03   8.53449e-05 DIIS
   @DF-RHF iter   5:  -157.28846234653327   -5.52171e-05   1.87623e-05 DIIS
   @DF-RHF iter   6:  -157.28846479306452   -2.44653e-06   5.09317e-06 DIIS
   @DF-RHF iter   7:  -157.28846492888624   -1.35822e-07   1.20106e-06 DIIS
   @DF-RHF iter   8:  -157.28846493918843   -1.03022e-08   2.84447e-07 DIIS
   @DF-RHF iter   9:  -157.28846493983849   -6.50061e-10   7.55979e-08 DIIS
   @DF-RHF iter  10:  -157.28846493988055   -4.20641e-11   2.21605e-08 DIIS
   @DF-RHF iter  11:  -157.28846493988328   -2.72848e-12   4.78845e-09 DIIS
   @DF-RHF iter  12:  -157.28846493988362   -3.41061e-13   1.05269e-09 DIIS
   @DF-RHF iter  13:  -157.28846493988351    1.13687e-13   2.45223e-10 DIIS
   @DF-RHF iter  14:  -157.28846493988368   -1.70530e-13   7.68254e-11 DIIS

  ==> Post-Iterations <==

    Orbital Energies (a.u.)
    -----------------------

    Doubly Occupied:                                                      

       1A    -11.211308     2A    -11.210759     3A    -11.203283  
       4A    -11.203266     5A     -1.069004     6A     -0.970940  
       7A     -0.880683     8A     -0.771518     9A     -0.639924  
      10A     -0.619622    11A     -0.571604    12A     -0.533466  
      13A     -0.527419    14A     -0.513355    15A     -0.461241  
      16A     -0.453811    17A     -0.453007  

    Virtual:                                                              

      18A      0.228193    19A      0.280392    20A      0.288346  
      21A      0.302161    22A      0.310278    23A      0.316228  
      24A      0.352741    25A      0.354719    26A      0.358053  
      27A      0.375405    28A      0.395744    29A      0.420389  
      30A      0.465273    31A      0.713213    32A      0.731956  
      33A      0.741821    34A      0.774861    35A      0.779073  
      36A      0.829044    37A      0.854219    38A      0.920470  
      39A      0.946123    40A      1.000158    41A      1.114725  
      42A      1.128694    43A      1.166084    44A      1.171791  
      45A      1.179080    46A      1.193443    47A      1.201560  
      48A      1.205193    49A      1.230857    50A      1.259395  
      51A      1.261669    52A      1.292203    53A      1.317177  
      54A      1.607449    55A      1.672183    56A      1.718995  
      57A      1.721708    58A      1.935282    59A      1.985700  
      60A      2.065635    61A      2.164063    62A      2.287554  
      63A      2.292409    64A      2.318931    65A      2.355731  
      66A      2.433129    67A      2.501937    68A      2.602071  
      69A      2.657679    70A      2.675365    71A      2.710076  
      72A      2.738339    73A      2.788021    74A      2.919262  
      75A      2.967472    76A      3.084446    77A      4.564776  
      78A      4.696402    79A      4.783091    80A      4.967557  

    Final Occupation by Irrep:
              A 
    DOCC [    17 ]

  Energy converged.

  @DF-RHF Final Energy:  -157.28846493988368

   => Energetics <=

    Nuclear Repulsion Energy =            134.1723810136281827
    One-Electron Energy =                -476.3332691812696567
    Two-Electron Energy =                 184.8724232277577926
    DFT Exchange-Correlation Energy =       0.0000000000000000
    Empirical Dispersion Energy =           0.0000000000000000
    PCM Polarization Energy =               0.0000000000000000
    EFP Energy =                            0.0000000000000000
    Total Energy =                       -157.2884649398836814


  Saving occupied orbitals to File 180.

*** tstop() called on lski1497 at Mon Feb 20 17:30:48 2017
Module time:
	user time   =       4.73 seconds =       0.08 minutes
	system time =       0.13 seconds =       0.00 minutes
	total time  =          7 seconds =       0.12 minutes
Total time:
	user time   =      26.98 seconds =       0.45 minutes
	system time =       0.79 seconds =       0.01 minutes
	total time  =         37 seconds =       0.62 minutes


Properties will be evaluated at   0.000000,   0.000000,   0.000000 Bohr

Properties computed using the SCF density matrix

  Nuclear Dipole Moment: (a.u.)
     X:    -0.9596      Y:    -0.3822      Z:    -0.0338

  Electronic Dipole Moment: (a.u.)
     X:     0.9881      Y:     0.3933      Z:     0.0348

  Dipole Moment: (a.u.)
     X:     0.0285      Y:     0.0111      Z:     0.0010     Total:     0.0306

  Dipole Moment: (Debye)
     X:     0.0724      Y:     0.0281      Z:     0.0025     Total:     0.0778


  //>>>>>>>>>>>>>>>>>>>>>>>>>>>>>>>>>>>//
  //               DFMP2               //
  //<<<<<<<<<<<<<<<<<<<<<<<<<<<<<<<<<<<//


*** tstart() called on lski1497
*** at Mon Feb 20 17:30:48 2017


*** tstop() called on lski1497 at Mon Feb 20 17:30:48 2017
Module time:
	user time   =       0.53 seconds =       0.01 minutes
	system time =       0.01 seconds =       0.00 minutes
	total time  =          0 seconds =       0.00 minutes
Total time:
	user time   =      27.52 seconds =       0.46 minutes
	system time =       0.80 seconds =       0.01 minutes
	total time  =         37 seconds =       0.62 minutes
	 --------------------------------------------------------
	                          DF-MP2                         
	      2nd-Order Density-Fitted Moller-Plesset Theory     
	              RMP2 Wavefunction,   1 Threads             
	                                                         
	        Rob Parrish, Justin Turney, Andy Simmonett,      
	           Ed Hohenstein, and C. David Sherrill          
	 --------------------------------------------------------

   => Auxiliary Basis Set <=

  Basis Set: 
    Number of shells: 132
    Number of basis function: 364
    Number of Cartesian functions: 414
    Spherical Harmonics?: true
    Max angular momentum: 3

	 --------------------------------------------------------
	                 NBF =    80, NAUX =   364
	 --------------------------------------------------------
	   CLASS    FOCC     OCC    AOCC    AVIR     VIR    FVIR
	   PAIRS       0      17      17      63      63       0
	 --------------------------------------------------------

DGAS Warning! /src/lib/libfock/apps.cc:80 is not currently checking restricted

         ------------------------------------------------------------
                                     CPHF                           
                                  Rob Parrish                       
         ------------------------------------------------------------

  ==> Geometry <==

    Molecular point group: c1
    Full point group: C1

    Geometry (in Angstrom), charge = 0, multiplicity = 1:

       Center              X                  Y                   Z               Mass       
    ------------   -----------------  -----------------  -----------------  -----------------
           H         -1.696780376491     0.425417040175     0.329675326393     1.007825032070
           H         -1.471065578182     2.052628598755    -0.291348635170     1.007825032070
           H         -1.240617909492     0.666351864173    -1.348181933919     1.007825032070
           C         -1.117807428940     1.033767585405    -0.342772252852    12.000000000000
           H          0.930375426890     1.604741288398    -0.631713188502     1.007825032070
           H          0.479198454280     1.360460824174     1.055169018379     1.007825032070
           C          0.373105071912     0.983119054825     0.051006258095    12.000000000000
           H          1.343381570785    -0.633598465710    -0.992930274464     1.007825032070
           H          1.739388859958    -0.540363852759     0.722413194426     1.007825032070
           C          0.948934957165    -0.456082187946    -0.005352083285    12.000000000000
           H          0.329189351608    -2.507481963946     0.251931013219     1.007825032070
           H         -0.916475182797    -1.467120185792    -0.419051848267     1.007825032070
           H         -0.520212681248    -1.368723097110     1.287965820601     1.007825032070
           C         -0.118263607730    -1.526564608874     0.300147558710    12.000000000000

  Nuclear repulsion =  134.172381013628183
  Reference energy  = -157.288464939883681

  ==> Basis Set <==

  Basis Set: 6-31G(D)
    Number of shells: 44
    Number of basis function: 80
    Number of Cartesian functions: 80
    Spherical Harmonics?: false
    Max angular momentum: 2

  ==> CGRSolver (by Rob Parrish) <==

   Number of roots    =         1
   Preconditioning    =    JACOBI
   Convergence cutoff =     1E-06
   Maximum iterations =       100

  ==> CPHFRHamiltonian (by Rob Parrish) <== 

  ==> DFJK: Density-Fitted J/K Matrices <==

    J tasked:                  Yes
    K tasked:                  Yes
    wK tasked:                  No
    OpenMP threads:              1
    Integrals threads:           1
    Memory (MB):               715
    Algorithm:                Core
    Integral Cache:           NONE
    Schwarz Cutoff:          1E-12
    Fitting Condition:       1E-12

   => Auxiliary Basis Set <=

  Basis Set: 
    Number of shells: 186
    Number of basis function: 574
    Number of Cartesian functions: 574
    Spherical Harmonics?: false
    Max angular momentum: 3

  ==> CPHF Iterations <==

  => Iterations <=

             Iter  Converged  Remaining    Residual
  CGR           1          0          1   7.488E-02
  CGR           2          0          1   8.615E-03
  CGR           3          0          1   2.228E-03
  CGR           4          0          1   4.315E-04
  CGR           5          0          1   7.539E-05
  CGR           6          0          1   1.374E-05
  CGR           7          0          1   1.759E-06
  CGR           8          1          0   4.388E-07

    CGRSolver converged.

  ==> DFCorrGrad: Density-Fitted Correlated Gradients <==

    OpenMP threads:              1
    Integrals threads:           1
    Memory (MB):               715
    Schwarz Cutoff:          0E+00
    Fitting Condition:       1E-12

   => Auxiliary Basis Set <=

  Basis Set: 
    Number of shells: 186
    Number of basis function: 510
    Number of Cartesian functions: 574
    Spherical Harmonics?: true
    Max angular momentum: 3

	-----------------------------------------------------------
	 ==================> DF-MP2 Energies <==================== 
	-----------------------------------------------------------
	 Reference Energy          =    -157.2884649398836814 [Eh]
	 Singles Energy            =      -0.0000000000000000 [Eh]
	 Same-Spin Energy          =      -0.1247542561710212 [Eh]
	 Opposite-Spin Energy      =      -0.4217081492870345 [Eh]
	 Correlation Energy        =      -0.5464624054580557 [Eh]
	 Total Energy              =    -157.8349273453417254 [Eh]
	-----------------------------------------------------------
	 ================> DF-SCS-MP2 Energies <================== 
	-----------------------------------------------------------
	 SCS Same-Spin Scale       =       0.3333333333333333 [-]
	 SCS Opposite-Spin Scale   =       1.2000000000000000 [-]
	 SCS Same-Spin Energy      =      -0.0415847520570071 [Eh]
	 SCS Opposite-Spin Energy  =      -0.5060497791444414 [Eh]
	 SCS Correlation Energy    =      -0.5476345312014484 [Eh]
	 SCS Total Energy          =    -157.8360994710851344 [Eh]
	-----------------------------------------------------------


  -Total Gradient:
     Atom            X                  Y                   Z
    ------   -----------------  -----------------  -----------------
       1        0.008480509448     0.002884118420    -0.004948472941
       2        0.005169447771    -0.008326093055     0.000826965786
       3        0.004448139417     0.002825662884     0.010440163035
       4       -0.022487541869    -0.005095323469    -0.005118443447
       5       -0.007478165146    -0.009684451508     0.002131660765
       6       -0.002177555198    -0.007170316307    -0.009476224260
       7        0.015236191706     0.021477393085     0.006293120397
       8       -0.007087449879     0.003409765203     0.009028264936
       9       -0.012293792584     0.001979909875    -0.003138115350
      10        0.026395759125    -0.005178507510    -0.004239246995
      11       -0.002027674157     0.009866742814    -0.000680761398
      12        0.007653271256     0.003618385216     0.005489612887
      13        0.005542243444     0.001284962244    -0.009732746461
      14       -0.019373383336    -0.011892247893     0.003124223046


			-----------------------------------------
			 OPTKING 2.0: for geometry optimizations 
			  - R.A. King,  Bethel University        
			-----------------------------------------

	Previous internal coordinate definitions found.
	---Fragment 1 Geometry and Gradient---
	 H          -3.2064502192        0.8039216982        0.6229960797
	 H          -2.7799110663        3.8789059042       -0.5505691297
	 H          -2.3444280845        1.2592225314       -2.5476946324
	 C          -2.1123499100        1.9535376215       -0.6477456838
	 H           1.7581547576        3.0325215492       -1.1937649208
	 H           0.9055538419        2.5708983722        1.9939804686
	 C           0.7050664047        1.8578257696        0.0963878589
	 H           2.5386232607       -1.1973275784       -1.8763662878
	 H           3.2869685839       -1.0211396938        1.3651630922
	 C           1.7932271870       -0.8618704293       -0.0101139716
	 H           0.6220777204       -4.7384541950        0.4760806194
	 H          -1.7318871031       -2.7724553552       -0.7918932287
	 H          -0.9830594984       -2.5865118053        2.4339026695
	 C          -0.2234858301       -2.8847890349        0.5671966854
	             0.0084805094        0.0028841184       -0.0049484729
	             0.0051694478       -0.0083260931        0.0008269658
	             0.0044481394        0.0028256629        0.0104401630
	            -0.0224875419       -0.0050953235       -0.0051184434
	            -0.0074781651       -0.0096844515        0.0021316608
	            -0.0021775552       -0.0071703163       -0.0094762243
	             0.0152361917        0.0214773931        0.0062931204
	            -0.0070874499        0.0034097652        0.0090282649
	            -0.0122937926        0.0019799099       -0.0031381154
	             0.0263957591       -0.0051785075       -0.0042392470
	            -0.0020276742        0.0098667428       -0.0006807614
	             0.0076532713        0.0036183852        0.0054896129
	             0.0055422434        0.0012849622       -0.0097327465
	            -0.0193733833       -0.0118922479        0.0031242230

	---Fragment 1 Intrafragment Coordinates---
	 - Coordinate -           - BOHR/RAD -       - ANG/DEG -
	 R(1,4)           =         2.033090	       1.075865
	 R(2,4)           =         2.040128	       1.079589
	 R(3,4)           =         2.036109	       1.077462
	 R(4,7)           =         2.915601	       1.542870
	 R(5,7)           =         2.037989	       1.078457
	 R(6,7)           =         2.037038	       1.077954
	 R(7,10)          =         2.931243	       1.551147
	 R(8,10)          =         2.037411	       1.078152
	 R(9,10)          =         2.036668	       1.077758
	 R(10,14)         =         2.914210	       1.542133
	 R(11,14)         =         2.039450	       1.079230
	 R(12,14)         =         2.033475	       1.076068
	 R(13,14)         =         2.037281	       1.078083
	 B(1,4,2)         =         1.904753	     109.134293
	 B(1,4,3)         =         1.906119	     109.212571
	 B(1,4,7)         =         1.919775	     109.995025
	 B(2,4,3)         =         1.906009	     109.206271
	 B(2,4,7)         =         1.912423	     109.573750
	 B(3,4,7)         =         1.914637	     109.700641
	 B(4,7,5)         =         1.895297	     108.592528
	 B(4,7,6)         =         1.897971	     108.745709
	 B(4,7,10)        =         1.960498	     112.328249
	 B(5,7,6)         =         1.914619	     109.699588
	 B(5,7,10)        =         1.896500	     108.661442
	 B(6,7,10)        =         1.898743	     108.789960
	 B(7,10,8)        =         1.898493	     108.775613
	 B(7,10,9)        =         1.896833	     108.680505
	 B(7,10,14)       =         1.960551	     112.331319
	 B(8,10,9)        =         1.914874	     109.714226
	 B(8,10,14)       =         1.896894	     108.684039
	 B(9,10,14)       =         1.895994	     108.632440
	 B(10,14,11)      =         1.912566	     109.581940
	 B(10,14,12)      =         1.920464	     110.034492
	 B(10,14,13)      =         1.915479	     109.748850
	 B(11,14,12)      =         1.904873	     109.141168
	 B(11,14,13)      =         1.905605	     109.183100
	 B(12,14,13)      =         1.904713	     109.132028
	 D(1,4,7,5)       =        -3.134585	    -179.598483
	 D(1,4,7,6)       =        -1.052004	     -60.275384
	 D(1,4,7,10)      =         1.050603	      60.195123
	 D(2,4,7,5)       =        -1.040671	     -59.626030
	 D(2,4,7,6)       =         1.041910	      59.697069
	 D(2,4,7,10)      =        -3.138668	    -179.832424
	 D(3,4,7,5)       =         1.051613	      60.252994
	 D(3,4,7,6)       =         3.134194	     179.576093
	 D(3,4,7,10)      =        -1.046384	     -59.953400
	 D(4,7,10,8)      =         1.574080	      90.188131
	 D(4,7,10,9)      =        -2.625025	    -150.402874
	 D(4,7,10,14)     =        -0.526596	     -30.171730
	 D(5,7,10,8)      =        -0.523221	     -29.978331
	 D(5,7,10,9)      =         1.560860	      89.430664
	 D(5,7,10,14)     =        -2.623896	    -150.338192
	 D(6,7,10,8)      =        -2.606945	    -149.366932
	 D(6,7,10,9)      =        -0.522865	     -29.957938
	 D(6,7,10,14)     =         1.575565	      90.273206
	 D(7,10,14,11)    =        -3.138752	    -179.837264
	 D(7,10,14,12)    =         1.049854	      60.152183
	 D(7,10,14,13)    =        -1.046359	     -59.951931
	 D(8,10,14,11)    =         1.042833	      59.749923
	 D(8,10,14,12)    =        -1.051746	     -60.260630
	 D(8,10,14,13)    =         3.135227	     179.635256
	 D(9,10,14,11)    =        -1.039837	     -59.578288
	 D(9,10,14,12)    =        -3.134417	    -179.588840
	 D(9,10,14,13)    =         1.052557	      60.307045

	Current energy   :      -157.8349273453

	Energy change for the previous step:
		Projected    :        -0.0097464935
		Actual       :        -0.0070214751

	Performing BFGS update.
	Previous computed or guess Hessian on step 1.
	Steps to be used in Hessian update: 1
	Adding user-defined constraint: Fragment 1; Coordinate 49:
		Value =    -0.526596; Fixed value    =    -0.523600
		Force =     0.001573; Force constant =     0.525000
	Removing off-diagonal coupling between coordinate 49 and others.
	Taking RFO optimization step.
	Going to follow RFO solution 1.
	Using RFO vector 1.

	Determining step-restricting scale parameter for RS-RFO.
	Maximum step size allowed    0.10000

	 Iter      |step|        alpha        rfo_root  
	------------------------------------------------
	    0     0.20860       1.00000           1
	    1     0.15791       5.33638           1
	    2     0.12499      14.78324           1
	    3     0.10697      26.49381           1
	    4     0.10076      32.61258           1
	    5     0.10001      33.45294           1
	    6     0.10000      33.46505           1
	------------------------------------------------
	Norm of target step-size    0.10000
	Projected energy change by RFO approximation:        -0.0040621186

	Back-transformation to cartesian coordinates...
	Successfully converged to displaced geometry.

	--- Internal Coordinate Step in ANG or DEG, aJ/ANG or AJ/DEG ---
	 ---------------------------------------------------------------------------
	   Coordinate                Previous        Force       Change         New 
	   ----------                --------       ------       ------       ------
	    1 R(1,4)          =      1.075865     0.076517     0.012058     1.087923
	    2 R(2,4)          =      1.079589     0.078349     0.010773     1.090363
	    3 R(3,4)          =      1.077462     0.092377     0.012843     1.090305
	    4 R(4,7)          =      1.542870    -0.030336    -0.006614     1.536256
	    5 R(5,7)          =      1.078457     0.088943     0.012223     1.090680
	    6 R(6,7)          =      1.077954     0.095172     0.013062     1.091016
	    7 R(7,10)         =      1.551147     0.027211    -0.002503     1.548644
	    8 R(8,10)         =      1.078152     0.094121     0.012926     1.091077
	    9 R(9,10)         =      1.077758     0.093019     0.012750     1.090508
	   10 R(10,14)        =      1.542133    -0.027388    -0.006119     1.536015
	   11 R(11,14)        =      1.079230     0.080560     0.011060     1.090291
	   12 R(12,14)        =      1.076068     0.075353     0.011909     1.087977
	   13 R(13,14)        =      1.078083     0.088946     0.012399     1.090481
	   14 B(1,4,2)        =    109.134293    -0.000270    -0.578273   108.556020
	   15 B(1,4,3)        =    109.212571    -0.000233    -0.658717   108.553853
	   16 B(1,4,7)        =    109.995025     0.000349     0.744809   110.739834
	   17 B(2,4,3)        =    109.206271    -0.000243    -0.625279   108.580992
	   18 B(2,4,7)        =    109.573750     0.000119     0.327829   109.901579
	   19 B(3,4,7)        =    109.700641     0.000268     0.749632   110.450273
	   20 B(4,7,5)        =    108.592528    -0.000345    -0.165438   108.427090
	   21 B(4,7,6)        =    108.745709    -0.000326    -0.281576   108.464133
	   22 B(4,7,10)       =    112.328249     0.001248     1.244732   113.572981
	   23 B(5,7,6)        =    109.699588    -0.000007    -0.566994   109.132593
	   24 B(5,7,10)       =    108.661442    -0.000320    -0.186339   108.475104
	   25 B(6,7,10)       =    108.789960    -0.000262    -0.092484   108.697476
	   26 B(7,10,8)       =    108.775613    -0.000263    -0.089741   108.685872
	   27 B(7,10,9)       =    108.680505    -0.000322    -0.205263   108.475242
	   28 B(7,10,14)      =    112.331319     0.001249     1.251987   113.583306
	   29 B(8,10,9)       =    109.714226    -0.000008    -0.568979   109.145247
	   30 B(8,10,14)      =    108.684039    -0.000320    -0.266283   108.417755
	   31 B(9,10,14)      =    108.632440    -0.000349    -0.169854   108.462586
	   32 B(10,14,11)     =    109.581940     0.000122     0.341103   109.923043
	   33 B(10,14,12)     =    110.034492     0.000342     0.730903   110.765395
	   34 B(10,14,13)     =    109.748850     0.000261     0.732946   110.481796
	   35 B(11,14,12)     =    109.141168    -0.000269    -0.589234   108.551934
	   36 B(11,14,13)     =    109.183100    -0.000240    -0.619940   108.563159
	   37 B(12,14,13)     =    109.132028    -0.000224    -0.637147   108.494881
	   38 D(1,4,7,5)      =   -179.598483     0.000060     0.565156  -179.033327
	   39 D(1,4,7,6)      =    -60.275384    -0.000031    -0.368195   -60.643579
	   40 D(1,4,7,10)     =     60.195123     0.000025     0.120636    60.315759
	   41 D(2,4,7,5)      =    -59.626030     0.000050     0.525344   -59.100686
	   42 D(2,4,7,6)      =     59.697069    -0.000040    -0.408007    59.289062
	   43 D(2,4,7,10)     =   -179.832424     0.000015     0.080825  -179.751600
	   44 D(3,4,7,5)      =     60.252994     0.000037     0.426641    60.679635
	   45 D(3,4,7,6)      =    179.576093    -0.000054    -0.506710   179.069383
	   46 D(3,4,7,10)     =    -59.953400     0.000002    -0.017879   -59.971279
	   47 D(4,7,10,8)     =     90.188131     0.000019     0.139912    90.328043
	   48 D(4,7,10,9)     =   -150.402874    -0.000061    -0.712512  -151.115386
	   49 D(4,7,10,14)    =    -30.171730    -0.000030    -0.267986   -30.439717
	   50 D(5,7,10,8)     =    -29.978331    -0.000013    -0.317493   -30.295824
	   51 D(5,7,10,9)     =     89.430664    -0.000093    -1.169917    88.260747
	   52 D(5,7,10,14)    =   -150.338192    -0.000062    -0.725391  -151.063583
	   53 D(6,7,10,8)     =   -149.366932     0.000067     0.523214  -148.843718
	   54 D(6,7,10,9)     =    -29.957938    -0.000013    -0.329209   -30.287147
	   55 D(6,7,10,14)    =     90.273206     0.000018     0.115316    90.388523
	   56 D(7,10,14,11)   =   -179.837264     0.000015     0.086992  -179.750272
	   57 D(7,10,14,12)   =     60.152183     0.000025     0.139858    60.292041
	   58 D(7,10,14,13)   =    -59.951931     0.000002    -0.006560   -59.958492
	   59 D(8,10,14,11)   =     59.749923    -0.000041    -0.418640    59.331283
	   60 D(8,10,14,12)   =    -60.260630    -0.000031    -0.365774   -60.626404
	   61 D(8,10,14,13)   =    179.635256    -0.000054    -0.512192   179.123063
	   62 D(9,10,14,11)   =    -59.578288     0.000050     0.510811   -59.067477
	   63 D(9,10,14,12)   =   -179.588840     0.000060     0.563676  -179.025164
	   64 D(9,10,14,13)   =     60.307045     0.000036     0.417258    60.724303
	 ---------------------------------------------------------------------------
	 Forces used to impose fixed constraints are not included.
	  Forces zeroed: 49 

  ==> Convergence Check <==

  Measures of convergence in internal coordinates in au.
  Criteria marked as inactive (o), active & met (*), and active & unmet ( ).
  ---------------------------------------------------------------------------------------------
   Step     Total Energy     Delta E     MAX Force     RMS Force      MAX Disp      RMS Disp   
  ---------------------------------------------------------------------------------------------
    Convergence Criteria    1.00e-06 *    3.00e-04 *             o    1.20e-03 *             o
  ---------------------------------------------------------------------------------------------
      2    -157.83492735   -7.02e-03      1.64e-02      5.75e-03 o    2.47e-02      1.25e-02 o  ~
  ---------------------------------------------------------------------------------------------

	Writing optimization data to binary file.
	Structure for next step:
	Cartesian Geometry (in Angstrom)
	    H    -1.7220765624   0.4605395581   0.3642992957
	    H    -1.4725624637   2.0889669192  -0.2786831633
	    H    -1.3006652771   0.6812511161  -1.3389060337
	    C    -1.1305290413   1.0548543755  -0.3288366775
	    H     0.9161855204   1.6004483737  -0.6784579572
	    H     0.4974948961   1.3757635267   1.0344749473
	    C     0.3620984907   0.9798950654   0.0268678489
	    H     1.3191284616  -0.6448253853  -1.0294510591
	    H     1.7631784269  -0.5228846873   0.6875377649
	    C     0.9395521870  -0.4561586526  -0.0240771796
	    H     0.3802601677  -2.5275364709   0.2691732057
	    H    -0.9213530593  -1.5226391379  -0.3813897893
	    H    -0.4796171890  -1.3966053021   1.3258126349
	    C    -0.0887436299  -1.5445174048   0.3185941355
			--------------------------
			 OPTKING Finished Execution 
			--------------------------

    Structure for next step:
    Molecular point group: c1
    Full point group: C1

    Geometry (in Angstrom), charge = 0, multiplicity = 1:

    H           -1.721396914778     0.460571063192     0.366283048172
    H           -1.471882816121     2.088998424247    -0.276699410855
    H           -1.299985629494     0.681282621190    -1.336922281317
    C           -1.129849393717     1.054885880494    -0.326852925030
    H            0.916865167995     1.600479878782    -0.676474204773
    H            0.498174543696     1.375795031736     1.036458699716
    C            0.362778138358     0.979926570434     0.028851601331
    H            1.319808109228    -0.644793880228    -1.027467306702
    H            1.763858074549    -0.522853182283     0.689521517371
    C            0.940231834663    -0.456127147575    -0.022093427207
    H            0.380939815281    -2.527504965859     0.271156958170
    H           -0.920673411696    -1.522607632874    -0.379406036847
    H           -0.478937541409    -1.396573797083     1.327796387363
    C           -0.088063982245    -1.544485899801     0.320577887924

gradient() will perform analytic gradient computation.
    SCF Algorithm Type (re)set to DF.

*** tstart() called on lski1497
*** at Mon Feb 20 17:31:12 2017


         ---------------------------------------------------------
                                   SCF
            by Justin Turney, Rob Parrish, and Andy Simmonett
                              RHF Reference
                        1 Threads,   1000 MiB Core
         ---------------------------------------------------------

  ==> Geometry <==

    Molecular point group: c1
    Full point group: C1

    Geometry (in Angstrom), charge = 0, multiplicity = 1:

       Center              X                  Y                   Z               Mass       
    ------------   -----------------  -----------------  -----------------  -----------------
           H         -1.721396914778     0.460571063192     0.366283048172     1.007825032070
           H         -1.471882816121     2.088998424247    -0.276699410855     1.007825032070
           H         -1.299985629494     0.681282621190    -1.336922281317     1.007825032070
           C         -1.129849393717     1.054885880494    -0.326852925030    12.000000000000
           H          0.916865167995     1.600479878782    -0.676474204773     1.007825032070
           H          0.498174543696     1.375795031736     1.036458699716     1.007825032070
           C          0.362778138358     0.979926570434     0.028851601331    12.000000000000
           H          1.319808109228    -0.644793880228    -1.027467306702     1.007825032070
           H          1.763858074549    -0.522853182283     0.689521517371     1.007825032070
           C          0.940231834663    -0.456127147575    -0.022093427207    12.000000000000
           H          0.380939815281    -2.527504965859     0.271156958170     1.007825032070
           H         -0.920673411696    -1.522607632874    -0.379406036847     1.007825032070
           H         -0.478937541409    -1.396573797083     1.327796387363     1.007825032070
           C         -0.088063982245    -1.544485899801     0.320577887924    12.000000000000

  Running in c1 symmetry.

  Rotational constants: A =      0.39883  B =      0.18054  C =      0.13932 [cm^-1]
  Rotational constants: A =  11956.52344  B =   5412.40899  C =   4176.58957 [MHz]
  Nuclear repulsion =  133.396625421647116

  Charge       = 0
  Multiplicity = 1
  Electrons    = 34
  Nalpha       = 17
  Nbeta        = 17

  ==> Algorithm <==

  SCF Algorithm Type is DF.
  DIIS enabled.
  MOM disabled.
  Fractional occupation disabled.
  Guess Type is READ.
  Energy threshold   = 1.00e-10
  Density threshold  = 1.00e-10
  Integral threshold = 0.00e+00

  ==> Primary Basis <==

  Basis Set: 6-31G(D)
    Number of shells: 44
    Number of basis function: 80
    Number of Cartesian functions: 80
    Spherical Harmonics?: false
    Max angular momentum: 2

  ==> Pre-Iterations <==

   -------------------------------------------------------
    Irrep   Nso     Nmo     Nalpha   Nbeta   Ndocc  Nsocc
   -------------------------------------------------------
     A         80      80       0       0       0       0
   -------------------------------------------------------
    Total      80      80      17      17      17       0
   -------------------------------------------------------

  ==> Integral Setup <==

  ==> DFJK: Density-Fitted J/K Matrices <==

    J tasked:                  Yes
    K tasked:                  Yes
    wK tasked:                  No
    OpenMP threads:              1
    Integrals threads:           1
    Memory (MB):               715
    Algorithm:                Core
    Integral Cache:           NONE
    Schwarz Cutoff:          1E-12
    Fitting Condition:       1E-12

   => Auxiliary Basis Set <=

  Basis Set: 
    Number of shells: 186
    Number of basis function: 574
    Number of Cartesian functions: 574
    Spherical Harmonics?: false
    Max angular momentum: 3

  Minimum eigenvalue in the overlap matrix is 4.5666578478E-03.
  Using Symmetric Orthogonalization.
  SCF Guess was Projection but file not found.
  Switching over to SAD guess.

  SCF Guess: Superposition of Atomic Densities via on-the-fly atomic UHF.

  ==> Iterations <==

                           Total Energy        Delta E     RMS |[F,P]|

   @DF-RHF iter   0:  -158.64627578839486   -1.58646e+02   4.47171e-02 
   @DF-RHF iter   1:  -157.17446021546067    1.47182e+00   4.79091e-03 
   @DF-RHF iter   2:  -157.27652739278875   -1.02067e-01   1.68454e-03 DIIS
   @DF-RHF iter   3:  -157.28845408637500   -1.19267e-02   6.25622e-04 DIIS
   @DF-RHF iter   4:  -157.29052031554301   -2.06623e-03   8.50626e-05 DIIS
   @DF-RHF iter   5:  -157.29057509384069   -5.47783e-05   1.84531e-05 DIIS
   @DF-RHF iter   6:  -157.29057749608796   -2.40225e-06   4.99501e-06 DIIS
   @DF-RHF iter   7:  -157.29057762495836   -1.28870e-07   1.18050e-06 DIIS
   @DF-RHF iter   8:  -157.29057763468592   -9.72756e-09   2.77076e-07 DIIS
   @DF-RHF iter   9:  -157.29057763529028   -6.04359e-10   7.49199e-08 DIIS
   @DF-RHF iter  10:  -157.29057763533120   -4.09273e-11   2.20461e-08 DIIS
   @DF-RHF iter  11:  -157.29057763533405   -2.84217e-12   4.54456e-09 DIIS
   @DF-RHF iter  12:  -157.29057763533410   -5.68434e-14   1.00674e-09 DIIS
   @DF-RHF iter  13:  -157.29057763533427   -1.70530e-13   2.46298e-10 DIIS
   @DF-RHF iter  14:  -157.29057763533427    0.00000e+00   7.41525e-11 DIIS

  ==> Post-Iterations <==

    Orbital Energies (a.u.)
    -----------------------

    Doubly Occupied:                                                      

       1A    -11.215159     2A    -11.214613     3A    -11.207989  
       4A    -11.207978     5A     -1.067421     6A     -0.970848  
       7A     -0.876762     8A     -0.767650     9A     -0.636029  
      10A     -0.616074    11A     -0.568974    12A     -0.534172  
      13A     -0.525093    14A     -0.509945    15A     -0.457732  
      16A     -0.456362    17A     -0.452299  

    Virtual:                                                              

      18A      0.225306    19A      0.277621    20A      0.284201  
      21A      0.299161    22A      0.309070    23A      0.314488  
      24A      0.347045    25A      0.348692    26A      0.353941  
      27A      0.376877    28A      0.392626    29A      0.420222  
      30A      0.470409    31A      0.710563    32A      0.732865  
      33A      0.735384    34A      0.776157    35A      0.782506  
      36A      0.835171    37A      0.861204    38A      0.920383  
      39A      0.948086    40A      1.002007    41A      1.112130  
      42A      1.118862    43A      1.154429    44A      1.162845  
      45A      1.165785    46A      1.178860    47A      1.187200  
      48A      1.193069    49A      1.227653    50A      1.247217  
      51A      1.248622    52A      1.284172    53A      1.303306  
      54A      1.597603    55A      1.665618    56A      1.711689  
      57A      1.725999    58A      1.934009    59A      1.984077  
      60A      2.059094    61A      2.162904    62A      2.282806  
      63A      2.283186    64A      2.315767    65A      2.353421  
      66A      2.424403    67A      2.487956    68A      2.586313  
      69A      2.650253    70A      2.658511    71A      2.702735  
      72A      2.729469    73A      2.770705    74A      2.916148  
      75A      2.976653    76A      3.082993    77A      4.554239  
      78A      4.690813    79A      4.777329    80A      4.963606  

    Final Occupation by Irrep:
              A 
    DOCC [    17 ]

  Energy converged.

  @DF-RHF Final Energy:  -157.29057763533427

   => Energetics <=

    Nuclear Repulsion Energy =            133.3966254216471157
    One-Electron Energy =                -474.8042061779814276
    Two-Electron Energy =                 184.1170031210000104
    DFT Exchange-Correlation Energy =       0.0000000000000000
    Empirical Dispersion Energy =           0.0000000000000000
    PCM Polarization Energy =               0.0000000000000000
    EFP Energy =                            0.0000000000000000
    Total Energy =                       -157.2905776353343015


  Saving occupied orbitals to File 180.

*** tstop() called on lski1497 at Mon Feb 20 17:31:20 2017
Module time:
	user time   =       4.89 seconds =       0.08 minutes
	system time =       0.14 seconds =       0.00 minutes
	total time  =          8 seconds =       0.13 minutes
Total time:
	user time   =      49.69 seconds =       0.83 minutes
	system time =       1.43 seconds =       0.02 minutes
	total time  =         69 seconds =       1.15 minutes


Properties will be evaluated at   0.000000,   0.000000,   0.000000 Bohr

Properties computed using the SCF density matrix

  Nuclear Dipole Moment: (a.u.)
     X:    -0.9499      Y:    -0.3817      Z:    -0.0054

  Electronic Dipole Moment: (a.u.)
     X:     0.9762      Y:     0.3923      Z:     0.0055

  Dipole Moment: (a.u.)
     X:     0.0263      Y:     0.0105      Z:     0.0001     Total:     0.0283

  Dipole Moment: (Debye)
     X:     0.0668      Y:     0.0268      Z:     0.0003     Total:     0.0720


  //>>>>>>>>>>>>>>>>>>>>>>>>>>>>>>>>>>>//
  //               DFMP2               //
  //<<<<<<<<<<<<<<<<<<<<<<<<<<<<<<<<<<<//


*** tstart() called on lski1497
*** at Mon Feb 20 17:31:20 2017


*** tstop() called on lski1497 at Mon Feb 20 17:31:21 2017
Module time:
	user time   =       0.53 seconds =       0.01 minutes
	system time =       0.00 seconds =       0.00 minutes
	total time  =          1 seconds =       0.02 minutes
Total time:
	user time   =      50.24 seconds =       0.84 minutes
	system time =       1.43 seconds =       0.02 minutes
	total time  =         70 seconds =       1.17 minutes
	 --------------------------------------------------------
	                          DF-MP2                         
	      2nd-Order Density-Fitted Moller-Plesset Theory     
	              RMP2 Wavefunction,   1 Threads             
	                                                         
	        Rob Parrish, Justin Turney, Andy Simmonett,      
	           Ed Hohenstein, and C. David Sherrill          
	 --------------------------------------------------------

   => Auxiliary Basis Set <=

  Basis Set: 
    Number of shells: 132
    Number of basis function: 364
    Number of Cartesian functions: 414
    Spherical Harmonics?: true
    Max angular momentum: 3

	 --------------------------------------------------------
	                 NBF =    80, NAUX =   364
	 --------------------------------------------------------
	   CLASS    FOCC     OCC    AOCC    AVIR     VIR    FVIR
	   PAIRS       0      17      17      63      63       0
	 --------------------------------------------------------

DGAS Warning! /src/lib/libfock/apps.cc:80 is not currently checking restricted

         ------------------------------------------------------------
                                     CPHF                           
                                  Rob Parrish                       
         ------------------------------------------------------------

  ==> Geometry <==

    Molecular point group: c1
    Full point group: C1

    Geometry (in Angstrom), charge = 0, multiplicity = 1:

       Center              X                  Y                   Z               Mass       
    ------------   -----------------  -----------------  -----------------  -----------------
           H         -1.721396914778     0.460571063192     0.366283048172     1.007825032070
           H         -1.471882816121     2.088998424247    -0.276699410855     1.007825032070
           H         -1.299985629494     0.681282621190    -1.336922281317     1.007825032070
           C         -1.129849393717     1.054885880494    -0.326852925030    12.000000000000
           H          0.916865167995     1.600479878782    -0.676474204773     1.007825032070
           H          0.498174543696     1.375795031736     1.036458699716     1.007825032070
           C          0.362778138358     0.979926570434     0.028851601331    12.000000000000
           H          1.319808109228    -0.644793880228    -1.027467306702     1.007825032070
           H          1.763858074549    -0.522853182283     0.689521517371     1.007825032070
           C          0.940231834663    -0.456127147575    -0.022093427207    12.000000000000
           H          0.380939815281    -2.527504965859     0.271156958170     1.007825032070
           H         -0.920673411696    -1.522607632874    -0.379406036847     1.007825032070
           H         -0.478937541409    -1.396573797083     1.327796387363     1.007825032070
[...]
  CGR           7          0          1   2.106E-06
  CGR           8          1          0   4.868E-07

    CGRSolver converged.

  ==> DFCorrGrad: Density-Fitted Correlated Gradients <==

    OpenMP threads:              1
    Integrals threads:           1
    Memory (MB):               715
    Schwarz Cutoff:          0E+00
    Fitting Condition:       1E-12

   => Auxiliary Basis Set <=

  Basis Set: 
    Number of shells: 186
    Number of basis function: 510
    Number of Cartesian functions: 574
    Spherical Harmonics?: true
    Max angular momentum: 3

	-----------------------------------------------------------
	 ==================> DF-MP2 Energies <==================== 
	-----------------------------------------------------------
	 Reference Energy          =    -157.2921328136254999 [Eh]
	 Singles Energy            =      -0.0000000000000000 [Eh]
	 Same-Spin Energy          =      -0.1245749932958139 [Eh]
	 Opposite-Spin Energy      =      -0.4226791092492475 [Eh]
	 Correlation Energy        =      -0.5472541025450613 [Eh]
	 Total Energy              =    -157.8393869161705538 [Eh]
	-----------------------------------------------------------
	 ================> DF-SCS-MP2 Energies <================== 
	-----------------------------------------------------------
	 SCS Same-Spin Scale       =       0.3333333333333333 [-]
	 SCS Opposite-Spin Scale   =       1.2000000000000000 [-]
	 SCS Same-Spin Energy      =      -0.0415249977652713 [Eh]
	 SCS Opposite-Spin Energy  =      -0.5072149310990969 [Eh]
	 SCS Correlation Energy    =      -0.5487399288643682 [Eh]
	 SCS Total Energy          =    -157.8408727424898643 [Eh]
	-----------------------------------------------------------


  -Total Gradient:
     Atom            X                  Y                   Z
    ------   -----------------  -----------------  -----------------
       1        0.000006583013     0.000003820765    -0.000009953801
       2       -0.000006000287    -0.000010216256     0.000001681294
       3       -0.000008831604     0.000005328758     0.000008336414
       4       -0.001015531827    -0.000509447730     0.004541637844
       5       -0.000007662483     0.000000696914    -0.000002685452
       6        0.000022245989    -0.000006267417    -0.000011368615
       7        0.000921742889     0.000530632133    -0.008378536712
       8        0.000011882667     0.000020220789     0.000010558667
       9       -0.000004839656    -0.000005977635     0.000002810268
      10        0.001330609558     0.000393419228     0.008331380708
      11       -0.000011477303     0.000003046377    -0.000001417936
      12        0.000007476827     0.000002044392     0.000009282574
      13       -0.000002898753    -0.000010004047    -0.000007820854
      14       -0.001243299030    -0.000417296269    -0.004493904398


			-----------------------------------------
			 OPTKING 2.0: for geometry optimizations 
			  - R.A. King,  Bethel University        
			-----------------------------------------

	Previous internal coordinate definitions found.
	---Fragment 1 Geometry and Gradient---
	 H          -3.3081110517        1.0158001617        0.7623159735
	 H          -2.7664683870        4.0044610392       -0.6125225065
	 H          -2.5876670476        1.2534146714       -2.4907705094
	 C          -2.1607679731        2.0285558226       -0.6210387629
	 H           1.7357980941        3.0409564847       -1.2896330033
	 H           0.9278717264        2.6381006983        1.8898322616
	 C           0.6496684856        1.8382300434       -0.0026639502
	 H           2.4438686503       -1.2545304438       -1.9610315890
	 H           3.4161474738       -0.9268954709        1.1808404062
	 C           1.7527908991       -0.8523987316       -0.0480665316
	 H           0.8665606963       -4.7840741145        0.6526377437
	 H          -1.6667585060       -3.0571989441       -0.6572661505
	 H          -0.8700547958       -2.6722666214        2.5637861871
	 C          -0.0897774809       -2.9520504233        0.6685619411
	             0.0000065830        0.0000038208       -0.0000099538
	            -0.0000060003       -0.0000102163        0.0000016813
	            -0.0000088316        0.0000053288        0.0000083364
	            -0.0010155318       -0.0005094477        0.0045416378
	            -0.0000076625        0.0000006969       -0.0000026855
	             0.0000222460       -0.0000062674       -0.0000113686
	             0.0009217429        0.0005306321       -0.0083785367
	             0.0000118827        0.0000202208        0.0000105587
	            -0.0000048397       -0.0000059776        0.0000028103
	             0.0013306096        0.0003934192        0.0083313807
	            -0.0000114773        0.0000030464       -0.0000014179
	             0.0000074768        0.0000020444        0.0000092826
	            -0.0000028988       -0.0000100040       -0.0000078209
	            -0.0012432990       -0.0004172963       -0.0044939044

	---Fragment 1 Intrafragment Coordinates---
	 - Coordinate -           - BOHR/RAD -       - ANG/DEG -
	 R(1,4)           =         2.062945	       1.091663
	 R(2,4)           =         2.066675	       1.093637
	 R(3,4)           =         2.068570	       1.094640
	 R(4,7)           =         2.883949	       1.526120
	 R(5,7)           =         2.069425	       1.095092
	 R(6,7)           =         2.073338	       1.097163
	 R(7,10)          =         2.908337	       1.539026
	 R(8,10)          =         2.073339	       1.097164
	 R(9,10)          =         2.069424	       1.095092
	 R(10,14)         =         2.883947	       1.526119
	 R(11,14)         =         2.066675	       1.093638
	 R(12,14)         =         2.062946	       1.091664
	 R(13,14)         =         2.068571	       1.094641
	 B(1,4,2)         =         1.879266	     107.673993
	 B(1,4,3)         =         1.883229	     107.901085
	 B(1,4,7)         =         1.945297	     111.457330
	 B(2,4,3)         =         1.877068	     107.548056
	 B(2,4,7)         =         1.926043	     110.354134
	 B(3,4,7)         =         1.950012	     111.727475
	 B(4,7,5)         =         1.917464	     109.862581
	 B(4,7,6)         =         1.876556	     107.518763
	 B(4,7,10)        =         2.012340	     115.298587
	 B(5,7,6)         =         1.847320	     105.843629
	 B(5,7,10)        =         1.905937	     109.202150
	 B(6,7,10)        =         1.896805	     108.678949
	 B(7,10,8)        =         1.896805	     108.678916
	 B(7,10,9)        =         1.905939	     109.202239
	 B(7,10,14)       =         2.012339	     115.298550
	 B(8,10,9)        =         1.847319	     105.843573
	 B(8,10,14)       =         1.876556	     107.518755
	 B(9,10,14)       =         1.917464	     109.862621
	 B(10,14,11)      =         1.926043	     110.354144
	 B(10,14,12)      =         1.945297	     111.457281
	 B(10,14,13)      =         1.950012	     111.727474
	 B(11,14,12)      =         1.879265	     107.673951
	 B(11,14,13)      =         1.877069	     107.548103
	 B(12,14,13)      =         1.883230	     107.901122
	 D(1,4,7,5)       =        -3.030856	    -173.655232
	 D(1,4,7,6)       =        -1.028339	     -58.919473
	 D(1,4,7,10)      =         1.090093	      62.457727
	 D(2,4,7,5)       =        -0.943661	     -54.067805
	 D(2,4,7,6)       =         1.058856	      60.667954
	 D(2,4,7,10)      =        -3.105898	    -177.954846
	 D(3,4,7,5)       =         1.143841	      65.537256
	 D(3,4,7,6)       =        -3.136828	    -179.726984
	 D(3,4,7,10)      =        -1.018396	     -58.349785
	 D(4,7,10,8)      =         1.574212	      90.195714
	 D(4,7,10,9)      =        -2.701518	    -154.785604
	 D(4,7,10,14)     =        -0.533231	     -30.551901
	 D(5,7,10,8)      =        -0.594073	     -34.037892
	 D(5,7,10,9)      =         1.413381	      80.980790
	 D(5,7,10,14)     =        -2.701517	    -154.785507
	 D(6,7,10,8)      =        -2.601529	    -149.056611
	 D(6,7,10,9)      =        -0.594074	     -34.037929
	 D(6,7,10,14)     =         1.574213	      90.195774
	 D(7,10,14,11)    =        -3.105900	    -177.954975
	 D(7,10,14,12)    =         1.090092	      62.457676
	 D(7,10,14,13)    =        -1.018397	     -58.349849
	 D(8,10,14,11)    =         1.058855	      60.667898
	 D(8,10,14,12)    =        -1.028338	     -58.919451
	 D(8,10,14,13)    =        -3.136827	    -179.726976
	 D(9,10,14,11)    =        -0.943661	     -54.067812
	 D(9,10,14,12)    =        -3.030854	    -173.655161
	 D(9,10,14,13)    =         1.143842	      65.537315

	Current energy   :      -157.8393869162

	Energy change for the previous step:
		Projected    :        -0.0000033242
		Actual       :        -0.0000050162

	Performing BFGS update.
	Previous computed or guess Hessian on step 1.
	Steps to be used in Hessian update: 11 10
	Adding user-defined constraint: Fragment 1; Coordinate 49:
		Value =    -0.533231; Fixed value    =    -0.523600
		Force =     0.007464; Force constant =     0.775000
	Removing off-diagonal coupling between coordinate 49 and others.
	Taking RFO optimization step.
	Going to follow RFO solution 1.
	Rejecting RFO root 1 because normalization gives large value.
	Using RFO vector 2.
	Norm of target step-size    0.00248
	Projected energy change by RFO approximation:        -0.0000003077

	Back-transformation to cartesian coordinates...
	Could not converge backtransformation.
	Using first guess instead.

	--- Internal Coordinate Step in ANG or DEG, aJ/ANG or AJ/DEG ---
	 ---------------------------------------------------------------------------
	   Coordinate                Previous        Force       Change         New 
	   ----------                --------       ------       ------       ------
	    1 R(1,4)          =      1.091663     0.000101     0.000015     1.091678
	    2 R(2,4)          =      1.093637     0.000066     0.000006     1.093644
	    3 R(3,4)          =      1.094640     0.000064     0.000007     1.094648
	    4 R(4,7)          =      1.526120     0.000081     0.000013     1.526133
	    5 R(5,7)          =      1.095092     0.000016    -0.000002     1.095090
	    6 R(6,7)          =      1.097163     0.000081     0.000017     1.097181
	    7 R(7,10)         =      1.539026     0.000111    -0.000005     1.539021
	    8 R(8,10)         =      1.097164     0.000080     0.000017     1.097181
	    9 R(9,10)         =      1.095092     0.000017    -0.000002     1.095090
	   10 R(10,14)        =      1.526119     0.000087     0.000014     1.526133
	   11 R(11,14)        =      1.093638     0.000066     0.000006     1.093643
	   12 R(12,14)        =      1.091664     0.000097     0.000015     1.091679
	   13 R(13,14)        =      1.094641     0.000061     0.000007     1.094648
	   14 B(1,4,2)        =    107.673993     0.000000     0.003223   107.677216
	   15 B(1,4,3)        =    107.901085     0.000000     0.002703   107.903788
	   16 B(1,4,7)        =    111.457330     0.000000     0.000555   111.457885
	   17 B(2,4,3)        =    107.548056     0.000001     0.001489   107.549545
	   18 B(2,4,7)        =    110.354134    -0.000001    -0.003517   110.350617
	   19 B(3,4,7)        =    111.727475    -0.000001    -0.004043   111.723432
	   20 B(4,7,5)        =    109.862581    -0.000006     0.008553   109.871134
	   21 B(4,7,6)        =    107.518763     0.000005    -0.014991   107.503771
	   22 B(4,7,10)       =    115.298587     0.000002     0.000091   115.298678
	   23 B(5,7,6)        =    105.843629     0.000000     0.001831   105.845460
	   24 B(5,7,10)       =    109.202150    -0.000001    -0.000788   109.201362
	   25 B(6,7,10)       =    108.678949     0.000000     0.005244   108.684193
	   26 B(7,10,8)       =    108.678916     0.000000     0.005269   108.684185
	   27 B(7,10,9)       =    109.202239    -0.000001    -0.000893   109.201347
	   28 B(7,10,14)      =    115.298550     0.000002     0.000113   115.298662
	   29 B(8,10,9)       =    105.843573     0.000000     0.001880   105.845453
	   30 B(8,10,14)      =    107.518755     0.000005    -0.014947   107.503807
	   31 B(9,10,14)      =    109.862621    -0.000006     0.008525   109.871146
	   32 B(10,14,11)     =    110.354144    -0.000001    -0.003497   110.350646
	   33 B(10,14,12)     =    111.457281     0.000000     0.000608   111.457889
	   34 B(10,14,13)     =    111.727474    -0.000001    -0.004057   111.723417
	   35 B(11,14,12)     =    107.673951     0.000000     0.003237   107.677189
	   36 B(11,14,13)     =    107.548103     0.000001     0.001445   107.549549
	   37 B(12,14,13)     =    107.901122     0.000000     0.002671   107.903793
	   38 D(1,4,7,5)      =   -173.655232    -0.000000     0.032681  -173.622551
	   39 D(1,4,7,6)      =    -58.919473    -0.000000     0.031096   -58.888377
	   40 D(1,4,7,10)     =     62.457727     0.000001     0.026721    62.484448
	   41 D(2,4,7,5)      =    -54.067805    -0.000000     0.034759   -54.033047
	   42 D(2,4,7,6)      =     60.667954    -0.000000     0.033174    60.701128
	   43 D(2,4,7,10)     =   -177.954846     0.000001     0.028799  -177.926048
	   44 D(3,4,7,5)      =     65.537256    -0.000000     0.031641    65.568897
	   45 D(3,4,7,6)      =   -179.726984    -0.000000     0.030055  -179.696929
	   46 D(3,4,7,10)     =    -58.349785     0.000001     0.025680   -58.324104
	   47 D(4,7,10,8)     =     90.195714    -0.000002    -0.012113    90.183601
	   48 D(4,7,10,9)     =   -154.785604    -0.000002    -0.007504  -154.793107
	   49 D(4,7,10,14)    =    -30.551901    -0.000004     0.003217   -30.548683
	   50 D(5,7,10,8)     =    -34.037892    -0.000000    -0.022940   -34.060833
	   51 D(5,7,10,9)     =     80.980790    -0.000000    -0.018331    80.962459
	   52 D(5,7,10,14)    =   -154.785507    -0.000002    -0.007609  -154.793116
	   53 D(6,7,10,8)     =   -149.056611    -0.000000    -0.027535  -149.084146
	   54 D(6,7,10,9)     =    -34.037929    -0.000000    -0.022925   -34.060854
	   55 D(6,7,10,14)    =     90.195774    -0.000002    -0.012204    90.183571
	   56 D(7,10,14,11)   =   -177.954975     0.000001     0.028921  -177.926054
	   57 D(7,10,14,12)   =     62.457676     0.000001     0.026778    62.484454
	   58 D(7,10,14,13)   =    -58.349849     0.000001     0.025751   -58.324097
	   59 D(8,10,14,11)   =     60.667898    -0.000000     0.033217    60.701115
	   60 D(8,10,14,12)   =    -58.919451    -0.000000     0.031074   -58.888377
	   61 D(8,10,14,13)   =   -179.726976    -0.000000     0.030047  -179.696928
	   62 D(9,10,14,11)   =    -54.067812    -0.000000     0.034735   -54.033077
	   63 D(9,10,14,12)   =   -173.655161    -0.000000     0.032592  -173.622568
	   64 D(9,10,14,13)   =     65.537315    -0.000000     0.031565    65.568880
	 ---------------------------------------------------------------------------
	 Forces used to impose fixed constraints are not included.
	  Forces zeroed: 49 

  ==> Convergence Check <==

  Measures of convergence in internal coordinates in au.
  Criteria marked as inactive (o), active & met (*), and active & unmet ( ).
  ---------------------------------------------------------------------------------------------
   Step     Total Energy     Delta E     MAX Force     RMS Force      MAX Disp      RMS Disp   
  ---------------------------------------------------------------------------------------------
    Convergence Criteria    1.00e-06 *    3.00e-04 *             o    1.20e-03 *             o
  ---------------------------------------------------------------------------------------------
     12    -157.83938692   -5.02e-06      1.05e-04 *    3.60e-05 o    6.07e-04 *    3.10e-04 o  ~
  ---------------------------------------------------------------------------------------------


  **** Optimization is complete! (in 12 steps) ****

  ==> Optimization Summary <==

  Measures of convergence in internal coordinates in au.
  --------------------------------------------------------------------------------------------------------------- ~
   Step         Total Energy             Delta E       MAX Force       RMS Force        MAX Disp        RMS Disp  ~
  --------------------------------------------------------------------------------------------------------------- ~
      1    -157.827905870218   -157.827905870218      0.04829643      0.01260387      0.04938175      0.01266944  ~
      2    -157.834927345342     -0.007021475123      0.01641946      0.00574925      0.02468320      0.01253427  ~
      3    -157.837882579484     -0.002955234142      0.00809332      0.00233611      0.04130571      0.01251329  ~
      4    -157.838930842147     -0.001048262663      0.00327050      0.00097239      0.04641429      0.01249407  ~
      5    -157.839319825736     -0.000388983590      0.00087823      0.00029256      0.02894302      0.01249765  ~
      6    -157.839414190663     -0.000094364927      0.00028900      0.00011197      0.02488987      0.01245191  ~
      7    -157.839452445387     -0.000038254724      0.00064396      0.00014444      0.01534067      0.00765614  ~
      8    -157.839410008161      0.000042437226      0.00013858      0.00006361      0.00899720      0.00452863  ~
      9    -157.839412509822     -0.000002501662      0.00009047      0.00002757      0.02556610      0.01249867  ~
     10    -157.839360828318      0.000051681504      0.00059412      0.00019212      0.02534334      0.01249900  ~
     11    -157.839381899983     -0.000021071665      0.00044961      0.00010142      0.00219981      0.00069329  ~
     12    -157.839386916171     -0.000005016188      0.00020128      0.00004391      0.00060666      0.00031042  ~
  --------------------------------------------------------------------------------------------------------------- ~

	Writing optimization data to binary file.
	Final energy is   -157.8393869161706
	Final (previous) structure:
	Cartesian Geometry (in Angstrom)
	    H    -1.7505769720   0.5375382941   0.4034002389
	    H    -1.4639520187   2.1190695146  -0.3241329502
	    H    -1.3693344250   0.6632784770  -1.3180589854
	    C    -1.1434291644   1.0734655077  -0.3286395590
	    H     0.9185447901   1.6092048640  -0.6824443928
	    H     0.4910085701   1.3960227635   1.0000561609
	    C     0.3437897557   0.9727494431  -0.0014097017
	    H     1.2932395905  -0.6638689183  -1.0377332222
	    H     1.8077473843  -0.4904919579   0.6248738300
	    C     0.9275369952  -0.4510699814  -0.0254357130
	    H     0.4585641703  -2.5316229856   0.3453610194
	    H    -0.8820106136  -1.6178000034  -0.3478102668
	    H    -0.4604131681  -1.4141025913   1.3566972179
	    C    -0.0475081968  -1.5621578026   0.3537877418
	Saving final (previous) structure.
			--------------------------
			 OPTKING Finished Execution 
			--------------------------

    Final optimized geometry and variables:
    Molecular point group: c1
    Full point group: C1

    Geometry (in Angstrom), charge = 0, multiplicity = 1:

    H           -1.750576972035     0.537538294058     0.403400238899
    H           -1.463952018709     2.119069514611    -0.324132950197
    H           -1.369334424994     0.663278476994    -1.318058985381
    C           -1.143429164431     1.073465507695    -0.328639558970
    H            0.918544790092     1.609204864016    -0.682444392768
    H            0.491008570108     1.396022763493     1.000056160898
    C            0.343789755731     0.972749443116    -0.001409701738
    H            1.293239590503    -0.663868918344    -1.037733222198
    H            1.807747384330    -0.490491957931     0.624873829968
    C            0.927536995240    -0.451069981412    -0.025435712998
    H            0.458564170337    -2.531622985593     0.345361019424
    H           -0.882010613593    -1.617800003353    -0.347810266819
    H           -0.460413168148    -1.414102591304     1.356697217892
    C           -0.047508196758    -1.562157802641     0.353787741785

	Cleaning optimization helper files.

*** Psi4 exiting successfully. Buy a developer a beer!
