    -----------------------------------------------------------------------
          Psi4: An Open-Source Ab Initio Electronic Structure Package
                              Psi4 1.0.0 Driver

                          Git: Rev {master} 6a9a71b 

    J. M. Turney, A. C. Simmonett, R. M. Parrish, E. G. Hohenstein,
    F. A. Evangelista, J. T. Fermann, B. J. Mintz, L. A. Burns, J. J. Wilke,
    M. L. Abrams, N. J. Russ, M. L. Leininger, C. L. Janssen, E. T. Seidl,
    W. D. Allen, H. F. Schaefer, R. A. King, E. F. Valeev, C. D. Sherrill,
    and T. D. Crawford, WIREs Comput. Mol. Sci. 2, 556-565 (2012)
    (doi: 10.1002/wcms.93)

                         Additional Contributions by
    A. E. DePrince, U. Bozkaya, A. Yu. Sokolov, D. G. A. Smith, R. Di Remigio,
    R. M. Richard, J. F. Gonthier, H. R. McAlexander, M. Saitow, and
    B. P. Pritchard
    -----------------------------------------------------------------------


    Psi4 started on: Tue Feb 21 17:40:07 2017

    Process ID:  34279
    PSI4DATADIR: /Users/sternc1/anaconda/share/psi4
    Memory level set to 256.000 MB

  ==> Input File <==

--------------------------------------------------------------------------

memory 1000 mb

molecule butane {
  symmetry C1
  0 1 
  H      1.604   0.760   -8.260
  H      1.745   2.388   -8.880
  H      2.043   1.024   -9.930
  C      2.142   1.395   -8.932
  H      4.169   2.051   -9.210
  H      3.731   1.788   -7.539
  C      3.631   1.416   -8.537
  H      5.006   -0.037   -9.318
  H      4.567   -0.302   -7.649
  C      4.203   -0.012   -8.612
  H      3.495   -1.978   -9.109
  H      2.733   -0.697   -10.020
  H      2.293   -0.961   -8.351
  C      3.097   -0.986   -9.057
  units Angstrom
}

dih_string = "4 7 10 14 0.001"
set optking fixed_dihedral = $dih_string

optimize('B3LYP/cc-PVDZ')
--------------------------------------------------------------------------

  Memory set to 1000.000 MiB by Python script.
gradient() will perform analytic gradient computation.

*** tstart() called on lski1497
*** at Tue Feb 21 17:40:09 2017


         ---------------------------------------------------------
                                   SCF
            by Justin Turney, Rob Parrish, and Andy Simmonett
                              RKS Reference
                        1 Threads,   1000 MiB Core
         ---------------------------------------------------------

  ==> Geometry <==

    Molecular point group: c1
    Full point group: C1

    Geometry (in Angstrom), charge = 0, multiplicity = 1:

       Center              X                  Y                   Z               Mass       
    ------------   -----------------  -----------------  -----------------  -----------------
           H         -1.641751988320     0.315365705977     0.531805563376     1.007825032070
           H         -1.500751988320     1.943365705977    -0.088194436624     1.007825032070
           H         -1.202751988320     0.579365705977    -1.138194436624     1.007825032070
           C         -1.103751988320     0.950365705977    -0.140194436624    12.000000000000
           H          0.923248011680     1.606365705977    -0.418194436624     1.007825032070
           H          0.485248011680     1.343365705977     1.252805563376     1.007825032070
           C          0.385248011680     0.971365705977     0.254805563376    12.000000000000
           H          1.760248011680    -0.481634294023    -0.526194436624     1.007825032070
           H          1.321248011680    -0.746634294023     1.142805563376     1.007825032070
           C          0.957248011680    -0.456634294023     0.179805563376    12.000000000000
           H          0.249248011680    -2.422634294023    -0.317194436624     1.007825032070
           H         -0.512751988320    -1.141634294023    -1.228194436624     1.007825032070
           H         -0.952751988320    -1.405634294023     0.440805563376     1.007825032070
           C         -0.148751988320    -1.430634294023    -0.265194436624    12.000000000000

  Running in c1 symmetry.

  Rotational constants: A =      0.37738  B =      0.21145  C =      0.15038 [cm^-1]
  Rotational constants: A =  11313.47966  B =   6339.07487  C =   4508.38722 [MHz]
  Nuclear repulsion =  136.588151271564413

  Charge       = 0
  Multiplicity = 1
  Electrons    = 34
  Nalpha       = 17
  Nbeta        = 17

  ==> Algorithm <==

  SCF Algorithm Type is DF.
  DIIS enabled.
  MOM disabled.
  Fractional occupation disabled.
  Guess Type is SAD.
  Energy threshold   = 1.00e-08
  Density threshold  = 1.00e-08
  Integral threshold = 0.00e+00

  ==> Primary Basis <==

  Basis Set: CC-PVDZ
    Number of shells: 54
    Number of basis function: 106
    Number of Cartesian functions: 110
    Spherical Harmonics?: true
    Max angular momentum: 2

  ==> DFT Potential <==

   => B3LYP Composite Functional <= 

    B3LYP Hybrid-GGA Exchange-Correlation Functional (VWN1-RPA)

    P.J. Stephens et. al., J. Phys. Chem., 98, 11623-11627, 1994

    Points   =           5000
    Deriv    =              1
    GGA      =           TRUE
    Meta     =          FALSE

    X_LRC        =          FALSE
    X_Hybrid     =           TRUE
    X_Alpha      =   2.000000E-01
    X_Omega      =   0.000000E+00
    C_LRC        =          FALSE
    C_Hybrid     =          FALSE
    C_Alpha      =   0.000000E+00
    C_Omega      =   0.000000E+00

   => Exchange Functionals <=

    0.8000    B3_X
    0.2000      HF 

   => Correlation Functionals <=

    0.1900 VWN3RPA_C
    0.8100   LYP_C

   => Molecular Quadrature <=

    Radial Scheme    =       TREUTLER
    Pruning Scheme   =           FLAT
    Nuclear Scheme   =       TREUTLER

    BS radius alpha  =              1
    Pruning alpha    =              1
    Radial Points    =             75
    Spherical Points =            302
    Total Points     =         312664
    Total Blocks     =            264
    Max Points       =           4988
    Max Functions    =            106

  ==> Pre-Iterations <==

   -------------------------------------------------------
    Irrep   Nso     Nmo     Nalpha   Nbeta   Ndocc  Nsocc
   -------------------------------------------------------
     A        106     106       0       0       0       0
   -------------------------------------------------------
    Total     106     106      17      17      17       0
   -------------------------------------------------------

  ==> Integral Setup <==

  ==> DFJK: Density-Fitted J/K Matrices <==

    J tasked:                  Yes
    K tasked:                  Yes
    wK tasked:                  No
    OpenMP threads:              1
    Integrals threads:           1
    Memory (MB):               715
    Algorithm:                Core
    Integral Cache:           NONE
    Schwarz Cutoff:          1E-12
    Fitting Condition:       1E-12

   => Auxiliary Basis Set <=

  Basis Set: 
    Number of shells: 186
    Number of basis function: 510
    Number of Cartesian functions: 574
    Spherical Harmonics?: true
    Max angular momentum: 3

  Minimum eigenvalue in the overlap matrix is 2.6768928561E-03.
  Using Symmetric Orthogonalization.
  SCF Guess: Superposition of Atomic Densities via on-the-fly atomic UHF.

  ==> Iterations <==

                           Total Energy        Delta E     RMS |[F,P]|

   @DF-RKS iter   0:  -159.03960320774135   -1.59040e+02   3.37481e-02 
   @DF-RKS iter   1:  -158.24058890019489    7.99014e-01   5.48594e-03 
   @DF-RKS iter   2:  -158.15644255858498    8.41463e-02   6.69595e-03 DIIS
   @DF-RKS iter   3:  -158.42935557492865   -2.72913e-01   4.09220e-04 DIIS
   @DF-RKS iter   4:  -158.43029750958084   -9.41935e-04   1.11125e-04 DIIS
   @DF-RKS iter   5:  -158.43035899558902   -6.14860e-05   4.28829e-05 DIIS
   @DF-RKS iter   6:  -158.43036876506878   -9.76948e-06   7.93036e-06 DIIS
   @DF-RKS iter   7:  -158.43036914927660   -3.84208e-07   9.92192e-07 DIIS
   @DF-RKS iter   8:  -158.43036915569564   -6.41904e-09   1.86871e-07 DIIS
   @DF-RKS iter   9:  -158.43036915586254   -1.66892e-10   8.98021e-08 DIIS
   @DF-RKS iter  10:  -158.43036915590662   -4.40821e-11   1.41841e-08 DIIS
   @DF-RKS iter  11:  -158.43036915590810   -1.47793e-12   1.39565e-09 DIIS

  ==> Post-Iterations <==

    Orbital Energies (a.u.)
    -----------------------

    Doubly Occupied:                                                      

       1A    -10.168550     2A    -10.168329     3A    -10.160869  
       4A    -10.160773     5A     -0.800251     6A     -0.710142  
       7A     -0.653201     8A     -0.557494     9A     -0.478091  
      10A     -0.457546    11A     -0.402776    12A     -0.391089  
      13A     -0.381814    14A     -0.360176    15A     -0.321085  
      16A     -0.316937    17A     -0.310950  

    Virtual:                                                              

      18A      0.058809    19A      0.092268    20A      0.097106  
      21A      0.112261    22A      0.130937    23A      0.131379  
      24A      0.158630    25A      0.181994    26A      0.186942  
      27A      0.194547    28A      0.244377    29A      0.250713  
      30A      0.300060    31A      0.409326    32A      0.417746  
      33A      0.434058    34A      0.446862    35A      0.464478  
      36A      0.502703    37A      0.510129    38A      0.582336  
      39A      0.602439    40A      0.630620    41A      0.652079  
      42A      0.652689    43A      0.662529    44A      0.669053  
      45A      0.673739    46A      0.695360    47A      0.704036  
      48A      0.724784    49A      0.742527    50A      0.761447  
      51A      0.770311    52A      0.849220    53A      0.859176  
      54A      0.904894    55A      0.962536    56A      1.065737  
      57A      1.187231    58A      1.248788    59A      1.249921  
      60A      1.273031    61A      1.300732    62A      1.348148  
      63A      1.373088    64A      1.521153    65A      1.557924  
      66A      1.568409    67A      1.581264    68A      1.595990  
      69A      1.619287    70A      1.648583    71A      1.673263  
      72A      1.676208    73A      1.683427    74A      1.696100  
      75A      1.716988    76A      1.717517    77A      1.728025  
      78A      1.732284    79A      1.743360    80A      1.792843  
      81A      1.831028    82A      1.910388    83A      1.919488  
      84A      1.922549    85A      1.949534    86A      2.004617  
      87A      2.006877    88A      2.124753    89A      2.134323  
      90A      2.210309    91A      2.221873    92A      2.232975  
      93A      2.270207    94A      2.337061    95A      2.395829  
      96A      2.466639    97A      2.478165    98A      2.487908  
      99A      2.509113   100A      2.519401   101A      2.606510  
     102A      2.629042   103A      2.652245   104A      2.662034  
     105A      2.696700   106A      2.800253  

    Final Occupation by Irrep:
              A 
    DOCC [    17 ]

  Energy converged.

  @DF-RKS Final Energy:  -158.43036915590810

   => Energetics <=

    Nuclear Repulsion Energy =            136.5881512715644135
    One-Electron Energy =                -481.5586889434457021
    Two-Electron Energy =                 207.2400623950717602
    DFT Exchange-Correlation Energy =     -20.6998938790985711
    Empirical Dispersion Energy =           0.0000000000000000
    PCM Polarization Energy =               0.0000000000000000
    EFP Energy =                            0.0000000000000000
    Total Energy =                       -158.4303691559080960


  Saving occupied orbitals to File 180.

*** tstop() called on lski1497 at Tue Feb 21 17:42:23 2017
Module time:
	user time   =     121.19 seconds =       2.02 minutes
	system time =       1.23 seconds =       0.02 minutes
	total time  =        134 seconds =       2.23 minutes
Total time:
	user time   =     121.19 seconds =       2.02 minutes
	system time =       1.23 seconds =       0.02 minutes
	total time  =        134 seconds =       2.23 minutes


Properties will be evaluated at   0.000000,   0.000000,   0.000000 Bohr

Properties computed using the SCF density matrix

  Nuclear Dipole Moment: (a.u.)
     X:    -1.0045      Y:    -0.3847      Z:    -0.3262

  Electronic Dipole Moment: (a.u.)
     X:     1.0117      Y:     0.3871      Z:     0.3282

  Dipole Moment: (a.u.)
     X:     0.0072      Y:     0.0024      Z:     0.0020     Total:     0.0079

  Dipole Moment: (Debye)
     X:     0.0183      Y:     0.0061      Z:     0.0051     Total:     0.0200


*** tstart() called on lski1497
*** at Tue Feb 21 17:42:23 2017


         ------------------------------------------------------------
                                   SCF GRAD                          
                          Rob Parrish, Justin Turney,                
                       Andy Simmonett, and Alex Sokolov              
         ------------------------------------------------------------

  ==> Geometry <==

    Molecular point group: c1
    Full point group: C1

    Geometry (in Angstrom), charge = 0, multiplicity = 1:

       Center              X                  Y                   Z               Mass       
    ------------   -----------------  -----------------  -----------------  -----------------
           H         -1.641751988320     0.315365705977     0.531805563376     1.007825032070
           H         -1.500751988320     1.943365705977    -0.088194436624     1.007825032070
           H         -1.202751988320     0.579365705977    -1.138194436624     1.007825032070
           C         -1.103751988320     0.950365705977    -0.140194436624    12.000000000000
           H          0.923248011680     1.606365705977    -0.418194436624     1.007825032070
           H          0.485248011680     1.343365705977     1.252805563376     1.007825032070
           C          0.385248011680     0.971365705977     0.254805563376    12.000000000000
           H          1.760248011680    -0.481634294023    -0.526194436624     1.007825032070
           H          1.321248011680    -0.746634294023     1.142805563376     1.007825032070
           C          0.957248011680    -0.456634294023     0.179805563376    12.000000000000
           H          0.249248011680    -2.422634294023    -0.317194436624     1.007825032070
           H         -0.512751988320    -1.141634294023    -1.228194436624     1.007825032070
           H         -0.952751988320    -1.405634294023     0.440805563376     1.007825032070
           C         -0.148751988320    -1.430634294023    -0.265194436624    12.000000000000

  Nuclear repulsion =  136.588151271564413

  ==> Basis Set <==

  Basis Set: CC-PVDZ
    Number of shells: 54
    Number of basis function: 106
    Number of Cartesian functions: 110
    Spherical Harmonics?: true
    Max angular momentum: 2

  ==> DFJKGrad: Density-Fitted SCF Gradients <==

    Gradient:                    1
    J tasked:                  Yes
    K tasked:                  Yes
    wK tasked:                  No
    OpenMP threads:              1
    Integrals threads:           1
    Memory (MB):               715
    Schwarz Cutoff:          0E+00
    Fitting Condition:       1E-12

   => Auxiliary Basis Set <=

  Basis Set: 
    Number of shells: 186
    Number of basis function: 510
    Number of Cartesian functions: 574
    Spherical Harmonics?: true
    Max angular momentum: 3

  ==> DFT Potential <==

   => B3LYP Composite Functional <= 

    B3LYP Hybrid-GGA Exchange-Correlation Functional (VWN1-RPA)

    P.J. Stephens et. al., J. Phys. Chem., 98, 11623-11627, 1994

    Points   =           5000
    Deriv    =              1
    GGA      =           TRUE
    Meta     =          FALSE

    X_LRC        =          FALSE
    X_Hybrid     =           TRUE
    X_Alpha      =   2.000000E-01
    X_Omega      =   0.000000E+00
    C_LRC        =          FALSE
    C_Hybrid     =          FALSE
    C_Alpha      =   0.000000E+00
    C_Omega      =   0.000000E+00

   => Exchange Functionals <=

    0.8000    B3_X
    0.2000      HF 

   => Correlation Functionals <=

    0.1900 VWN3RPA_C
    0.8100   LYP_C

   => Molecular Quadrature <=

    Radial Scheme    =       TREUTLER
    Pruning Scheme   =           FLAT
    Nuclear Scheme   =       TREUTLER

    BS radius alpha  =              1
    Pruning alpha    =              1
    Radial Points    =             75
    Spherical Points =            302
    Total Points     =         312664
    Total Blocks     =            264
    Max Points       =           4988
    Max Functions    =            106


  -Total Gradient:
     Atom            X                  Y                   Z
    ------   -----------------  -----------------  -----------------
       1        0.015053583735     0.006221670438    -0.010156850026
       2        0.011068680096    -0.019631747990    -0.000232867379
       3        0.007752246176     0.002027249828     0.017692713684
       4       -0.023794955624    -0.020884952614    -0.009869262265
       5       -0.010721501472    -0.016625450016     0.010708868586
       6       -0.002906625311    -0.012124800989    -0.019189796175
       7        0.019641808878     0.020735934962     0.008861551164
       8       -0.019240061638     0.003655778294     0.012232654536
       9       -0.011189543630     0.008356014475    -0.018325866167
      10        0.029029524633    -0.002502563278     0.007212510157
      11       -0.005645860785     0.022172372064     0.002022331508
      12        0.007586738237     0.002330583086     0.017800731774
      13        0.014424969313     0.006781729915    -0.009948242715
      14       -0.031070451535    -0.000517904618    -0.008812528324


*** tstop() called on lski1497 at Tue Feb 21 17:43:08 2017
Module time:
	user time   =      41.12 seconds =       0.69 minutes
	system time =       0.53 seconds =       0.01 minutes
	total time  =         45 seconds =       0.75 minutes
Total time:
	user time   =     162.34 seconds =       2.71 minutes
	system time =       1.76 seconds =       0.03 minutes
	total time  =        179 seconds =       2.98 minutes

			-----------------------------------------
			 OPTKING 2.0: for geometry optimizations 
			  - R.A. King,  Bethel University        
			-----------------------------------------

	Internal coordinates to be generated automatically.
	Detected frag 1 with atoms:  1 2 3 4 5 6 7 8 9 10 11 12 13 14
	---Fragment 1 Bond Connectivity---
	 1 : 4
	 2 : 4
	 3 : 4
	 4 : 1 2 3 7
	 5 : 7
	 6 : 7
	 7 : 4 5 6 10
	 8 : 10
	 9 : 10
	 10 : 7 8 9 14
	 11 : 14
	 12 : 14
	 13 : 14
	 14 : 10 11 12 13

	Assuming in current code that numbering for constraints corresponds to unified fragment.
	Fixed dihedral atom list: 
	     4     7    10    14
	---Fragment 1 Geometry and Gradient---
	 H          -3.1024616360        0.5959548160        1.0049668707
	 H          -2.8360102513        3.6724289603       -0.1666633317
	 H          -2.2728718637        1.0948425151       -2.1508757712
	 C          -2.0857889766        1.7959309104       -0.2649290906
	 H           1.7446858948        3.0355912536       -0.7902729555
	 H           0.9169858486        2.5385932806        2.3674594125
	 C           0.7280132353        1.8356151592        0.4815127319
	 H           3.3263866680       -0.9101569119       -0.9943633779
	 H           2.4967968957       -1.4109343371        2.1595895379
	 C           1.8089365833       -0.8629137586        0.3397832720
	 H           0.4710104812       -4.5781153358       -0.5994106161
	 H          -0.9689608320       -2.1573761596       -2.3209511232
	 H          -1.8004403305       -2.6562638587        0.8330017926
	 C          -0.2811005196       -2.7035070120       -0.5011448572
	             0.0150535837        0.0062216704       -0.0101568500
	             0.0110686801       -0.0196317480       -0.0002328674
	             0.0077522462        0.0020272498        0.0176927137
	            -0.0237949556       -0.0208849526       -0.0098692623
	            -0.0107215015       -0.0166254500        0.0107088686
	            -0.0029066253       -0.0121248010       -0.0191897962
	             0.0196418089        0.0207359350        0.0088615512
	            -0.0192400616        0.0036557783        0.0122326545
	            -0.0111895436        0.0083560145       -0.0183258662
	             0.0290295246       -0.0025025633        0.0072125102
	            -0.0056458608        0.0221723721        0.0020223315
	             0.0075867382        0.0023305831        0.0178007318
	             0.0144249693        0.0067817299       -0.0099482427
	            -0.0310704515       -0.0005179046       -0.0088125283

	Previous optimization step data not found.  Starting new optimization.

	---Fragment 1 Intrafragment Coordinates---
	 - Coordinate -           - BOHR/RAD -       - ANG/DEG -
	 R(1,4)           =         2.021436	       1.069698
	 R(2,4)           =         2.023298	       1.070683
	 R(3,4)           =         2.020723	       1.069320
	 R(4,7)           =         2.911397	       1.540645
	 R(5,7)           =         2.022623	       1.070326
	 R(6,7)           =         2.021555	       1.069761
	 R(7,10)          =         2.910419	       1.540128
	 R(8,10)          =         2.021097	       1.069519
	 R(9,10)          =         2.021181	       1.069563
	 R(10,14)         =         2.909158	       1.539460
	 R(11,14)         =         2.022247	       1.070127
	 R(12,14)         =         2.020670	       1.069292
	 R(13,14)         =         2.022516	       1.070270
	 B(1,4,2)         =         1.910870	     109.484805
	 B(1,4,3)         =         1.911121	     109.499161
	 B(1,4,7)         =         1.910399	     109.457783
	 B(2,4,3)         =         1.910042	     109.437340
	 B(2,4,7)         =         1.910564	     109.467262
	 B(3,4,7)         =         1.910803	     109.480971
	 B(4,7,5)         =         1.909937	     109.431343
	 B(4,7,6)         =         1.911630	     109.528316
	 B(4,7,10)        =         1.911154	     109.501062
	 B(5,7,6)         =         1.910605	     109.469614
	 B(5,7,10)        =         1.910047	     109.437654
	 B(6,7,10)        =         1.910425	     109.459295
	 B(7,10,8)        =         1.909926	     109.430678
	 B(7,10,9)        =         1.911287	     109.508677
	 B(7,10,14)       =         1.911212	     109.504376
	 B(8,10,9)        =         1.909734	     109.419706
	 B(8,10,14)       =         1.911130	     109.499680
	 B(9,10,14)       =         1.910510	     109.464178
	 B(10,14,11)      =         1.910647	     109.471985
	 B(10,14,12)      =         1.911227	     109.505266
	 B(10,14,13)      =         1.911594	     109.526246
	 B(11,14,12)      =         1.910687	     109.474289
	 B(11,14,13)      =         1.910382	     109.456851
	 B(12,14,13)      =         1.909262	     109.392649
	 D(1,4,7,5)       =         3.140997	     179.965873
	 D(1,4,7,6)       =        -1.047644	     -60.025575
	 D(1,4,7,10)      =         1.047427	      60.013132
	 D(2,4,7,5)       =        -1.047689	     -60.028143
	 D(2,4,7,6)       =         1.046856	      59.980409
	 D(2,4,7,10)      =        -3.141259	    -179.980883
	 D(3,4,7,5)       =         1.046044	      59.933911
	 D(3,4,7,6)       =         3.140588	     179.942463
	 D(3,4,7,10)      =        -1.047526	     -60.018830
	 D(4,7,10,8)      =         2.095109	     120.040906
	 D(4,7,10,9)      =        -2.094815	    -120.024080
	 D(4,7,10,14)     =         0.000185	       0.010589
	 D(5,7,10,8)      =         0.001606	       0.092031
	 D(5,7,10,9)      =         2.094867	     120.027044
	 D(5,7,10,14)     =        -2.093318	    -119.938287
	 D(6,7,10,8)      =        -2.092269	    -119.878168
	 D(6,7,10,9)      =         0.000992	       0.056845
	 D(6,7,10,14)     =         2.095992	     120.091515
	 D(7,10,14,11)    =         3.141528	     179.996267
	 D(7,10,14,12)    =         1.046695	      59.971179
	 D(7,10,14,13)    =        -1.046973	     -59.987149
	 D(8,10,14,11)    =         1.047340	      60.008175
	 D(8,10,14,12)    =        -1.047493	     -60.016914
	 D(8,10,14,13)    =        -3.141161	    -179.975241
	 D(9,10,14,11)    =        -1.046183	     -59.941843
	 D(9,10,14,12)    =        -3.141016	    -179.966932
	 D(9,10,14,13)    =         1.048502	      60.074741

	Current energy   :      -158.4303691559

	Generating empirical Hessian (Schlegel '84) for each fragment.
	Adding user-defined constraint: Fragment 1; Coordinate 49:
		Value =     0.000185; Fixed value    =     0.000017
		Force =    -0.000084; Force constant =     0.500000
	Removing off-diagonal coupling between coordinate 49 and others.
	Taking RFO optimization step.
	Going to follow RFO solution 1.
	Using RFO vector 1.

	Determining step-restricting scale parameter for RS-RFO.
	Maximum step size allowed    0.10000

	 Iter      |step|        alpha        rfo_root  
	------------------------------------------------
	    0     0.51853       1.00000           1
	    1     0.33822       4.24276           1
	    2     0.22311      13.00998           1
	    3     0.15547      31.01162           1
	    4     0.11925      56.67115           1
	    5     0.10378      77.09484           1
	    6     0.10020      83.26576           1
	    7     0.10000      83.63039           1
	------------------------------------------------
	Norm of target step-size    0.10000
	Projected energy change by RFO approximation:        -0.0142973968

	Back-transformation to cartesian coordinates...
	Could not converge backtransformation.
	Using first guess instead.

	--- Internal Coordinate Step in ANG or DEG, aJ/ANG or AJ/DEG ---
	 ---------------------------------------------------------------------------
	   Coordinate                Previous        Force       Change         New 
	   ----------                --------       ------       ------       ------
	    1 R(1,4)          =      1.069698     0.145378     0.006464     1.076162
	    2 R(2,4)          =      1.070683     0.183911     0.008685     1.079368
	    3 R(3,4)          =      1.069320     0.147755     0.006555     1.075876
	    4 R(4,7)          =      1.540645     0.071244     0.004925     1.545570
	    5 R(5,7)          =      1.070326     0.181134     0.007369     1.077695
	    6 R(6,7)          =      1.069761     0.184465     0.007499     1.077260
	    7 R(7,10)         =      1.540128     0.357824     0.015184     1.555312
	    8 R(8,10)         =      1.069519     0.186240     0.007569     1.077088
	    9 R(9,10)         =      1.069563     0.185975     0.007560     1.077123
	   10 R(10,14)        =      1.539460     0.075898     0.005124     1.544584
	   11 R(11,14)        =      1.070127     0.187446     0.008824     1.078951
	   12 R(12,14)        =      1.069292     0.148169     0.006575     1.075868
	   13 R(13,14)        =      1.070270     0.142040     0.006331     1.076601
	   14 B(1,4,2)        =    109.484805    -0.000448    -0.221957   109.262847
	   15 B(1,4,3)        =    109.499161    -0.000347    -0.272797   109.226364
	   16 B(1,4,7)        =    109.457783     0.000606     0.343581   109.801363
	   17 B(2,4,3)        =    109.437340    -0.000442    -0.218130   109.219211
	   18 B(2,4,7)        =    109.467262     0.000034     0.027703   109.494965
	   19 B(3,4,7)        =    109.480971     0.000597     0.338401   109.819372
	   20 B(4,7,5)        =    109.431343    -0.001608    -0.828080   108.603263
	   21 B(4,7,6)        =    109.528316    -0.001618    -0.833571   108.694745
	   22 B(4,7,10)       =    109.501062     0.005452     2.843057   112.344119
	   23 B(5,7,6)        =    109.469614     0.000679     0.286123   109.755737
	   24 B(5,7,10)       =    109.437654    -0.001453    -0.737213   108.700441
	   25 B(6,7,10)       =    109.459295    -0.001454    -0.737937   108.721358
	   26 B(7,10,8)       =    109.430678    -0.001453    -0.737103   108.693576
	   27 B(7,10,9)       =    109.508677    -0.001463    -0.742795   108.765882
	   28 B(7,10,14)      =    109.504376     0.005456     2.844781   112.349157
	   29 B(8,10,9)       =    109.419706     0.000683     0.288133   109.707839
	   30 B(8,10,14)      =    109.499680    -0.001615    -0.831822   108.667858
	   31 B(9,10,14)      =    109.464178    -0.001613    -0.830724   108.633455
	   32 B(10,14,11)     =    109.471985     0.000039     0.030380   109.502365
	   33 B(10,14,12)     =    109.505266     0.000597     0.339028   109.844294
	   34 B(10,14,13)     =    109.526246     0.000591     0.336022   109.862268
	   35 B(11,14,12)     =    109.474289    -0.000447    -0.221086   109.253203
	   36 B(11,14,13)     =    109.456851    -0.000445    -0.220636   109.236215
	   37 B(12,14,13)     =    109.392649    -0.000337    -0.267498   109.125151
	   38 D(1,4,7,5)      =    179.965873     0.000167     0.364009   180.329882
	   39 D(1,4,7,6)      =    -60.025575    -0.000095    -0.277075   -60.302650
	   40 D(1,4,7,10)     =     60.013132     0.000036     0.044383    60.057516
	   41 D(2,4,7,5)      =    -60.028143     0.000131     0.319852   -59.708291
	   42 D(2,4,7,6)      =     59.980409    -0.000131    -0.321232    59.659177
	   43 D(2,4,7,10)     =   -179.980883     0.000000     0.000226  -179.980657
	   44 D(3,4,7,5)      =     59.933911     0.000095     0.277111    60.211022
	   45 D(3,4,7,6)      =    179.942463    -0.000167    -0.363973   179.578490
	   46 D(3,4,7,10)     =    -60.018830    -0.000035    -0.042515   -60.061344
	   47 D(4,7,10,8)     =    120.040906     0.000109     0.266068   120.306975
	   48 D(4,7,10,9)     =   -120.024080    -0.000108    -0.265697  -120.289778
	   49 D(4,7,10,14)    =      0.010589     0.000000     0.000836     0.011425
	   50 D(5,7,10,8)     =      0.092031    -0.000000    -0.001163     0.090868
	   51 D(5,7,10,9)     =    120.027044    -0.000218    -0.532928   119.494115
	   52 D(5,7,10,14)    =   -119.938287    -0.000109    -0.266395  -120.204682
	   53 D(6,7,10,8)     =   -119.878168     0.000216     0.529918  -119.348250
	   54 D(6,7,10,9)     =      0.056845    -0.000001    -0.001847     0.054998
	   55 D(6,7,10,14)    =    120.091515     0.000108     0.264686   120.356201
	   56 D(7,10,14,11)   =    179.996267     0.000001     0.002384   179.998651
	   57 D(7,10,14,12)   =     59.971179     0.000037     0.046433    60.017612
	   58 D(7,10,14,13)   =    -59.987149    -0.000035    -0.042953   -60.030102
	   59 D(8,10,14,11)   =     60.008175    -0.000131    -0.319952    59.688223
	   60 D(8,10,14,12)   =    -60.016914    -0.000095    -0.275902   -60.292816
	   61 D(8,10,14,13)   =   -179.975241    -0.000167    -0.365289  -180.340530
	   62 D(9,10,14,11)   =    -59.941843     0.000130     0.318282   -59.623561
	   63 D(9,10,14,12)   =   -179.966932     0.000166     0.362332  -179.604600
	   64 D(9,10,14,13)   =     60.074741     0.000094     0.272945    60.347686
	 ---------------------------------------------------------------------------
	 Forces used to impose fixed constraints are not included.
	  Forces zeroed: 49 

  ==> Convergence Check <==

  Measures of convergence in internal coordinates in au.
  Criteria marked as inactive (o), active & met (*), and active & unmet ( ).
  --------------------------------------------------------------------------------------------- ~
   Step     Total Energy     Delta E     MAX Force     RMS Force      MAX Disp      RMS Disp    ~
  --------------------------------------------------------------------------------------------- ~
    Convergence Criteria    1.00e-06 *    3.00e-04 *             o    1.20e-03 *             o  ~
  --------------------------------------------------------------------------------------------- ~
      1    -158.43036916   -1.58e+02      7.17e-02      1.84e-02 o    4.97e-02      1.27e-02 o  ~
  ---------------------------------------------------------------------------------------------

	Writing optimization data to binary file.
	Structure for next step:
	Cartesian Geometry (in Angstrom)
	    H    -1.6995313323   0.4088096115   0.5353748803
	    H    -1.4803081100   2.0455991780  -0.0666492786
	    H    -1.2585693527   0.6738798868  -1.1419634034
	    C    -1.1279524023   1.0276110400  -0.1343315171
	    H     0.9205809523   1.6025468816  -0.4274279782
	    H     0.4788008930   1.3373069649   1.2581661148
	    C     0.3679446342   0.9729058979   0.2504894304
	    H     1.7554806334  -0.4797813697  -0.5352509226
	    H     1.3126085075  -0.7470173210   1.1485624952
	    C     0.9456056567  -0.4691646200   0.1747546908
	    H     0.3351529229  -2.4842319197  -0.3042597030
	    H    -0.4883005296  -1.2478830980  -1.2426256321
	    H    -0.9300554596  -1.5130145084   0.4337096428
	    C    -0.1129848498  -1.5034467399  -0.2672709322
			--------------------------
			 OPTKING Finished Execution 
			--------------------------

    Structure for next step:
    Molecular point group: c1
    Full point group: C1

    Geometry (in Angstrom), charge = 0, multiplicity = 1:

    H           -1.696242095928     0.410050668045     0.536431088609
    H           -1.477018873579     2.046840234592    -0.065593070275
    H           -1.255280116321     0.675120943343    -1.140907195071
    C           -1.124663165899     1.028852096585    -0.133275308831
    H            0.923870188687     1.603787938162    -0.426371769933
    H            0.482090129420     1.338548021446     1.259222323118
    C            0.371233870650     0.974146954484     0.251545638657
    H            1.758769869816    -0.478540313087    -0.534194714284
    H            1.315897743892    -0.745776264458     1.149618703542
    C            0.948894893085    -0.467923563440     0.175810899074
    H            0.338442159319    -2.482990863158    -0.303203494668
    H           -0.485011293157    -1.246642041435    -1.241569423785
    H           -0.926766223206    -1.511773451764     0.434765851138
    C           -0.109695613385    -1.502205683358    -0.266214723853

gradient() will perform analytic gradient computation.

*** tstart() called on lski1497
*** at Tue Feb 21 17:43:08 2017


         ---------------------------------------------------------
                                   SCF
            by Justin Turney, Rob Parrish, and Andy Simmonett
                              RKS Reference
                        1 Threads,   1000 MiB Core
         ---------------------------------------------------------

  ==> Geometry <==

    Molecular point group: c1
    Full point group: C1

    Geometry (in Angstrom), charge = 0, multiplicity = 1:

       Center              X                  Y                   Z               Mass       
    ------------   -----------------  -----------------  -----------------  -----------------
           H         -1.696242095928     0.410050668045     0.536431088609     1.007825032070
           H         -1.477018873579     2.046840234592    -0.065593070275     1.007825032070
           H         -1.255280116321     0.675120943343    -1.140907195071     1.007825032070
           C         -1.124663165899     1.028852096585    -0.133275308831    12.000000000000
           H          0.923870188687     1.603787938162    -0.426371769933     1.007825032070
           H          0.482090129420     1.338548021446     1.259222323118     1.007825032070
           C          0.371233870650     0.974146954484     0.251545638657    12.000000000000
           H          1.758769869816    -0.478540313087    -0.534194714284     1.007825032070
           H          1.315897743892    -0.745776264458     1.149618703542     1.007825032070
           C          0.948894893085    -0.467923563440     0.175810899074    12.000000000000
           H          0.338442159319    -2.482990863158    -0.303203494668     1.007825032070
           H         -0.485011293157    -1.246642041435    -1.241569423785     1.007825032070
           H         -0.926766223206    -1.511773451764     0.434765851138     1.007825032070
           C         -0.109695613385    -1.502205683358    -0.266214723853    12.000000000000

  Running in c1 symmetry.

  Rotational constants: A =      0.38386  B =      0.19395  C =      0.14241 [cm^-1]
  Rotational constants: A =  11507.92414  B =   5814.61453  C =   4269.44722 [MHz]
  Nuclear repulsion =  134.483800254583798

  Charge       = 0
  Multiplicity = 1
  Electrons    = 34
  Nalpha       = 17
  Nbeta        = 17

  ==> Algorithm <==

  SCF Algorithm Type is DF.
  DIIS enabled.
  MOM disabled.
  Fractional occupation disabled.
  Guess Type is READ.
  Energy threshold   = 1.00e-08
  Density threshold  = 1.00e-08
  Integral threshold = 0.00e+00

  ==> Primary Basis <==

  Basis Set: CC-PVDZ
    Number of shells: 54
    Number of basis function: 106
    Number of Cartesian functions: 110
    Spherical Harmonics?: true
    Max angular momentum: 2

  ==> DFT Potential <==

   => B3LYP Composite Functional <= 

    B3LYP Hybrid-GGA Exchange-Correlation Functional (VWN1-RPA)

    P.J. Stephens et. al., J. Phys. Chem., 98, 11623-11627, 1994

    Points   =           5000
    Deriv    =              1
    GGA      =           TRUE
    Meta     =          FALSE

    X_LRC        =          FALSE
    X_Hybrid     =           TRUE
    X_Alpha      =   2.000000E-01
    X_Omega      =   0.000000E+00
    C_LRC        =          FALSE
    C_Hybrid     =          FALSE
    C_Alpha      =   0.000000E+00
    C_Omega      =   0.000000E+00

   => Exchange Functionals <=

    0.8000    B3_X
    0.2000      HF 

   => Correlation Functionals <=

    0.1900 VWN3RPA_C
    0.8100   LYP_C

   => Molecular Quadrature <=

    Radial Scheme    =       TREUTLER
    Pruning Scheme   =           FLAT
    Nuclear Scheme   =       TREUTLER

    BS radius alpha  =              1
    Pruning alpha    =              1
    Radial Points    =             75
    Spherical Points =            302
    Total Points     =         312704
    Total Blocks     =            263
    Max Points       =           4932
    Max Functions    =            106

  ==> Pre-Iterations <==

   -------------------------------------------------------
    Irrep   Nso     Nmo     Nalpha   Nbeta   Ndocc  Nsocc
   -------------------------------------------------------
     A        106     106       0       0       0       0
   -------------------------------------------------------
    Total     106     106      17      17      17       0
   -------------------------------------------------------

  ==> Integral Setup <==

  ==> DFJK: Density-Fitted J/K Matrices <==

    J tasked:                  Yes
    K tasked:                  Yes
    wK tasked:                  No
    OpenMP threads:              1
    Integrals threads:           1
    Memory (MB):               715
    Algorithm:                Core
    Integral Cache:           NONE
    Schwarz Cutoff:          1E-12
    Fitting Condition:       1E-12

   => Auxiliary Basis Set <=

  Basis Set: 
    Number of shells: 186
    Number of basis function: 510
    Number of Cartesian functions: 574
    Spherical Harmonics?: true
    Max angular momentum: 3

  Minimum eigenvalue in the overlap matrix is 2.9860548282E-03.
  Using Symmetric Orthogonalization.
  SCF Guess was Projection but file not found.
  Switching over to SAD guess.

  SCF Guess: Superposition of Atomic Densities via on-the-fly atomic UHF.

  ==> Iterations <==

                           Total Energy        Delta E     RMS |[F,P]|

   @DF-RKS iter   0:  -158.95609193586580   -1.58956e+02   3.29299e-02 
   @DF-RKS iter   1:  -158.25431289530590    7.01779e-01   5.42455e-03 
   @DF-RKS iter   2:  -158.17366644167839    8.06465e-02   6.58262e-03 DIIS
   @DF-RKS iter   3:  -158.44021895140048   -2.66553e-01   3.94959e-04 DIIS
   @DF-RKS iter   4:  -158.44110414542706   -8.85194e-04   1.16524e-04 DIIS
   @DF-RKS iter   5:  -158.44117165671889   -6.75113e-05   4.59276e-05 DIIS
   @DF-RKS iter   6:  -158.44118299979939   -1.13431e-05   7.62101e-06 DIIS
   @DF-RKS iter   7:  -158.44118335958791   -3.59789e-07   9.54755e-07 DIIS
   @DF-RKS iter   8:  -158.44118336555329   -5.96538e-09   1.79738e-07 DIIS
   @DF-RKS iter   9:  -158.44118336570551   -1.52227e-10   8.90945e-08 DIIS
   @DF-RKS iter  10:  -158.44118336574854   -4.30305e-11   1.42793e-08 DIIS
   @DF-RKS iter  11:  -158.44118336574991   -1.36424e-12   1.96408e-09 DIIS

  ==> Post-Iterations <==

    Orbital Energies (a.u.)
    -----------------------

    Doubly Occupied:                                                      

       1A    -10.172043     2A    -10.171860     3A    -10.165562  
       4A    -10.165485     5A     -0.792501     6A     -0.713161  
       7A     -0.647621     8A     -0.557606     9A     -0.472652  
      10A     -0.450675    11A     -0.406352    12A     -0.385721  
      13A     -0.375037    14A     -0.369199    15A     -0.319506  
      16A     -0.318036    17A     -0.312888  

    Virtual:                                                              

      18A      0.056999    19A      0.093675    20A      0.097388  
      21A      0.110017    22A      0.127787    23A      0.130685  
      24A      0.156466    25A      0.179080    26A      0.182305  
      27A      0.185966    28A      0.237863    29A      0.239640  
      30A      0.295861    31A      0.410879    32A      0.420327  
      33A      0.429059    34A      0.434819    35A      0.465814  
      36A      0.504319    37A      0.511043    38A      0.585274  
      39A      0.590794    40A      0.620873    41A      0.648877  
      42A      0.655674    43A      0.663025    44A      0.668003  
      45A      0.668877    46A      0.692582    47A      0.697262  
      48A      0.712945    49A      0.735026    50A      0.748107  
      51A      0.751159    52A      0.857063    53A      0.862588  
      54A      0.871141    55A      0.958183    56A      1.069290  
      57A      1.201560    58A      1.243539    59A      1.251716  
      60A      1.260664    61A      1.273680    62A      1.334129  
      63A      1.382696    64A      1.506757    65A      1.523189  
      66A      1.546889    67A      1.558641    68A      1.583778  
      69A      1.612879    70A      1.640567    71A      1.658249  
      72A      1.678039    73A      1.678460    74A      1.685882  
      75A      1.691810    76A      1.716628    77A      1.719665  
      78A      1.724767    79A      1.747364    80A      1.794805  
      81A      1.815805    82A      1.876338    83A      1.887329  
      84A      1.920421    85A      1.933267    86A      2.003959  
      87A      2.024463    88A      2.104272    89A      2.125009  
      90A      2.196433    91A      2.211777    92A      2.224499  
      93A      2.240741    94A      2.297020    95A      2.368907  
      96A      2.404665    97A      2.471832    98A      2.489627  
      99A      2.492030   100A      2.498315   101A      2.585506  
     102A      2.612991   103A      2.622105   104A      2.631330  
     105A      2.643566   106A      2.774074  

    Final Occupation by Irrep:
              A 
    DOCC [    17 ]

  Energy converged.

  @DF-RKS Final Energy:  -158.44118336574991

   => Energetics <=

    Nuclear Repulsion Energy =            134.4838002545837981
    One-Electron Energy =                -477.4065521956715088
    Two-Electron Energy =                 205.1423950841993360
    DFT Exchange-Correlation Energy =     -20.6608265088615362
    Empirical Dispersion Energy =           0.0000000000000000
    PCM Polarization Energy =               0.0000000000000000
    EFP Energy =                            0.0000000000000000
    Total Energy =                       -158.4411833657499074


  Saving occupied orbitals to File 180.

*** tstop() called on lski1497 at Tue Feb 21 17:45:23 2017
Module time:
	user time   =     110.49 seconds =       1.84 minutes
	system time =       1.06 seconds =       0.02 minutes
	total time  =        135 seconds =       2.25 minutes
Total time:
	user time   =     273.43 seconds =       4.56 minutes
	system time =       2.84 seconds =       0.05 minutes
	total time  =        314 seconds =       5.23 minutes


Properties will be evaluated at   0.000000,   0.000000,   0.000000 Bohr

Properties computed using the SCF density matrix

  Nuclear Dipole Moment: (a.u.)
     X:    -0.9574      Y:    -0.3669      Z:    -0.3111

  Electronic Dipole Moment: (a.u.)
     X:     0.9675      Y:     0.3705      Z:     0.3140

  Dipole Moment: (a.u.)
     X:     0.0101      Y:     0.0036      Z:     0.0030     Total:     0.0112

  Dipole Moment: (Debye)
     X:     0.0258      Y:     0.0092      Z:     0.0076     Total:     0.0284


*** tstart() called on lski1497
*** at Tue Feb 21 17:45:23 2017


         ------------------------------------------------------------
                                   SCF GRAD                          
                          Rob Parrish, Justin Turney,                
                       Andy Simmonett, and Alex Sokolov              
         ------------------------------------------------------------

  ==> Geometry <==

    Molecular point group: c1
    Full point group: C1

    Geometry (in Angstrom), charge = 0, multiplicity = 1:

       Center              X                  Y                   Z               Mass       
    ------------   -----------------  -----------------  -----------------  -----------------
           H         -1.696242095928     0.410050668045     0.536431088609     1.007825032070
           H         -1.477018873579     2.046840234592    -0.065593070275     1.007825032070
           H         -1.255280116321     0.675120943343    -1.140907195071     1.007825032070
           C         -1.124663165899     1.028852096585    -0.133275308831    12.000000000000
           H          0.923870188687     1.603787938162    -0.426371769933     1.007825032070
           H          0.482090129420     1.338548021446     1.259222323118     1.007825032070
           C          0.371233870650     0.974146954484     0.251545638657    12.000000000000
           H          1.758769869816    -0.478540313087    -0.534194714284     1.007825032070
           H          1.315897743892    -0.745776264458     1.149618703542     1.007825032070
           C          0.948894893085    -0.467923563440     0.175810899074    12.000000000000
           H          0.338442159319    -2.482990863158    -0.303203494668     1.007825032070
           H         -0.485011293157    -1.246642041435    -1.241569423785     1.007825032070
           H         -0.926766223206    -1.511773451764     0.434765851138     1.007825032070
           C         -0.109695613385    -1.502205683358    -0.266214723853    12.000000000000

  Nuclear repulsion =  134.483800254583798

  ==> Basis Set <==

  Basis Set: CC-PVDZ
    Number of shells: 54
    Number of basis function: 106
    Number of Cartesian functions: 110
    Spherical Harmonics?: true
    Max angular momentum: 2

  ==> DFJKGrad: Density-Fitted SCF Gradients <==

    Gradient:                    1
    J tasked:                  Yes
    K tasked:                  Yes
    wK tasked:                  No
    OpenMP threads:              1
    Integrals threads:           1
    Memory (MB):               715
    Schwarz Cutoff:          0E+00
    Fitting Condition:       1E-12

   => Auxiliary Basis Set <=

  Basis Set: 
    Number of shells: 186
    Number of basis function: 510
    Number of Cartesian functions: 574
    Spherical Harmonics?: true
    Max angular momentum: 3

  ==> DFT Potential <==

   => B3LYP Composite Functional <= 

    B3LYP Hybrid-GGA Exchange-Correlation Functional (VWN1-RPA)

    P.J. Stephens et. al., J. Phys. Chem., 98, 11623-11627, 1994

    Points   =           5000
    Deriv    =              1
    GGA      =           TRUE
    Meta     =          FALSE

    X_LRC        =          FALSE
    X_Hybrid     =           TRUE
    X_Alpha      =   2.000000E-01
    X_Omega      =   0.000000E+00
    C_LRC        =          FALSE
    C_Hybrid     =          FALSE
    C_Alpha      =   0.000000E+00
    C_Omega      =   0.000000E+00

   => Exchange Functionals <=

    0.8000    B3_X
    0.2000      HF 

   => Correlation Functionals <=

    0.1900 VWN3RPA_C
    0.8100   LYP_C

   => Molecular Quadrature <=

    Radial Scheme    =       TREUTLER
    Pruning Scheme   =           FLAT
    Nuclear Scheme   =       TREUTLER

    BS radius alpha  =              1
    Pruning alpha    =              1
    Radial Points    =             75
    Spherical Points =            302
    Total Points     =         312704
    Total Blocks     =            263
    Max Points       =           4932
    Max Functions    =            106


  -Total Gradient:
     Atom            X                  Y                   Z
    ------   -----------------  -----------------  -----------------
       1        0.012381066388     0.006418857747    -0.008275771369
       2        0.007499735686    -0.013659287644    -0.000225754366
       3        0.006315717131     0.002924157387     0.014838294114
       4       -0.024360684088    -0.009069133020    -0.008082273119
       5       -0.008946495342    -0.013278973937     0.006536028427
       6       -0.003608125626    -0.010219905350    -0.013814588752
       7        0.017376416589     0.020201072816     0.008095585876
       8       -0.015670348040     0.002840213835     0.007727530061
       9       -0.010175375311     0.006011885115    -0.013121972260
      10        0.026909609053    -0.003528410331     0.006498302583
      11       -0.004095525466     0.015295050364     0.001345593813
      12        0.007050604026     0.000948140913     0.014810808922
      13        0.012781359663     0.004611670812    -0.008265590719
      14       -0.023454044328    -0.009494674014    -0.008065070900


*** tstop() called on lski1497 at Tue Feb 21 17:46:04 2017
Module time:
	user time   =      37.64 seconds =       0.63 minutes
	system time =       0.59 seconds =       0.01 minutes
	total time  =         41 seconds =       0.68 minutes
Total time:
	user time   =     311.10 seconds =       5.19 minutes
	system time =       3.43 seconds =       0.06 minutes
	total time  =        355 seconds =       5.92 minutes

			-----------------------------------------
			 OPTKING 2.0: for geometry optimizations 
			  - R.A. King,  Bethel University        
			-----------------------------------------

	Previous internal coordinate definitions found.
	---Fragment 1 Geometry and Gradient---
	 H          -3.2054330164        0.7748834632        1.0137078466
	 H          -2.7911611642        3.8679674811       -0.1239529390
	 H          -2.3721356399        1.2757936895       -2.1560021417
	 C          -2.1253053753        1.9442486938       -0.2518538340
	 H           1.7458616390        3.0307199784       -0.8057258760
	 H           0.9110183160        2.5294891762        2.3795853311
	 C           0.7015303468        1.8408709572        0.4753523670
	 H           3.3235933847       -0.9043101353       -1.0094817116
	 H           2.4866863548       -1.4093128962        2.1724645069
	 C           1.7931514768       -0.8842473860        0.3322344504
	 H           0.6395629929       -4.6921727218       -0.5729715675
	 H          -0.9165385154       -2.3558120441       -2.3462261859
	 H          -1.7513343511       -2.8568377988        0.8215883906
	 C          -0.2072946673       -2.8387573368       -0.5030729206
	             0.0123810664        0.0064188577       -0.0082757714
	             0.0074997357       -0.0136592876       -0.0002257544
	             0.0063157171        0.0029241574        0.0148382941
	            -0.0243606841       -0.0090691330       -0.0080822731
	            -0.0089464953       -0.0132789739        0.0065360284
	            -0.0036081256       -0.0102199054       -0.0138145888
	             0.0173764166        0.0202010728        0.0080955859
	            -0.0156703480        0.0028402138        0.0077275301
	            -0.0101753753        0.0060118851       -0.0131219723
	             0.0269096091       -0.0035284103        0.0064983026
	            -0.0040955255        0.0152950504        0.0013455938
	             0.0070506040        0.0009481409        0.0148108089
	             0.0127813597        0.0046116708       -0.0082655907
	            -0.0234540443       -0.0094946740       -0.0080650709

	---Fragment 1 Intrafragment Coordinates---
	 - Coordinate -           - BOHR/RAD -       - ANG/DEG -
	 R(1,4)           =         2.033651	       1.076162
	 R(2,4)           =         2.039710	       1.079368
	 R(3,4)           =         2.033110	       1.075876
	 R(4,7)           =         2.920705	       1.545570
	 R(5,7)           =         2.036549	       1.077695
	 R(6,7)           =         2.035727	       1.077260
	 R(7,10)          =         2.939114	       1.555312
	 R(8,10)          =         2.035401	       1.077088
	 R(9,10)          =         2.035468	       1.077123
	 R(10,14)         =         2.918841	       1.544584
	 R(11,14)         =         2.038922	       1.078951
	 R(12,14)         =         2.033095	       1.075868
	 R(13,14)         =         2.034481	       1.076601
	 B(1,4,2)         =         1.906996	     109.262847
	 B(1,4,3)         =         1.906360	     109.226364
	 B(1,4,7)         =         1.916395	     109.801363
	 B(2,4,3)         =         1.906235	     109.219211
	 B(2,4,7)         =         1.911048	     109.494965
	 B(3,4,7)         =         1.916710	     109.819372
	 B(4,7,5)         =         1.895485	     108.603263
	 B(4,7,6)         =         1.897081	     108.694745
	 B(4,7,10)        =         1.960775	     112.344119
	 B(5,7,6)         =         1.915599	     109.755737
	 B(5,7,10)        =         1.897181	     108.700441
	 B(6,7,10)        =         1.897546	     108.721358
	 B(7,10,8)        =         1.897061	     108.693576
	 B(7,10,9)        =         1.898323	     108.765882
	 B(7,10,14)       =         1.960863	     112.349157
	 B(8,10,9)        =         1.914763	     109.707839
	 B(8,10,14)       =         1.896612	     108.667858
	 B(9,10,14)       =         1.896011	     108.633455
	 B(10,14,11)      =         1.911177	     109.502365
	 B(10,14,12)      =         1.917145	     109.844294
	 B(10,14,13)      =         1.917458	     109.862268
	 B(11,14,12)      =         1.906828	     109.253203
	 B(11,14,13)      =         1.906532	     109.236215
	 B(12,14,13)      =         1.904593	     109.125151
	 D(1,4,7,5)       =        -3.135835	    -179.670118
	 D(1,4,7,6)       =        -1.052480	     -60.302650
	 D(1,4,7,10)      =         1.048201	      60.057516
	 D(2,4,7,5)       =        -1.042106	     -59.708291
	 D(2,4,7,6)       =         1.041249	      59.659177
	 D(2,4,7,10)      =        -3.141255	    -179.980657
	 D(3,4,7,5)       =         1.050881	      60.211022
	 D(3,4,7,6)       =         3.134236	     179.578490
	 D(3,4,7,10)      =        -1.048268	     -60.061344
	 D(4,7,10,8)      =         2.099753	     120.306975
	 D(4,7,10,9)      =        -2.099453	    -120.289778
	 D(4,7,10,14)     =         0.000199	       0.011425
	 D(5,7,10,8)      =         0.001586	       0.090868
	 D(5,7,10,9)      =         2.085566	     119.494115
	 D(5,7,10,14)     =        -2.097967	    -120.204682
	 D(6,7,10,8)      =        -2.083020	    -119.348250
	 D(6,7,10,9)      =         0.000960	       0.054998
	 D(6,7,10,14)     =         2.100612	     120.356201
	 D(7,10,14,11)    =         3.141569	     179.998651
	 D(7,10,14,12)    =         1.047505	      60.017612
	 D(7,10,14,13)    =        -1.047723	     -60.030102
	 D(8,10,14,11)    =         1.041756	      59.688223
	 D(8,10,14,12)    =        -1.052308	     -60.292816
	 D(8,10,14,13)    =         3.135649	     179.659470
	 D(9,10,14,11)    =        -1.040627	     -59.623561
	 D(9,10,14,12)    =        -3.134692	    -179.604600
	 D(9,10,14,13)    =         1.053266	      60.347686

	Current energy   :      -158.4411833657

	Energy change for the previous step:
		Projected    :        -0.0142973968
		Actual       :        -0.0108142098

	Performing BFGS update.
	Previous computed or guess Hessian on step 1.
	Steps to be used in Hessian update: 1
	Adding user-defined constraint: Fragment 1; Coordinate 49:
		Value =     0.000199; Fixed value    =     0.000020
		Force =    -0.000094; Force constant =     0.525000
	Removing off-diagonal coupling between coordinate 49 and others.
	Taking RFO optimization step.
	Going to follow RFO solution 1.
	Using RFO vector 1.

	Determining step-restricting scale parameter for RS-RFO.
	Maximum step size allowed    0.10000

	 Iter      |step|        alpha        rfo_root  
	------------------------------------------------
	    0     0.21187       1.00000           1
	    1     0.15813       8.36348           1
	    2     0.12279      22.74960           1
	    3     0.10546      37.25826           1
	    4     0.10044      43.19617           1
	    5     0.10000      43.76756           1
	------------------------------------------------
	Norm of target step-size    0.10000
	Projected energy change by RFO approximation:        -0.0068832239

	Back-transformation to cartesian coordinates...
	Successfully converged to displaced geometry.

	--- Internal Coordinate Step in ANG or DEG, aJ/ANG or AJ/DEG ---
	 ---------------------------------------------------------------------------
	   Coordinate                Previous        Force       Change         New 
	   ----------                --------       ------       ------       ------
	    1 R(1,4)          =      1.076162     0.127015     0.013954     1.090115
	    2 R(2,4)          =      1.079368     0.126422     0.012697     1.092065
	    3 R(3,4)          =      1.075876     0.128731     0.014114     1.089990
	    4 R(4,7)          =      1.545570     0.014952    -0.000076     1.545494
	    5 R(5,7)          =      1.077695     0.135589     0.013617     1.091312
	    6 R(6,7)          =      1.077260     0.138005     0.013846     1.091106
	    7 R(7,10)         =      1.555312     0.148182     0.008334     1.563646
	    8 R(8,10)         =      1.077088     0.139274     0.013966     1.091053
	    9 R(9,10)         =      1.077123     0.139080     0.013948     1.091071
	   10 R(10,14)        =      1.544584     0.018676     0.000353     1.544937
	   11 R(11,14)        =      1.078951     0.128942     0.012936     1.091887
	   12 R(12,14)        =      1.075868     0.129029     0.014145     1.090012
	   13 R(13,14)        =      1.076601     0.124593     0.013724     1.090325
	   14 B(1,4,2)        =    109.262847    -0.000322    -0.463044   108.799803
	   15 B(1,4,3)        =    109.226364    -0.000303    -0.548510   108.677854
	   16 B(1,4,7)        =    109.801363     0.000420     0.613188   110.414551
	   17 B(2,4,3)        =    109.219211    -0.000316    -0.449140   108.770070
	   18 B(2,4,7)        =    109.494965     0.000100     0.226291   109.721256
	   19 B(3,4,7)        =    109.819372     0.000412     0.596057   110.415429
	   20 B(4,7,5)        =    108.603263    -0.000655    -0.395196   108.208066
	   21 B(4,7,6)        =    108.694745    -0.000662    -0.407143   108.287602
	   22 B(4,7,10)       =    112.344119     0.002259     1.421948   113.766067
	   23 B(5,7,6)        =    109.755737     0.000129    -0.199798   109.555939
	   24 B(5,7,10)       =    108.700441    -0.000543    -0.223956   108.476485
	   25 B(6,7,10)       =    108.721358    -0.000542    -0.225289   108.496069
	   26 B(7,10,8)       =    108.693576    -0.000542    -0.219461   108.474115
	   27 B(7,10,9)       =    108.765882    -0.000551    -0.243019   108.522864
	   28 B(7,10,14)      =    112.349157     0.002263     1.427460   113.776618
	   29 B(8,10,9)       =    109.707839     0.000132    -0.193737   109.514102
	   30 B(8,10,14)      =    108.667858    -0.000661    -0.406237   108.261621
	   31 B(9,10,14)      =    108.633455    -0.000658    -0.395247   108.238207
	   32 B(10,14,11)     =    109.502365     0.000104     0.232585   109.734950
	   33 B(10,14,12)     =    109.844294     0.000412     0.595398   110.439693
	   34 B(10,14,13)     =    109.862268     0.000406     0.589812   110.452080
	   35 B(11,14,12)     =    109.253203    -0.000320    -0.456480   108.796723
	   36 B(11,14,13)     =    109.236215    -0.000318    -0.456861   108.779354
	   37 B(12,14,13)     =    109.125151    -0.000293    -0.530549   108.594602
	   38 D(1,4,7,5)      =   -179.670118     0.000086     0.393679  -179.276439
	   39 D(1,4,7,6)      =    -60.302650    -0.000053    -0.300015   -60.602665
	   40 D(1,4,7,10)     =     60.057516     0.000017     0.043485    60.101001
	   41 D(2,4,7,5)      =    -59.708291     0.000069     0.346032   -59.362259
	   42 D(2,4,7,6)      =     59.659177    -0.000070    -0.347661    59.311516
	   43 D(2,4,7,10)     =   -179.980657    -0.000000    -0.004161  -179.984818
	   44 D(3,4,7,5)      =     60.211022     0.000053     0.304646    60.515668
	   45 D(3,4,7,6)      =    179.578490    -0.000086    -0.389048   179.189442
	   46 D(3,4,7,10)     =    -60.061344    -0.000017    -0.045547   -60.106892
	   47 D(4,7,10,8)     =    120.306975     0.000055     0.252016   120.558991
	   48 D(4,7,10,9)     =   -120.289778    -0.000054    -0.245915  -120.535693
	   49 D(4,7,10,14)    =      0.011425     0.000000     0.002630     0.014055
	   50 D(5,7,10,8)     =      0.090868    -0.000000    -0.003644     0.087224
	   51 D(5,7,10,9)     =    119.494115    -0.000109    -0.501576   118.992540
	   52 D(5,7,10,14)    =   -120.204682    -0.000055    -0.253030  -120.457712
	   53 D(6,7,10,8)     =   -119.348250     0.000109     0.493912  -118.854337
	   54 D(6,7,10,9)     =      0.054998    -0.000001    -0.004019     0.050979
	   55 D(6,7,10,14)    =    120.356201     0.000054     0.244526   120.600727
	   56 D(7,10,14,11)   =    179.998651     0.000001     0.008588   180.007239
	   57 D(7,10,14,12)   =     60.017612     0.000018     0.054757    60.072369
	   58 D(7,10,14,13)   =    -60.030102    -0.000017    -0.041516   -60.071618
	   59 D(8,10,14,11)   =     59.688223    -0.000069    -0.345200    59.343023
	   60 D(8,10,14,12)   =    -60.292816    -0.000052    -0.299031   -60.591847
	   61 D(8,10,14,13)   =    179.659470    -0.000087    -0.395304   179.264166
	   62 D(9,10,14,11)   =    -59.623561     0.000069     0.340295   -59.283266
	   63 D(9,10,14,12)   =   -179.604600     0.000086     0.386464  -179.218136
	   64 D(9,10,14,13)   =     60.347686     0.000051     0.290191    60.637877
	 ---------------------------------------------------------------------------
	 Forces used to impose fixed constraints are not included.
	  Forces zeroed: 49 

  ==> Convergence Check <==

  Measures of convergence in internal coordinates in au.
  Criteria marked as inactive (o), active & met (*), and active & unmet ( ).
  ---------------------------------------------------------------------------------------------
   Step     Total Energy     Delta E     MAX Force     RMS Force      MAX Disp      RMS Disp   
  ---------------------------------------------------------------------------------------------
    Convergence Criteria    1.00e-06 *    3.00e-04 *             o    1.20e-03 *             o
  ---------------------------------------------------------------------------------------------
      2    -158.44118337   -1.08e-02      2.97e-02      9.44e-03 o    2.67e-02      1.25e-02 o  ~
  ---------------------------------------------------------------------------------------------

	Writing optimization data to binary file.
	Structure for next step:
	Cartesian Geometry (in Angstrom)
	    H    -1.7203226189   0.4580763877   0.5788271838
	    H    -1.4724041607   2.1021981589  -0.0405670834
	    H    -1.3177546600   0.7090628706  -1.1277538045
	    C    -1.1372081231   1.0654174561  -0.1136077100
	    H     0.9142315735   1.6074793323  -0.4759704714
	    H     0.5104226824   1.3558349315   1.2422352735
	    C     0.3674327766   0.9784457378   0.2285078903
	    H     1.7527543019  -0.4832552394  -0.5844474566
	    H     1.3476213901  -0.7366288514   1.1324666959
	    C     0.9481998129  -0.4713497679   0.1524023911
	    H     0.3806650556  -2.5223251037  -0.2831191942
	    H    -0.5064658871  -1.3156534630  -1.2340444850
	    H    -0.9095316064  -1.5666825887   0.4716497758
	    C    -0.0931190633  -1.5391251848  -0.2505142018
			--------------------------
			 OPTKING Finished Execution 
			--------------------------

    Structure for next step:
    Molecular point group: c1
    Full point group: C1

    Geometry (in Angstrom), charge = 0, multiplicity = 1:

    H           -1.720234689929     0.457978265734     0.580923886141
    H           -1.472316231789     2.102100036997    -0.038470381063
    H           -1.317666731048     0.708964748632    -1.125657102181
    C           -1.137120194167     1.065319334196    -0.111511007706
    H            0.914319502436     1.607381210360    -0.473873769082
    H            0.510510611370     1.355736809621     1.244331975838
    C            0.367520705538     0.978347615930     0.230604592616
    H            1.752842230890    -0.483353361330    -0.582350754298
    H            1.347709319020    -0.736726973290     1.134563398281
    C            0.948287741852    -0.471447889865     0.154499093482
    H            0.380752984515    -2.522423225628    -0.281022491894
    H           -0.506377958144    -1.315751584943    -1.231947782643
    H           -0.909443677436    -1.566780710581     0.473746478162
    C           -0.093031134336    -1.539223306743    -0.248417499451

gradient() will perform analytic gradient computation.

*** tstart() called on lski1497
*** at Tue Feb 21 17:46:05 2017


         ---------------------------------------------------------
                                   SCF
            by Justin Turney, Rob Parrish, and Andy Simmonett
                              RKS Reference
                        1 Threads,   1000 MiB Core
         ---------------------------------------------------------

  ==> Geometry <==

    Molecular point group: c1
    Full point group: C1

    Geometry (in Angstrom), charge = 0, multiplicity = 1:

       Center              X                  Y                   Z               Mass       
    ------------   -----------------  -----------------  -----------------  -----------------
           H         -1.720234689929     0.457978265734     0.580923886141     1.007825032070
           H         -1.472316231789     2.102100036997    -0.038470381063     1.007825032070
           H         -1.317666731048     0.708964748632    -1.125657102181     1.007825032070
           C         -1.137120194167     1.065319334196    -0.111511007706    12.000000000000
           H          0.914319502436     1.607381210360    -0.473873769082     1.007825032070
           H          0.510510611370     1.355736809621     1.244331975838     1.007825032070
           C          0.367520705538     0.978347615930     0.230604592616    12.000000000000
           H          1.752842230890    -0.483353361330    -0.582350754298     1.007825032070
           H          1.347709319020    -0.736726973290     1.134563398281     1.007825032070
           C          0.948287741852    -0.471447889865     0.154499093482    12.000000000000
           H          0.380752984515    -2.522423225628    -0.281022491894     1.007825032070
           H         -0.506377958144    -1.315751584943    -1.231947782643     1.007825032070
           H         -0.909443677436    -1.566780710581     0.473746478162     1.007825032070
           C         -0.093031134336    -1.539223306743    -0.248417499451    12.000000000000

  Running in c1 symmetry.

  Rotational constants: A =      0.38610  B =      0.18554  C =      0.13841 [cm^-1]
  Rotational constants: A =  11575.06420  B =   5562.21515  C =   4149.44289 [MHz]
  Nuclear repulsion =  133.099568478998009

  Charge       = 0
  Multiplicity = 1
  Electrons    = 34
  Nalpha       = 17
  Nbeta        = 17

  ==> Algorithm <==

  SCF Algorithm Type is DF.
  DIIS enabled.
  MOM disabled.
  Fractional occupation disabled.
  Guess Type is READ.
  Energy threshold   = 1.00e-08
  Density threshold  = 1.00e-08
  Integral threshold = 0.00e+00

  ==> Primary Basis <==

  Basis Set: CC-PVDZ
    Number of shells: 54
    Number of basis function: 106
    Number of Cartesian functions: 110
    Spherical Harmonics?: true
    Max angular momentum: 2

  ==> DFT Potential <==

   => B3LYP Composite Functional <= 

    B3LYP Hybrid-GGA Exchange-Correlation Functional (VWN1-RPA)

    P.J. Stephens et. al., J. Phys. Chem., 98, 11623-11627, 1994

    Points   =           5000
    Deriv    =              1
    GGA      =           TRUE
    Meta     =          FALSE

    X_LRC        =          FALSE
    X_Hybrid     =           TRUE
    X_Alpha      =   2.000000E-01
    X_Omega      =   0.000000E+00
    C_LRC        =          FALSE
    C_Hybrid     =          FALSE
    C_Alpha      =   0.000000E+00
    C_Omega      =   0.000000E+00

   => Exchange Functionals <=

    0.8000    B3_X
    0.2000      HF 

   => Correlation Functionals <=

    0.1900 VWN3RPA_C
    0.8100   LYP_C

   => Molecular Quadrature <=

    Radial Scheme    =       TREUTLER
    Pruning Scheme   =           FLAT
    Nuclear Scheme   =       TREUTLER

    BS radius alpha  =              1
    Pruning alpha    =              1
    Radial Points    =             75
    Spherical Points =            302
    Total Points     =         312723
    Total Blocks     =            264
    Max Points       =           4931
    Max Functions    =            106

  ==> Pre-Iterations <==

   -------------------------------------------------------
    Irrep   Nso     Nmo     Nalpha   Nbeta   Ndocc  Nsocc
   -------------------------------------------------------
     A        106     106       0       0       0       0
   -------------------------------------------------------
    Total     106     106      17      17      17       0
   -------------------------------------------------------

  ==> Integral Setup <==

  ==> DFJK: Density-Fitted J/K Matrices <==

    J tasked:                  Yes
    K tasked:                  Yes
    wK tasked:                  No
    OpenMP threads:              1
    Integrals threads:           1
    Memory (MB):               715
    Algorithm:                Core
    Integral Cache:           NONE
    Schwarz Cutoff:          1E-12
    Fitting Condition:       1E-12

   => Auxiliary Basis Set <=

  Basis Set: 
    Number of shells: 186
    Number of basis function: 510
    Number of Cartesian functions: 574
    Spherical Harmonics?: true
    Max angular momentum: 3

  Minimum eigenvalue in the overlap matrix is 3.1334395981E-03.
  Using Symmetric Orthogonalization.
  SCF Guess was Projection but file not found.
  Switching over to SAD guess.

  SCF Guess: Superposition of Atomic Densities via on-the-fly atomic UHF.

  ==> Iterations <==

                           Total Energy        Delta E     RMS |[F,P]|

   @DF-RKS iter   0:  -158.87907403281287   -1.58879e+02   3.21205e-02 
   @DF-RKS iter   1:  -158.26229755084626    6.16776e-01   5.36808e-03 
   @DF-RKS iter   2:  -158.17641631238564    8.58812e-02   6.58299e-03 DIIS
   @DF-RKS iter   3:  -158.44554692599024   -2.69131e-01   3.86253e-04 DIIS
   @DF-RKS iter   4:  -158.44640511670153   -8.58191e-04   1.17230e-04 DIIS
   @DF-RKS iter   5:  -158.44647443817610   -6.93215e-05   4.61099e-05 DIIS
   @DF-RKS iter   6:  -158.44648591187166   -1.14737e-05   7.75582e-06 DIIS
   @DF-RKS iter   7:  -158.44648628520684   -3.73335e-07   9.57156e-07 DIIS
   @DF-RKS iter   8:  -158.44648629120391   -5.99707e-09   1.90812e-07 DIIS
   @DF-RKS iter   9:  -158.44648629136955   -1.65642e-10   9.81124e-08 DIIS
   @DF-RKS iter  10:  -158.44648629142253   -5.29781e-11   1.39610e-08 DIIS
   @DF-RKS iter  11:  -158.44648629142313   -5.96856e-13   2.55538e-09 DIIS

  ==> Post-Iterations <==

    Orbital Energies (a.u.)
    -----------------------

    Doubly Occupied:                                                      

       1A    -10.176621     2A    -10.176479     3A    -10.170754  
       4A    -10.170707     5A     -0.788253     6A     -0.712758  
       7A     -0.643136     8A     -0.555327     9A     -0.468298  
      10A     -0.446496    11A     -0.405317    12A     -0.384843  
      13A     -0.370471    14A     -0.370017    15A     -0.319583  
      16A     -0.318750    17A     -0.311364  

    Virtual:                                                              

      18A      0.054401    19A      0.091712    20A      0.094826  
      21A      0.107700    22A      0.124635    23A      0.129337  
      24A      0.153186    25A      0.174143    26A      0.174882  
      27A      0.185844    28A      0.229213    29A      0.236080  
      30A      0.295148    31A      0.408437    32A      0.416408  
      33A      0.424695    34A      0.435205    35A      0.468920  
      36A      0.505072    37A      0.511620    38A      0.583494  
      39A      0.585704    40A      0.610704    41A      0.645998  
      42A      0.649125    43A      0.657734    44A      0.658422  
      45A      0.660848    46A      0.681355    47A      0.690239  
      48A      0.703653    49A      0.724838    50A      0.733788  
      51A      0.744077    52A      0.856040    53A      0.859894  
      54A      0.863156    55A      0.956973    56A      1.069915  
      57A      1.203185    58A      1.236644    59A      1.250880  
      60A      1.252562    61A      1.258877    62A      1.307528  
      63A      1.392323    64A      1.477933    65A      1.513909  
      66A      1.538352    67A      1.542985    68A      1.572316  
      69A      1.607184    70A      1.627598    71A      1.651722  
      72A      1.664411    73A      1.664564    74A      1.682411  
      75A      1.683966    76A      1.702633    77A      1.712425  
      78A      1.724972    79A      1.743810    80A      1.780743  
      81A      1.802919    82A      1.850971    83A      1.862753  
      84A      1.906402    85A      1.918602    86A      2.000470  
      87A      2.028812    88A      2.088856    89A      2.105962  
      90A      2.175965    91A      2.191775    92A      2.197098  
      93A      2.226400    94A      2.270304    95A      2.337209  
      96A      2.362647    97A      2.445365    98A      2.453683  
      99A      2.456946   100A      2.470914   101A      2.556165  
     102A      2.589151   103A      2.596346   104A      2.600678  
     105A      2.612645   106A      2.746480  

    Final Occupation by Irrep:
              A 
    DOCC [    17 ]

  Energy converged.

  @DF-RKS Final Energy:  -158.44648629142313

   => Energetics <=

    Nuclear Repulsion Energy =            133.0995684789980089
    One-Electron Energy =                -474.6938185093522975
    Two-Electron Energy =                 203.7627896211306506
    DFT Exchange-Correlation Energy =     -20.6150258821995038
    Empirical Dispersion Energy =           0.0000000000000000
    PCM Polarization Energy =               0.0000000000000000
    EFP Energy =                            0.0000000000000000
    Total Energy =                       -158.4464862914231276


  Saving occupied orbitals to File 180.

*** tstop() called on lski1497 at Tue Feb 21 17:48:10 2017
Module time:
	user time   =     117.14 seconds =       1.95 minutes
	system time =       1.19 seconds =       0.02 minutes
	total time  =        125 seconds =       2.08 minutes
Total time:
	user time   =     428.84 seconds =       7.15 minutes
	system time =       4.67 seconds =       0.08 minutes
	total time  =        481 seconds =       8.02 minutes


Properties will be evaluated at   0.000000,   0.000000,   0.000000 Bohr

Properties computed using the SCF density matrix

  Nuclear Dipole Moment: (a.u.)
     X:    -0.9561      Y:    -0.3683      Z:    -0.2810

  Electronic Dipole Moment: (a.u.)
     X:     0.9669      Y:     0.3724      Z:     0.2840

  Dipole Moment: (a.u.)
     X:     0.0107      Y:     0.0041      Z:     0.0030     Total:     0.0119

  Dipole Moment: (Debye)
     X:     0.0273      Y:     0.0104      Z:     0.0075     Total:     0.0302


*** tstart() called on lski1497
*** at Tue Feb 21 17:48:10 2017


         ------------------------------------------------------------
                                   SCF GRAD                          
                          Rob Parrish, Justin Turney,                
                       Andy Simmonett, and Alex Sokolov              
         ------------------------------------------------------------

  ==> Geometry <==

    Molecular point group: c1
    Full point group: C1

    Geometry (in Angstrom), charge = 0, multiplicity = 1:

       Center              X                  Y                   Z               Mass       
    ------------   -----------------  -----------------  -----------------  -----------------
           H         -1.720234689929     0.457978265734     0.580923886141     1.007825032070
           H         -1.472316231789     2.102100036997    -0.038470381063     1.007825032070
           H         -1.317666731048     0.708964748632    -1.125657102181     1.007825032070
           C         -1.137120194167     1.065319334196    -0.111511007706    12.000000000000
           H          0.914319502436     1.607381210360    -0.473873769082     1.007825032070
           H          0.510510611370     1.355736809621     1.244331975838     1.007825032070
           C          0.367520705538     0.978347615930     0.230604592616    12.000000000000
           H          1.752842230890    -0.483353361330    -0.582350754298     1.007825032070
           H          1.347709319020    -0.736726973290     1.134563398281     1.007825032070
           C          0.948287741852    -0.471447889865     0.154499093482    12.000000000000
           H          0.380752984515    -2.522423225628    -0.281022491894     1.007825032070
           H         -0.506377958144    -1.315751584943    -1.231947782643     1.007825032070
           H         -0.909443677436    -1.566780710581     0.473746478162     1.007825032070
           C         -0.093031134336    -1.539223306743    -0.248417499451    12.000000000000

  Nuclear repulsion =  133.099568478998009

  ==> Basis Set <==

  Basis Set: CC-PVDZ
    Number of shells: 54
    Number of basis function: 106
    Number of Cartesian functions: 110
    Spherical Harmonics?: true
    Max angular momentum: 2

  ==> DFJKGrad: Density-Fitted SCF Gradients <==

    Gradient:                    1
    J tasked:                  Yes
    K tasked:                  Yes
    wK tasked:                  No
    OpenMP threads:              1
    Integrals threads:           1
    Memory (MB):               715
    Schwarz Cutoff:          0E+00
    Fitting Condition:       1E-12

   => Auxiliary Basis Set <=

  Basis Set: 
    Number of shells: 186
    Number of basis function: 510
    Number of Cartesian functions: 574
    Spherical Harmonics?: true
    Max angular momentum: 3

  ==> DFT Potential <==

   => B3LYP Composite Functional <= 

    B3LYP Hybrid-GGA Exchange-Correlation Functional (VWN1-RPA)

    P.J. Stephens et. al., J. Phys. Chem., 98, 11623-11627, 1994

    Points   =           5000
    Deriv    =              1
    GGA      =           TRUE
    Meta     =          FALSE

    X_LRC        =          FALSE
    X_Hybrid     =           TRUE
    X_Alpha      =   2.000000E-01
    X_Omega      =   0.000000E+00
    C_LRC        =          FALSE
    C_Hybrid     =          FALSE
    C_Alpha      =   0.000000E+00
    C_Omega      =   0.000000E+00

   => Exchange Functionals <=

    0.8000    B3_X
    0.2000      HF 

   => Correlation Functionals <=

    0.1900 VWN3RPA_C
    0.8100   LYP_C

   => Molecular Quadrature <=

    Radial Scheme    =       TREUTLER
    Pruning Scheme   =           FLAT
    Nuclear Scheme   =       TREUTLER

    BS radius alpha  =              1
[...]

  ==> Basis Set <==

  Basis Set: CC-PVDZ
    Number of shells: 54
    Number of basis function: 106
    Number of Cartesian functions: 110
    Spherical Harmonics?: true
    Max angular momentum: 2

  ==> DFJKGrad: Density-Fitted SCF Gradients <==

    Gradient:                    1
    J tasked:                  Yes
    K tasked:                  Yes
    wK tasked:                  No
    OpenMP threads:              1
    Integrals threads:           1
    Memory (MB):               715
    Schwarz Cutoff:          0E+00
    Fitting Condition:       1E-12

   => Auxiliary Basis Set <=

  Basis Set: 
    Number of shells: 186
    Number of basis function: 510
    Number of Cartesian functions: 574
    Spherical Harmonics?: true
    Max angular momentum: 3

  ==> DFT Potential <==

   => B3LYP Composite Functional <= 

    B3LYP Hybrid-GGA Exchange-Correlation Functional (VWN1-RPA)

    P.J. Stephens et. al., J. Phys. Chem., 98, 11623-11627, 1994

    Points   =           5000
    Deriv    =              1
    GGA      =           TRUE
    Meta     =          FALSE

    X_LRC        =          FALSE
    X_Hybrid     =           TRUE
    X_Alpha      =   2.000000E-01
    X_Omega      =   0.000000E+00
    C_LRC        =          FALSE
    C_Hybrid     =          FALSE
    C_Alpha      =   0.000000E+00
    C_Omega      =   0.000000E+00

   => Exchange Functionals <=

    0.8000    B3_X
    0.2000      HF 

   => Correlation Functionals <=

    0.1900 VWN3RPA_C
    0.8100   LYP_C

   => Molecular Quadrature <=

    Radial Scheme    =       TREUTLER
    Pruning Scheme   =           FLAT
    Nuclear Scheme   =       TREUTLER

    BS radius alpha  =              1
    Pruning alpha    =              1
    Radial Points    =             75
    Spherical Points =            302
    Total Points     =         312760
    Total Blocks     =            266
    Max Points       =           4934
    Max Functions    =            106


  -Total Gradient:
     Atom            X                  Y                   Z
    ------   -----------------  -----------------  -----------------
       1       -0.000052376875    -0.000020925606     0.000007958150
       2       -0.000045345451     0.000011769489    -0.000007638825
       3       -0.000040693169    -0.000014474366    -0.000033015721
       4        0.000290688086    -0.000078083527     0.000048068071
       5       -0.000005765477    -0.000014169131     0.000016095549
       6        0.000006317362    -0.000009613749    -0.000023541468
       7       -0.000122359602     0.000114604631     0.000001654141
       8       -0.000011402062     0.000007228530     0.000021172231
       9       -0.000005501761     0.000009981322    -0.000019756309
      10       -0.000004015133    -0.000162142548    -0.000036939198
      11       -0.000024638701    -0.000037851074    -0.000010811723
      12       -0.000040112176    -0.000014934131    -0.000033374575
      13       -0.000050032799    -0.000019704787     0.000008062347
      14        0.000152496077     0.000246574743     0.000075015060


*** tstop() called on lski1497 at Tue Feb 21 18:00:22 2017
Module time:
	user time   =      42.10 seconds =       0.70 minutes
	system time =       0.64 seconds =       0.01 minutes
	total time  =         47 seconds =       0.78 minutes
Total time:
	user time   =    1103.34 seconds =      18.39 minutes
	system time =      12.77 seconds =       0.21 minutes
	total time  =       1213 seconds =      20.22 minutes

			-----------------------------------------
			 OPTKING 2.0: for geometry optimizations 
			  - R.A. King,  Bethel University        
			-----------------------------------------

	Previous internal coordinate definitions found.
	---Fragment 1 Geometry and Gradient---
	 H          -3.3605591816        1.0620130922        1.1451022547
	 H          -2.7205053303        4.1426993107       -0.0173422359
	 H          -2.6458247214        1.5177246431       -2.1043427491
	 C          -2.1651997170        2.1410739556       -0.1759276715
	 H           1.7264969421        3.0589663853       -0.9041767019
	 H           1.0213304924        2.6093794930        2.3031640453
	 C           0.6576743948        1.8331281840        0.4017090726
	 H           3.3251988556       -0.9296247879       -1.1115349520
	 H           2.6193589401       -1.3794321359        2.0956256637
	 C           1.7534730479       -0.9013068733        0.2593167474
	 H           0.8841966020       -4.8523790450       -0.4857944147
	 H          -0.9448880410       -2.7261240673       -2.3256570704
	 H          -1.6600396892       -3.1815336433        0.9237503630
	 C          -0.0985335672       -3.0159270530       -0.4446838778
	            -0.0000523769       -0.0000209256        0.0000079582
	            -0.0000453455        0.0000117695       -0.0000076388
	            -0.0000406932       -0.0000144744       -0.0000330157
	             0.0002906881       -0.0000780835        0.0000480681
	            -0.0000057655       -0.0000141691        0.0000160955
	             0.0000063174       -0.0000096137       -0.0000235415
	            -0.0001223596        0.0001146046        0.0000016541
	            -0.0000114021        0.0000072285        0.0000211722
	            -0.0000055018        0.0000099813       -0.0000197563
	            -0.0000040151       -0.0001621425       -0.0000369392
	            -0.0000246387       -0.0000378511       -0.0000108117
	            -0.0000401122       -0.0000149341       -0.0000333746
	            -0.0000500328       -0.0000197048        0.0000080623
	             0.0001524961        0.0002465747        0.0000750151

	---Fragment 1 Intrafragment Coordinates---
	 - Coordinate -           - BOHR/RAD -       - ANG/DEG -
	 R(1,4)           =         2.082877	       1.102211
	 R(2,4)           =         2.083271	       1.102419
	 R(3,4)           =         2.082870	       1.102208
	 R(4,7)           =         2.897777	       1.533438
	 R(5,7)           =         2.085761	       1.103737
	 R(6,7)           =         2.085748	       1.103730
	 R(7,10)          =         2.949269	       1.560686
	 R(8,10)          =         2.085751	       1.103732
	 R(9,10)          =         2.085759	       1.103736
	 R(10,14)         =         2.897786	       1.533442
	 R(11,14)         =         2.083268	       1.102418
	 R(12,14)         =         2.082873	       1.102209
	 R(13,14)         =         2.082868	       1.102206
	 B(1,4,2)         =         1.871826	     107.247751
	 B(1,4,3)         =         1.875207	     107.441456
	 B(1,4,7)         =         1.957981	     112.184036
	 B(2,4,3)         =         1.871839	     107.248455
	 B(2,4,7)         =         1.924735	     110.279204
	 B(3,4,7)         =         1.957933	     112.181319
	 B(4,7,5)         =         1.888021	     108.175632
	 B(4,7,6)         =         1.888115	     108.181042
	 B(4,7,10)        =         2.038513	     116.798220
	 B(5,7,6)         =         1.836615	     105.230307
	 B(5,7,10)        =         1.901049	     108.922099
	 B(6,7,10)        =         1.901061	     108.922766
	 B(7,10,8)        =         1.901071	     108.923319
	 B(7,10,9)        =         1.901041	     108.921622
	 B(7,10,14)       =         2.038512	     116.798141
	 B(8,10,9)        =         1.836613	     105.230179
	 B(8,10,14)       =         1.888118	     108.181173
	 B(9,10,14)       =         1.888021	     108.175623
	 B(10,14,11)      =         1.924730	     110.278893
	 B(10,14,12)      =         1.957954	     112.182524
	 B(10,14,13)      =         1.957937	     112.181549
	 B(11,14,12)      =         1.871835	     107.248221
	 B(11,14,13)      =         1.871847	     107.248933
	 B(12,14,13)      =         1.875220	     107.442217
	 D(1,4,7,5)       =        -3.075833	    -176.232266
	 D(1,4,7,6)       =        -1.094777	     -62.726094
	 D(1,4,7,10)      =         1.056334	      60.523481
	 D(2,4,7,5)       =        -0.990610	     -56.757752
	 D(2,4,7,6)       =         0.990447	      56.748421
	 D(2,4,7,10)      =         3.141558	     179.997996
	 D(3,4,7,5)       =         1.094598	      62.715874
	 D(3,4,7,6)       =         3.075655	     176.222046
	 D(3,4,7,10)      =        -1.056420	     -60.528379
	 D(4,7,10,8)      =         2.144529	     122.872449
	 D(4,7,10,9)      =        -2.144208	    -122.854093
	 D(4,7,10,14)     =         0.000083	       0.004762
	 D(5,7,10,8)      =         0.000229	       0.013131
	 D(5,7,10,9)      =         1.994677	     114.286589
	 D(5,7,10,14)     =        -2.144216	    -122.854555
	 D(6,7,10,8)      =        -1.994221	    -114.260437
	 D(6,7,10,9)      =         0.000227	       0.013020
	 D(6,7,10,14)     =         2.144519	     122.871876
	 D(7,10,14,11)    =        -3.141481	    -179.993599
	 D(7,10,14,12)    =         1.056491	      60.532493
	 D(7,10,14,13)    =        -1.056263	     -60.519430
	 D(8,10,14,11)    =         0.990580	      56.756038
	 D(8,10,14,12)    =        -1.094633	     -62.717870
	 D(8,10,14,13)    =         3.075797	     176.230207
	 D(9,10,14,11)    =        -0.990475	     -56.750046
	 D(9,10,14,12)    =        -3.075688	    -176.223954
	 D(9,10,14,13)    =         1.094742	      62.724123

	Current energy   :      -158.4497345553

	Energy change for the previous step:
		Projected    :        -0.0000080023
		Actual       :        -0.0000034875

	Performing BFGS update.
	Previous computed or guess Hessian on step 1.
	Steps to be used in Hessian update: 6 5
	Adding user-defined constraint: Fragment 1; Coordinate 49:
		Value =     0.000083; Fixed value    =     0.000020
		Force =    -0.000041; Force constant =     0.650000
	Removing off-diagonal coupling between coordinate 49 and others.
	Taking RFO optimization step.
	Going to follow RFO solution 1.
	Using RFO vector 1.
	Norm of target step-size    0.00184
	Projected energy change by RFO approximation:        -0.0000008178

	Back-transformation to cartesian coordinates...
	Successfully converged to displaced geometry.

	--- Internal Coordinate Step in ANG or DEG, aJ/ANG or AJ/DEG ---
	 ---------------------------------------------------------------------------
	   Coordinate                Previous        Force       Change         New 
	   ----------                --------       ------       ------       ------
	    1 R(1,4)          =      1.102211    -0.000395    -0.000060     1.102151
	    2 R(2,4)          =      1.102419    -0.000184    -0.000036     1.102384
	    3 R(3,4)          =      1.102208    -0.000382    -0.000057     1.102150
	    4 R(4,7)          =      1.533438     0.001227     0.000254     1.533691
	    5 R(5,7)          =      1.103737     0.000192     0.000064     1.103801
	    6 R(6,7)          =      1.103730     0.000213     0.000068     1.103798
	    7 R(7,10)         =      1.560686     0.000173    -0.000171     1.560514
	    8 R(8,10)         =      1.103732     0.000202     0.000066     1.103798
	    9 R(9,10)         =      1.103736     0.000197     0.000064     1.103800
	   10 R(10,14)        =      1.533442     0.001213     0.000250     1.533692
	   11 R(11,14)        =      1.102418    -0.000177    -0.000034     1.102384
	   12 R(12,14)        =      1.102209    -0.000382    -0.000058     1.102152
	   13 R(13,14)        =      1.102206    -0.000382    -0.000057     1.102149
	   14 B(1,4,2)        =    107.247751     0.000003     0.015872   107.263623
	   15 B(1,4,3)        =    107.441456     0.000003     0.019584   107.461040
	   16 B(1,4,7)        =    112.184036    -0.000002    -0.014229   112.169806
	   17 B(2,4,3)        =    107.248455     0.000003     0.015561   107.264016
	   18 B(2,4,7)        =    110.279204    -0.000004    -0.020937   110.258267
	   19 B(3,4,7)        =    112.181319    -0.000002    -0.012505   112.168814
	   20 B(4,7,5)        =    108.175632    -0.000005    -0.007742   108.167890
	   21 B(4,7,6)        =    108.181042    -0.000005    -0.010654   108.170388
	   22 B(4,7,10)       =    116.798220     0.000016     0.029630   116.827850
	   23 B(5,7,6)        =    105.230307     0.000002    -0.010398   105.219909
	   24 B(5,7,10)       =    108.922099    -0.000005    -0.002616   108.919483
	   25 B(6,7,10)       =    108.922766    -0.000004    -0.002252   108.920514
	   26 B(7,10,8)       =    108.923319    -0.000005    -0.003226   108.920094
	   27 B(7,10,9)       =    108.921622    -0.000005    -0.001717   108.919906
	   28 B(7,10,14)      =    116.798141     0.000016     0.029644   116.827785
	   29 B(8,10,9)       =    105.230179     0.000002    -0.010130   105.220049
	   30 B(8,10,14)      =    108.181173    -0.000005    -0.010854   108.170319
	   31 B(9,10,14)      =    108.175623    -0.000005    -0.007719   108.167905
	   32 B(10,14,11)     =    110.278893    -0.000004    -0.020741   110.258152
	   33 B(10,14,12)     =    112.182524    -0.000002    -0.012895   112.169629
	   34 B(10,14,13)     =    112.181549    -0.000002    -0.012778   112.168771
	   35 B(11,14,12)     =    107.248221     0.000003     0.015525   107.263746
	   36 B(11,14,13)     =    107.248933     0.000003     0.015067   107.264000
	   37 B(12,14,13)     =    107.442217     0.000003     0.019073   107.461289
	   38 D(1,4,7,5)      =   -176.232266     0.000000     0.021301  -176.210965
	   39 D(1,4,7,6)      =    -62.726094    -0.000000    -0.000028   -62.726122
	   40 D(1,4,7,10)     =     60.523481     0.000000     0.009687    60.533168
	   41 D(2,4,7,5)      =    -56.757752     0.000000     0.017858   -56.739894
	   42 D(2,4,7,6)      =     56.748421    -0.000000    -0.003471    56.744950
	   43 D(2,4,7,10)     =    179.997996     0.000000     0.006244   180.004240
	   44 D(3,4,7,5)      =     62.715874     0.000000     0.015151    62.731025
	   45 D(3,4,7,6)      =    176.222046    -0.000000    -0.006178   176.215868
	   46 D(3,4,7,10)     =    -60.528379    -0.000000     0.003538   -60.524842
	   47 D(4,7,10,8)     =    122.872449     0.000000     0.002878   122.875327
	   48 D(4,7,10,9)     =   -122.854093    -0.000000    -0.011726  -122.865819
	   49 D(4,7,10,14)    =      0.004762    -0.000000    -0.001704     0.003059
	   50 D(5,7,10,8)     =      0.013131    -0.000000    -0.006362     0.006769
	   51 D(5,7,10,9)     =    114.286589    -0.000000    -0.020966   114.265622
	   52 D(5,7,10,14)    =   -122.854555    -0.000000    -0.010944  -122.865500
	   53 D(6,7,10,8)     =   -114.260437     0.000000     0.008519  -114.251919
	   54 D(6,7,10,9)     =      0.013020    -0.000000    -0.006085     0.006935
	   55 D(6,7,10,14)    =    122.871876     0.000000     0.003937   122.875813
	   56 D(7,10,14,11)   =   -179.993599     0.000000    -0.008715  -180.002314
	   57 D(7,10,14,12)   =     60.532493     0.000000    -0.005841    60.526653
	   58 D(7,10,14,13)   =    -60.519430    -0.000000    -0.012092   -60.531522
	   59 D(8,10,14,11)   =     56.756038    -0.000000    -0.016979    56.739059
	   60 D(8,10,14,12)   =    -62.717870    -0.000000    -0.014104   -62.731974
	   61 D(8,10,14,13)   =    176.230207    -0.000000    -0.020355   176.209852
	   62 D(9,10,14,11)   =    -56.750046     0.000000     0.004127   -56.745919
	   63 D(9,10,14,12)   =   -176.223954     0.000000     0.007002  -176.216952
	   64 D(9,10,14,13)   =     62.724123     0.000000     0.000751    62.724874
	 ---------------------------------------------------------------------------
	 Forces used to impose fixed constraints are not included.
	  Forces zeroed: 49 

  ==> Convergence Check <==

  Measures of convergence in internal coordinates in au.
  Criteria marked as inactive (o), active & met (*), and active & unmet ( ).
  ---------------------------------------------------------------------------------------------
   Step     Total Energy     Delta E     MAX Force     RMS Force      MAX Disp      RMS Disp   
  ---------------------------------------------------------------------------------------------
    Convergence Criteria    1.00e-06 *    3.00e-04 *             o    1.20e-03 *             o
  ---------------------------------------------------------------------------------------------
      7    -158.44973456   -3.49e-06      2.09e-04 *    5.61e-05 o    5.17e-04 *    2.30e-04 o  ~
  ---------------------------------------------------------------------------------------------


  **** Optimization is complete! (in 7 steps) ****

  ==> Optimization Summary <==

  Measures of convergence in internal coordinates in au.
  --------------------------------------------------------------------------------------------------------------- ~
   Step         Total Energy             Delta E       MAX Force       RMS Force        MAX Disp        RMS Disp  ~
  --------------------------------------------------------------------------------------------------------------- ~
      1    -158.430369155908   -158.430369155908      0.07170671      0.01838569      0.04965080      0.01270004  ~
      2    -158.441183365750     -0.010814209842      0.02974123      0.00944337      0.02672950      0.01252624  ~
      3    -158.446486291423     -0.005302925673      0.01654163      0.00480675      0.02226735      0.01254632  ~
      4    -158.448739698756     -0.002253407333      0.00796840      0.00211097      0.03043840      0.01251110  ~
      5    -158.449562223698     -0.000822524941      0.00271199      0.00072473      0.02640923      0.00948154  ~
      6    -158.449731067818     -0.000168844120      0.00067166      0.00016528      0.00313234      0.00124217  ~
      7    -158.449734555325     -0.000003487507      0.00020887      0.00005616      0.00051739      0.00023007  ~
  --------------------------------------------------------------------------------------------------------------- ~

	Writing optimization data to binary file.
	Final energy is   -158.4497345553253
	Final (previous) structure:
	Cartesian Geometry (in Angstrom)
	    H    -1.7783313270   0.5619931236   0.6059620147
	    H    -1.4396294166   2.1922220573  -0.0091771160
	    H    -1.4001101405   0.8031452901  -1.1135702219
	    C    -1.1457743423   1.1330075392  -0.0930969141
	    H     0.9136228325   1.6187352929  -0.4784697032
	    H     0.5404648190   1.3808241563   1.2187819204
	    C     0.3480263004   0.9700496554   0.2125752857
	    H     1.7596194484  -0.4919362503  -0.5881989631
	    H     1.3861050522  -0.7299640471   1.1089573390
	    C     0.9278979728  -0.4769510553   0.1372245125
	    H     0.4678966897  -2.5677683981  -0.2570713323
	    H    -0.5000132160  -1.4426027242  -1.2306847166
	    H    -0.8784551689  -1.6835950924   0.4888276385
	    C    -0.0521417180  -1.5959598592  -0.2353165731
	Saving final (previous) structure.
			--------------------------
			 OPTKING Finished Execution 
			--------------------------

    Final optimized geometry and variables:
    Molecular point group: c1
    Full point group: C1

    Geometry (in Angstrom), charge = 0, multiplicity = 1:

    H           -1.778331327009     0.561993123632     0.605962014666
    H           -1.439629416632     2.192222057276    -0.009177116003
    H           -1.400110140487     0.803145290054    -1.113570221909
    C           -1.145774342277     1.133007539189    -0.093096914134
    H            0.913622832480     1.618735292947    -0.478469703182
    H            0.540464819013     1.380824156279     1.218781920405
    C            0.348026300406     0.970049655378     0.212575285720
    H            1.759619448409    -0.491936250273    -0.588198963138
    H            1.386105052196    -0.729964047126     1.108957338988
    C            0.927897972827    -0.476951055310     0.137224512505
    H            0.467896689714    -2.567768398050    -0.257071332302
    H           -0.500013215991    -1.442602724190    -1.230684716646
    H           -0.878455168878    -1.683595092377     0.488827638511
    C           -0.052141718034    -1.595959859222    -0.235316573146

	Cleaning optimization helper files.

*** Psi4 exiting successfully. Buy a developer a beer!
