    -----------------------------------------------------------------------
          Psi4: An Open-Source Ab Initio Electronic Structure Package
                              Psi4 1.0.0 Driver

                          Git: Rev {master} 6a9a71b 

    J. M. Turney, A. C. Simmonett, R. M. Parrish, E. G. Hohenstein,
    F. A. Evangelista, J. T. Fermann, B. J. Mintz, L. A. Burns, J. J. Wilke,
    M. L. Abrams, N. J. Russ, M. L. Leininger, C. L. Janssen, E. T. Seidl,
    W. D. Allen, H. F. Schaefer, R. A. King, E. F. Valeev, C. D. Sherrill,
    and T. D. Crawford, WIREs Comput. Mol. Sci. 2, 556-565 (2012)
    (doi: 10.1002/wcms.93)

                         Additional Contributions by
    A. E. DePrince, U. Bozkaya, A. Yu. Sokolov, D. G. A. Smith, R. Di Remigio,
    R. M. Richard, J. F. Gonthier, H. R. McAlexander, M. Saitow, and
    B. P. Pritchard
    -----------------------------------------------------------------------


    Psi4 started on: Thu Feb 16 16:28:34 2017

    Process ID:   1666
    PSI4DATADIR: /Users/sternc1/anaconda/share/psi4
    Memory level set to 256.000 MB

  ==> Input File <==

--------------------------------------------------------------------------

memory 1000 mb

molecule butane {
  symmetry C1
  0 1 
  H      1.604   0.760   -8.260
  H      1.745   2.388   -8.880
  H      2.043   1.024   -9.930
  C      2.142   1.395   -8.932
  H      4.169   2.051   -9.210
  H      3.731   1.788   -7.539
  C      3.631   1.416   -8.537
  H      3.401   -0.719   -8.574
  H      4.742   -0.133   -9.528
  C      4.203   -0.012   -8.612
  H      5.550   -1.240   -7.476
  H      4.615   -0.128   -6.507
  H      5.955   0.459   -7.461
  C      5.153   -0.248   -7.424
  units Angstrom
}

dih_string = "4 7 10 14 220"
set optking fixed_dihedral = $dih_string

optimize('MP2/6-31G(d)')
--------------------------------------------------------------------------

  Memory set to 1000.000 MiB by Python script.
gradient() will perform analytic gradient computation.
    SCF Algorithm Type (re)set to DF.

*** tstart() called on lski1497
*** at Thu Feb 16 16:28:36 2017


         ---------------------------------------------------------
                                   SCF
            by Justin Turney, Rob Parrish, and Andy Simmonett
                              RHF Reference
                        1 Threads,   1000 MiB Core
         ---------------------------------------------------------

  ==> Geometry <==

    Molecular point group: c1
    Full point group: C1

    Geometry (in Angstrom), charge = 0, multiplicity = 1:

       Center              X                  Y                   Z               Mass       
    ------------   -----------------  -----------------  -----------------  -----------------
           H         -2.173608104031     0.124462492471     0.109352229354     1.007825032070
           H         -2.032608104031     1.752462492471    -0.510647770646     1.007825032070
           H         -1.734608104031     0.388462492471    -1.560647770646     1.007825032070
           C         -1.635608104031     0.759462492471    -0.562647770646    12.000000000000
           H          0.391391895969     1.415462492471    -0.840647770646     1.007825032070
           H         -0.046608104031     1.152462492471     0.830352229354     1.007825032070
           C         -0.146608104031     0.780462492471    -0.167647770646    12.000000000000
           H         -0.376608104031    -1.354537507529    -0.204647770646     1.007825032070
           H          0.964391895969    -0.768537507529    -1.158647770646     1.007825032070
           C          0.425391895969    -0.647537507529    -0.242647770646    12.000000000000
           H          1.772391895969    -1.875537507529     0.893352229354     1.007825032070
           H          0.837391895969    -0.763537507529     1.862352229354     1.007825032070
           H          2.177391895969    -0.176537507529     0.908352229354     1.007825032070
           C          1.375391895969    -0.883537507529     0.945352229354    12.000000000000

  Running in c1 symmetry.

  Rotational constants: A =      0.67215  B =      0.12769  C =      0.12284 [cm^-1]
  Rotational constants: A =  20150.54424  B =   3827.97833  C =   3682.65917 [MHz]
  Nuclear repulsion =  132.167155233182712

  Charge       = 0
  Multiplicity = 1
  Electrons    = 34
  Nalpha       = 17
  Nbeta        = 17

  ==> Algorithm <==

  SCF Algorithm Type is DF.
  DIIS enabled.
  MOM disabled.
  Fractional occupation disabled.
  Guess Type is SAD.
  Energy threshold   = 1.00e-10
  Density threshold  = 1.00e-10
  Integral threshold = 0.00e+00

  ==> Primary Basis <==

  Basis Set: 6-31G(D)
    Number of shells: 44
    Number of basis function: 80
    Number of Cartesian functions: 80
    Spherical Harmonics?: false
    Max angular momentum: 2

  ==> Pre-Iterations <==

   -------------------------------------------------------
    Irrep   Nso     Nmo     Nalpha   Nbeta   Ndocc  Nsocc
   -------------------------------------------------------
     A         80      80       0       0       0       0
   -------------------------------------------------------
    Total      80      80      17      17      17       0
   -------------------------------------------------------

  ==> Integral Setup <==

  ==> DFJK: Density-Fitted J/K Matrices <==

    J tasked:                  Yes
    K tasked:                  Yes
    wK tasked:                  No
    OpenMP threads:              1
    Integrals threads:           1
    Memory (MB):               715
    Algorithm:                Core
    Integral Cache:           NONE
    Schwarz Cutoff:          1E-12
    Fitting Condition:       1E-12

   => Auxiliary Basis Set <=

  Basis Set: 
    Number of shells: 186
    Number of basis function: 574
    Number of Cartesian functions: 574
    Spherical Harmonics?: false
    Max angular momentum: 3

  Minimum eigenvalue in the overlap matrix is 4.6065297321E-03.
  Using Symmetric Orthogonalization.
  SCF Guess: Superposition of Atomic Densities via on-the-fly atomic UHF.

  ==> Iterations <==

                           Total Energy        Delta E     RMS |[F,P]|

   @DF-RHF iter   0:  -158.98430211995446   -1.58984e+02   4.75032e-02 
   @DF-RHF iter   1:  -157.20132942455280    1.78297e+00   3.96466e-03 
   @DF-RHF iter   2:  -157.28135209142079   -8.00227e-02   1.08533e-03 DIIS
   @DF-RHF iter   3:  -157.28903513639045   -7.68304e-03   2.48669e-04 DIIS
   @DF-RHF iter   4:  -157.28939066340911   -3.55527e-04   7.64287e-05 DIIS
   @DF-RHF iter   5:  -157.28942475397531   -3.40906e-05   1.36370e-05 DIIS
   @DF-RHF iter   6:  -157.28942611699551   -1.36302e-06   2.59674e-06 DIIS
   @DF-RHF iter   7:  -157.28942615017621   -3.31807e-08   7.46877e-07 DIIS
   @DF-RHF iter   8:  -157.28942615318476   -3.00855e-09   1.23687e-07 DIIS
   @DF-RHF iter   9:  -157.28942615331334   -1.28580e-10   2.78669e-08 DIIS
   @DF-RHF iter  10:  -157.28942615331971   -6.36646e-12   5.10002e-09 DIIS
   @DF-RHF iter  11:  -157.28942615332022   -5.11591e-13   1.30810e-09 DIIS
   @DF-RHF iter  12:  -157.28942615332005    1.70530e-13   3.29137e-10 DIIS
   @DF-RHF iter  13:  -157.28942615332016   -1.13687e-13   6.67739e-11 DIIS

  ==> Post-Iterations <==

    Orbital Energies (a.u.)
    -----------------------

    Doubly Occupied:                                                      

       1A    -11.206675     2A    -11.206090     3A    -11.200615  
       4A    -11.200471     5A     -1.071187     6A     -0.980694  
       7A     -0.863000     8A     -0.794280     9A     -0.643376  
      10A     -0.593287    11A     -0.585759    12A     -0.559693  
      13A     -0.512688    14A     -0.509152    15A     -0.469524  
      16A     -0.468364    17A     -0.441073  

    Virtual:                                                              

      18A      0.235028    19A      0.268725    20A      0.292008  
      21A      0.300104    22A      0.326078    23A      0.334572  
      24A      0.334686    25A      0.345990    26A      0.350132  
      27A      0.356671    28A      0.418283    29A      0.440832  
      30A      0.448096    31A      0.705755    32A      0.722332  
      33A      0.741443    34A      0.768040    35A      0.788658  
      36A      0.837573    37A      0.839424    38A      0.933964  
      39A      0.943937    40A      1.007777    41A      1.063748  
      42A      1.083021    43A      1.168441    44A      1.191085  
      45A      1.193668    46A      1.208788    47A      1.214378  
      48A      1.221125    49A      1.246535    50A      1.257019  
      51A      1.265626    52A      1.280626    53A      1.291074  
      54A      1.499273    55A      1.649159    56A      1.729040  
      57A      1.763204    58A      1.926134    59A      1.967829  
      60A      2.117077    61A      2.194471    62A      2.231910  
      63A      2.296108    64A      2.302372    65A      2.347964  
      66A      2.441669    67A      2.531929    68A      2.634206  
      69A      2.658182    70A      2.699564    71A      2.713249  
      72A      2.751922    73A      2.776814    74A      2.889718  
      75A      3.013807    76A      3.098754    77A      4.577468  
      78A      4.669793    79A      4.804388    80A      4.967718  

    Final Occupation by Irrep:
              A 
    DOCC [    17 ]

  Energy converged.

  @DF-RHF Final Energy:  -157.28942615332016

   => Energetics <=

    Nuclear Repulsion Energy =            132.1671552331827115
    One-Electron Energy =                -472.3013054756437441
    Two-Electron Energy =                 182.8447240891409251
    DFT Exchange-Correlation Energy =       0.0000000000000000
    Empirical Dispersion Energy =           0.0000000000000000
    PCM Polarization Energy =               0.0000000000000000
    EFP Energy =                            0.0000000000000000
    Total Energy =                       -157.2894261533201075


  Saving occupied orbitals to File 180.

*** tstop() called on lski1497 at Thu Feb 16 16:28:42 2017
Module time:
	user time   =       5.58 seconds =       0.09 minutes
	system time =       0.19 seconds =       0.00 minutes
	total time  =          6 seconds =       0.10 minutes
Total time:
	user time   =       5.58 seconds =       0.09 minutes
	system time =       0.19 seconds =       0.00 minutes
	total time  =          6 seconds =       0.10 minutes


Properties will be evaluated at   0.000000,   0.000000,   0.000000 Bohr

Properties computed using the SCF density matrix

  Nuclear Dipole Moment: (a.u.)
     X:    -0.2073      Y:    -0.0988      Z:     0.3080

  Electronic Dipole Moment: (a.u.)
     X:     0.2220      Y:     0.1052      Z:    -0.3295

  Dipole Moment: (a.u.)
     X:     0.0147      Y:     0.0064      Z:    -0.0215     Total:     0.0269

  Dipole Moment: (Debye)
     X:     0.0374      Y:     0.0162      Z:    -0.0547     Total:     0.0682


  //>>>>>>>>>>>>>>>>>>>>>>>>>>>>>>>>>>>//
  //               DFMP2               //
  //<<<<<<<<<<<<<<<<<<<<<<<<<<<<<<<<<<<//


*** tstart() called on lski1497
*** at Thu Feb 16 16:28:42 2017


*** tstop() called on lski1497 at Thu Feb 16 16:28:43 2017
Module time:
	user time   =       0.59 seconds =       0.01 minutes
	system time =       0.00 seconds =       0.00 minutes
	total time  =          1 seconds =       0.02 minutes
Total time:
	user time   =       6.19 seconds =       0.10 minutes
	system time =       0.19 seconds =       0.00 minutes
	total time  =          7 seconds =       0.12 minutes
	 --------------------------------------------------------
	                          DF-MP2                         
	      2nd-Order Density-Fitted Moller-Plesset Theory     
	              RMP2 Wavefunction,   1 Threads             
	                                                         
	        Rob Parrish, Justin Turney, Andy Simmonett,      
	           Ed Hohenstein, and C. David Sherrill          
	 --------------------------------------------------------

   => Auxiliary Basis Set <=

  Basis Set: 
    Number of shells: 132
    Number of basis function: 364
    Number of Cartesian functions: 414
    Spherical Harmonics?: true
    Max angular momentum: 3

	 --------------------------------------------------------
	                 NBF =    80, NAUX =   364
	 --------------------------------------------------------
	   CLASS    FOCC     OCC    AOCC    AVIR     VIR    FVIR
	   PAIRS       0      17      17      63      63       0
	 --------------------------------------------------------

DGAS Warning! /src/lib/libfock/apps.cc:80 is not currently checking restricted

         ------------------------------------------------------------
                                     CPHF                           
                                  Rob Parrish                       
         ------------------------------------------------------------

  ==> Geometry <==

    Molecular point group: c1
    Full point group: C1

    Geometry (in Angstrom), charge = 0, multiplicity = 1:

       Center              X                  Y                   Z               Mass       
    ------------   -----------------  -----------------  -----------------  -----------------
           H         -2.173608104031     0.124462492471     0.109352229354     1.007825032070
           H         -2.032608104031     1.752462492471    -0.510647770646     1.007825032070
           H         -1.734608104031     0.388462492471    -1.560647770646     1.007825032070
           C         -1.635608104031     0.759462492471    -0.562647770646    12.000000000000
           H          0.391391895969     1.415462492471    -0.840647770646     1.007825032070
           H         -0.046608104031     1.152462492471     0.830352229354     1.007825032070
           C         -0.146608104031     0.780462492471    -0.167647770646    12.000000000000
           H         -0.376608104031    -1.354537507529    -0.204647770646     1.007825032070
           H          0.964391895969    -0.768537507529    -1.158647770646     1.007825032070
           C          0.425391895969    -0.647537507529    -0.242647770646    12.000000000000
           H          1.772391895969    -1.875537507529     0.893352229354     1.007825032070
           H          0.837391895969    -0.763537507529     1.862352229354     1.007825032070
           H          2.177391895969    -0.176537507529     0.908352229354     1.007825032070
           C          1.375391895969    -0.883537507529     0.945352229354    12.000000000000

  Nuclear repulsion =  132.167155233182712
  Reference energy  = -157.289426153320164

  ==> Basis Set <==

  Basis Set: 6-31G(D)
    Number of shells: 44
    Number of basis function: 80
    Number of Cartesian functions: 80
    Spherical Harmonics?: false
    Max angular momentum: 2

  ==> CGRSolver (by Rob Parrish) <==

   Number of roots    =         1
   Preconditioning    =    JACOBI
   Convergence cutoff =     1E-06
   Maximum iterations =       100

  ==> CPHFRHamiltonian (by Rob Parrish) <== 

  ==> DFJK: Density-Fitted J/K Matrices <==

    J tasked:                  Yes
    K tasked:                  Yes
    wK tasked:                  No
    OpenMP threads:              1
    Integrals threads:           1
    Memory (MB):               715
    Algorithm:                Core
    Integral Cache:           NONE
    Schwarz Cutoff:          1E-12
    Fitting Condition:       1E-12

   => Auxiliary Basis Set <=

  Basis Set: 
    Number of shells: 186
    Number of basis function: 574
    Number of Cartesian functions: 574
    Spherical Harmonics?: false
    Max angular momentum: 3

  ==> CPHF Iterations <==

  => Iterations <=

             Iter  Converged  Remaining    Residual
  CGR           1          0          1   7.300E-02
  CGR           2          0          1   8.829E-03
  CGR           3          0          1   2.746E-03
  CGR           4          0          1   3.926E-04
  CGR           5          0          1   7.304E-05
  CGR           6          0          1   1.813E-05
  CGR           7          0          1   3.393E-06
  CGR           8          1          0   6.247E-07

    CGRSolver converged.

  ==> DFCorrGrad: Density-Fitted Correlated Gradients <==

    OpenMP threads:              1
    Integrals threads:           1
    Memory (MB):               715
    Schwarz Cutoff:          0E+00
    Fitting Condition:       1E-12

   => Auxiliary Basis Set <=

  Basis Set: 
    Number of shells: 186
    Number of basis function: 510
    Number of Cartesian functions: 574
    Spherical Harmonics?: true
    Max angular momentum: 3

	-----------------------------------------------------------
	 ==================> DF-MP2 Energies <==================== 
	-----------------------------------------------------------
	 Reference Energy          =    -157.2894261533201643 [Eh]
	 Singles Energy            =      -0.0000000000000000 [Eh]
	 Same-Spin Energy          =      -0.1244067811375342 [Eh]
	 Opposite-Spin Energy      =      -0.4203504640681143 [Eh]
	 Correlation Energy        =      -0.5447572452056484 [Eh]
	 Total Energy              =    -157.8341833985258233 [Eh]
	-----------------------------------------------------------
	 ================> DF-SCS-MP2 Energies <================== 
	-----------------------------------------------------------
	 SCS Same-Spin Scale       =       0.3333333333333333 [-]
	 SCS Opposite-Spin Scale   =       1.2000000000000000 [-]
	 SCS Same-Spin Energy      =      -0.0414689270458447 [Eh]
	 SCS Opposite-Spin Energy  =      -0.5044205568817371 [Eh]
	 SCS Correlation Energy    =      -0.5458894839275819 [Eh]
	 SCS Total Energy          =    -157.8353156372477599 [Eh]
	-----------------------------------------------------------


  -Total Gradient:
     Atom            X                  Y                   Z
    ------   -----------------  -----------------  -----------------
       1        0.010301911437     0.009222304754    -0.009162638712
       2        0.010614075341    -0.013758185234     0.000805811223
       3        0.004294738438     0.005867647845     0.015538514242
       4       -0.027458715890    -0.009054072554    -0.007417030896
       5       -0.009418721910    -0.013188020492     0.006931119205
       6       -0.002058594682    -0.008819107270    -0.015044530492
       7        0.022529759109     0.027613167939     0.013759270450
       8        0.011384925341     0.013302238990     0.001286742471
       9       -0.006001652806     0.005880115839     0.016006882592
      10       -0.012745710310    -0.023369941566    -0.027281717119
      11       -0.009271118732     0.015211892895    -0.003173691152
      12        0.006293761014    -0.001321426842    -0.015135762252
      13       -0.013350617373    -0.010073473727    -0.001735661098
      14        0.014885961023     0.002486859424     0.024622691536


			-----------------------------------------
			 OPTKING 2.0: for geometry optimizations 
			  - R.A. King,  Bethel University        
			-----------------------------------------

	Previous internal coordinate definitions found.
	---Fragment 1 Geometry and Gradient---
	 H          -4.1075240368        0.2352000246        0.2066457655
	 H          -3.8410726521        3.3116741689       -0.9649844369
	 H          -3.2779342645        0.7340877237       -2.9491968764
	 C          -3.0908513773        1.4351761190       -1.0632501958
	 H           0.7396234940        2.6748364621       -1.5885940607
	 H          -0.0880765522        2.1778384892        1.5691383073
	 C          -0.2770491655        1.4748603678       -0.3168083733
	 H          -0.7116861760       -2.5597049260       -0.3867282402
	 H           1.8224365682       -1.4523254121       -2.1895269710
	 C           0.8038741825       -1.2236685500       -0.4585378333
	 H           3.3493352835       -3.5442522412        1.6881910537
	 H           1.5824413493       -1.4428767814        3.5193356764
	 H           4.1146743673       -0.3336075414        1.7165369457
	 C           2.5991140088       -1.6696439174        1.7864568126
	             0.0103019114        0.0092223048       -0.0091626387
	             0.0106140753       -0.0137581852        0.0008058112
	             0.0042947384        0.0058676478        0.0155385142
	            -0.0274587159       -0.0090540726       -0.0074170309
	            -0.0094187219       -0.0131880205        0.0069311192
	            -0.0020585947       -0.0088191073       -0.0150445305
	             0.0225297591        0.0276131679        0.0137592705
	             0.0113849253        0.0133022390        0.0012867425
	            -0.0060016528        0.0058801158        0.0160068826
	            -0.0127457103       -0.0233699416       -0.0272817171
	            -0.0092711187        0.0152118929       -0.0031736912
	             0.0062937610       -0.0013214268       -0.0151357623
	            -0.0133506174       -0.0100734737       -0.0017356611
	             0.0148859610        0.0024868594        0.0246226915

	Previous optimization step data not found.  Starting new optimization.

	---Fragment 1 Intrafragment Coordinates---
	 - Coordinate -           - BOHR/RAD -       - ANG/DEG -
	 R(1,4)           =         2.021436	       1.069698
	 R(2,4)           =         2.023298	       1.070683
	 R(3,4)           =         2.020723	       1.069320
	 R(4,7)           =         2.911397	       1.540645
	 R(5,7)           =         2.022623	       1.070326
	 R(6,7)           =         2.021555	       1.069761
	 R(7,10)          =         2.910419	       1.540128
	 R(8,10)          =         2.021651	       1.069812
	 R(9,10)          =         2.021405	       1.069681
	 R(10,14)         =         2.908914	       1.539331
	 R(11,14)         =         2.021545	       1.069756
	 R(12,14)         =         2.021859	       1.069922
	 R(13,14)         =         2.021585	       1.069777
	 B(1,4,2)         =         1.910870	     109.484805
	 B(1,4,3)         =         1.911121	     109.499161
	 B(1,4,7)         =         1.910399	     109.457783
	 B(2,4,3)         =         1.910042	     109.437340
	 B(2,4,7)         =         1.910564	     109.467262
	 B(3,4,7)         =         1.910803	     109.480971
	 B(4,7,5)         =         1.909937	     109.431343
	 B(4,7,6)         =         1.911630	     109.528316
	 B(4,7,10)        =         1.911154	     109.501062
	 B(5,7,6)         =         1.910605	     109.469614
	 B(5,7,10)        =         1.910047	     109.437654
	 B(6,7,10)        =         1.910425	     109.459295
	 B(7,10,8)        =         1.909852	     109.426469
	 B(7,10,9)        =         1.911050	     109.495106
	 B(7,10,14)       =         1.911104	     109.498205
	 B(8,10,9)        =         1.910713	     109.475814
	 B(8,10,14)       =         1.911260	     109.507115
	 B(9,10,14)       =         1.909820	     109.424631
	 B(10,14,11)      =         1.911009	     109.492750
	 B(10,14,12)      =         1.911270	     109.507680
	 B(10,14,13)      =         1.912037	     109.551638
	 B(11,14,12)      =         1.909514	     109.407076
	 B(11,14,13)      =         1.910225	     109.447830
	 B(12,14,13)      =         1.909743	     109.420213
	 D(1,4,7,5)       =         3.140997	     179.965873
	 D(1,4,7,6)       =        -1.047644	     -60.025575
	 D(1,4,7,10)      =         1.047427	      60.013132
	 D(2,4,7,5)       =        -1.047689	     -60.028143
	 D(2,4,7,6)       =         1.046856	      59.980409
	 D(2,4,7,10)      =        -3.141259	    -179.980883
	 D(3,4,7,5)       =         1.046044	      59.933911
	 D(3,4,7,6)       =         3.140588	     179.942463
	 D(3,4,7,10)      =        -1.047526	     -60.018830
	 D(4,7,10,8)      =        -0.348717	     -19.980034
	 D(4,7,10,9)      =         1.745553	     100.012805
	 D(4,7,10,14)     =        -2.443690	    -140.013100
	 D(5,7,10,8)      =        -2.442220	    -139.928910
	 D(5,7,10,9)      =        -0.347950	     -19.936071
	 D(5,7,10,14)     =         1.745993	     100.038024
	 D(6,7,10,8)      =         1.747090	     100.100892
	 D(6,7,10,9)      =        -2.441825	    -139.906269
	 D(6,7,10,14)     =        -0.347882	     -19.932174
	 D(7,10,14,11)    =         3.141267	     179.981365
	 D(7,10,14,12)    =         1.047624	      60.024415
	 D(7,10,14,13)    =        -1.046932	     -59.984768
	 D(8,10,14,11)    =         1.047157	      59.997656
	 D(8,10,14,12)    =        -1.046487	     -59.959294
	 D(8,10,14,13)    =        -3.141042	    -179.968478
	 D(9,10,14,11)    =        -1.047222	     -60.001403
	 D(9,10,14,12)    =        -3.140866	    -179.958353
	 D(9,10,14,13)    =         1.047764	      60.032464

	Current energy   :      -157.8341833985

	Generating empirical Hessian (Schlegel '84) for each fragment.
	Adding user-defined constraint: Fragment 1; Coordinate 49:
		Value =    -2.443690; Fixed value    =    -2.443460
		Force =     0.000115; Force constant =     0.500000
	Removing off-diagonal coupling between coordinate 49 and others.
	Taking RFO optimization step.
	Going to follow RFO solution 1.
	Using RFO vector 1.

	Determining step-restricting scale parameter for RS-RFO.
	Maximum step size allowed    0.10000

	 Iter      |step|        alpha        rfo_root  
	------------------------------------------------
	    0     0.24170       1.00000           1
	    1     0.18049       5.27969           1
	    2     0.13742      16.18480           1
	    3     0.11225      32.37386           1
	    4     0.10195      43.69434           1
	    5     0.10006      46.23225           1
	    6     0.10000      46.31951           1
	------------------------------------------------
	Norm of target step-size    0.10000
	Projected energy change by RFO approximation:        -0.0056064533

	Back-transformation to cartesian coordinates...
	Successfully converged to displaced geometry.

	--- Internal Coordinate Step in ANG or DEG, aJ/ANG or AJ/DEG ---
	 ---------------------------------------------------------------------------
	   Coordinate                Previous        Force       Change         New 
	   ----------                --------       ------       ------       ------
	    1 R(1,4)          =      1.069698     0.135214     0.013610     1.083307
	    2 R(2,4)          =      1.070683     0.137227     0.013839     1.084522
	    3 R(3,4)          =      1.069320     0.139528     0.014033     1.083354
	    4 R(4,7)          =      1.540645    -0.019262    -0.002249     1.538396
	    5 R(5,7)          =      1.070326     0.139371     0.014045     1.084371
	    6 R(6,7)          =      1.069761     0.142484     0.014343     1.084104
	    7 R(7,10)         =      1.540128     0.040931     0.004775     1.544903
	    8 R(8,10)         =      1.069812     0.142366     0.014333     1.084144
	    9 R(9,10)         =      1.069681     0.143325     0.014425     1.084107
	   10 R(10,14)        =      1.539331    -0.013809    -0.001609     1.537722
	   11 R(11,14)        =      1.069756     0.143291     0.014424     1.084180
	   12 R(12,14)        =      1.069922     0.134171     0.013511     1.083432
	   13 R(13,14)        =      1.069777     0.136815     0.013773     1.083549
	   14 B(1,4,2)        =    109.484805    -0.000284    -0.501006   108.983799
	   15 B(1,4,3)        =    109.499161    -0.000199    -0.376396   109.122765
	   16 B(1,4,7)        =    109.457783     0.000128     0.221504   109.679287
	   17 B(2,4,3)        =    109.437340    -0.000296    -0.516255   108.921085
	   18 B(2,4,7)        =    109.467262     0.000482     0.864791   110.332053
	   19 B(3,4,7)        =    109.480971     0.000171     0.295825   109.776796
	   20 B(4,7,5)        =    109.431343    -0.000227    -0.326788   109.104555
	   21 B(4,7,6)        =    109.528316    -0.000219    -0.357628   109.170688
	   22 B(4,7,10)       =    109.501062     0.000770     1.257207   110.758269
	   23 B(5,7,6)        =    109.469614    -0.000035    -0.244594   109.225020
	   24 B(5,7,10)       =    109.437654    -0.000141    -0.162133   109.275521
	   25 B(6,7,10)       =    109.459295    -0.000148    -0.174564   109.284730
	   26 B(7,10,8)       =    109.426469    -0.000146    -0.168974   109.257495
	   27 B(7,10,9)       =    109.495106    -0.000150    -0.180369   109.314737
	   28 B(7,10,14)      =    109.498205     0.000774     1.263689   110.761894
	   29 B(8,10,9)       =    109.475814    -0.000035    -0.245727   109.230088
	   30 B(8,10,14)      =    109.507115    -0.000220    -0.357685   109.149430
	   31 B(9,10,14)      =    109.424631    -0.000224    -0.319454   109.105177
	   32 B(10,14,11)     =    109.492750     0.000481     0.862893   110.355643
	   33 B(10,14,12)     =    109.507680     0.000119     0.206079   109.713760
	   34 B(10,14,13)     =    109.551638     0.000161     0.277791   109.829429
	   35 B(11,14,12)     =    109.407076    -0.000276    -0.484738   108.922338
	   36 B(11,14,13)     =    109.447830    -0.000296    -0.516149   108.931681
	   37 B(12,14,13)     =    109.420213    -0.000190    -0.359393   109.060820
	   38 D(1,4,7,5)      =    179.965873     0.000032     0.318502   180.284374
	   39 D(1,4,7,6)      =    -60.025575    -0.000041    -0.392100   -60.417675
	   40 D(1,4,7,10)     =     60.013132    -0.000005    -0.052839    59.960294
	   41 D(2,4,7,5)      =    -60.028143     0.000038     0.375979   -59.652164
	   42 D(2,4,7,6)      =     59.980409    -0.000035    -0.334623    59.645787
	   43 D(2,4,7,10)     =   -179.980883     0.000001     0.004639  -179.976244
	   44 D(3,4,7,5)      =     59.933911     0.000046     0.461727    60.395638
	   45 D(3,4,7,6)      =    179.942463    -0.000027    -0.248874   179.693588
	   46 D(3,4,7,10)     =    -60.018830     0.000009     0.090387   -59.928442
	   47 D(4,7,10,8)     =    -19.980034     0.000013     0.134914   -19.845120
	   48 D(4,7,10,9)     =    100.012805    -0.000038    -0.376745    99.636060
	   49 D(4,7,10,14)    =   -140.013100    -0.000013    -0.100447  -140.113547
	   50 D(5,7,10,8)     =   -139.928910    -0.000011    -0.138353  -140.067263
	   51 D(5,7,10,9)     =    -19.936071    -0.000062    -0.650012   -20.586083
	   52 D(5,7,10,14)    =    100.038024    -0.000038    -0.373714    99.664310
	   53 D(6,7,10,8)     =    100.100892     0.000039     0.364010   100.464901
	   54 D(6,7,10,9)     =   -139.906269    -0.000012    -0.147649  -140.053919
	   55 D(6,7,10,14)    =    -19.932174     0.000013     0.128648   -19.803526
	   56 D(7,10,14,11)   =    179.981365     0.000002     0.018635   180.000000
	   57 D(7,10,14,12)   =     60.024415    -0.000004    -0.048471    59.975944
	   58 D(7,10,14,13)   =    -59.984768     0.000010     0.094166   -59.890602
	   59 D(8,10,14,11)   =     59.997656    -0.000035    -0.330439    59.667217
	   60 D(8,10,14,12)   =    -59.959294    -0.000041    -0.397599   -60.356894
	   61 D(8,10,14,13)   =   -179.968478    -0.000027    -0.254962  -180.223440
	   62 D(9,10,14,11)   =    -60.001403     0.000038     0.376740   -59.624662
	   63 D(9,10,14,12)   =   -179.958353     0.000031     0.309580  -179.648773
	   64 D(9,10,14,13)   =     60.032464     0.000045     0.452217    60.484681
	 ---------------------------------------------------------------------------
	 Forces used to impose fixed constraints are not included.
	  Forces zeroed: 49 

  ==> Convergence Check <==

  Measures of convergence in internal coordinates in au.
  Criteria marked as inactive (o), active & met (*), and active & unmet ( ).
  --------------------------------------------------------------------------------------------- ~
   Step     Total Energy     Delta E     MAX Force     RMS Force      MAX Disp      RMS Disp    ~
  --------------------------------------------------------------------------------------------- ~
    Convergence Criteria    1.00e-06 *    3.00e-04 *             o    1.20e-03 *             o  ~
  --------------------------------------------------------------------------------------------- ~
      1    -157.83418340   -1.58e+02      1.74e-02      7.29e-03 o    2.73e-02      1.25e-02 o  ~
  ---------------------------------------------------------------------------------------------

	Writing optimization data to binary file.
	Structure for next step:
	Cartesian Geometry (in Angstrom)
	    H    -2.1999054300   0.1250663889   0.1065890446
	    H    -2.0586425467   1.7643054159  -0.5314195641
	    H    -1.7517505945   0.3805667249  -1.5816100283
	    C    -1.6466967168   0.7619307766  -0.5730566021
	    H     0.3828249610   1.4212799437  -0.8573090457
	    H    -0.0666405777   1.1656884834   0.8332464966
	    C    -0.1608694206   0.7776739630  -0.1746456571
	    H    -0.3673274901  -1.3726690213  -0.1920727688
	    H     0.9837361562  -0.7686594808  -1.1588577453
	    C     0.4363038512  -0.6460225626  -0.2311912217
	    H     1.8050716122  -1.8849812731   0.9051742592
	    H     0.8510355749  -0.7703459835   1.8842101563
	    H     2.2003770712  -0.1658821725   0.9205891360
	    C     1.3899700933  -0.8844763078   0.9512847513
			--------------------------
			 OPTKING Finished Execution 
			--------------------------

    Structure for next step:
    Molecular point group: c1
    Full point group: C1

    Geometry (in Angstrom), charge = 0, multiplicity = 1:

    H           -2.199931969338     0.125017956132     0.106592384577
    H           -2.058669086061     1.764256983102    -0.531416224181
    H           -1.751777133844     0.380518292101    -1.581606688371
    C           -1.646723256119     0.761882343813    -0.573053262111
    H            0.382798421609     1.421231510985    -0.857305705728
    H           -0.066667117024     1.165640050618     0.833249836536
    C           -0.160895959972     0.777625530249    -0.174642317127
    H           -0.367354029408    -1.372717454055    -0.192069428815
    H            0.983709616834    -0.768707913548    -1.158854405334
    C            0.436277311871    -0.646070995321    -0.231187881743
    H            1.805045072803    -1.885029705869     0.905177599200
    H            0.851009035540    -0.770394416275     1.884213496299
    H            2.200350531825    -0.165930605301     0.920592475940
    C            1.389943553991    -0.884524740595     0.951288091227

gradient() will perform analytic gradient computation.
    SCF Algorithm Type (re)set to DF.

*** tstart() called on lski1497
*** at Thu Feb 16 16:29:05 2017


         ---------------------------------------------------------
                                   SCF
            by Justin Turney, Rob Parrish, and Andy Simmonett
                              RHF Reference
                        1 Threads,   1000 MiB Core
         ---------------------------------------------------------

  ==> Geometry <==

    Molecular point group: c1
    Full point group: C1

    Geometry (in Angstrom), charge = 0, multiplicity = 1:

       Center              X                  Y                   Z               Mass       
    ------------   -----------------  -----------------  -----------------  -----------------
           H         -2.199931969338     0.125017956132     0.106592384577     1.007825032070
           H         -2.058669086061     1.764256983102    -0.531416224181     1.007825032070
           H         -1.751777133844     0.380518292101    -1.581606688371     1.007825032070
           C         -1.646723256119     0.761882343813    -0.573053262111    12.000000000000
           H          0.382798421609     1.421231510985    -0.857305705728     1.007825032070
           H         -0.066667117024     1.165640050618     0.833249836536     1.007825032070
           C         -0.160895959972     0.777625530249    -0.174642317127    12.000000000000
           H         -0.367354029408    -1.372717454055    -0.192069428815     1.007825032070
           H          0.983709616834    -0.768707913548    -1.158854405334     1.007825032070
           C          0.436277311871    -0.646070995321    -0.231187881743    12.000000000000
           H          1.805045072803    -1.885029705869     0.905177599200     1.007825032070
           H          0.851009035540    -0.770394416275     1.884213496299     1.007825032070
           H          2.200350531825    -0.165930605301     0.920592475940     1.007825032070
           C          1.389943553991    -0.884524740595     0.951288091227    12.000000000000

  Running in c1 symmetry.

  Rotational constants: A =      0.67334  B =      0.12541  C =      0.12088 [cm^-1]
  Rotational constants: A =  20186.12633  B =   3759.79509  C =   3623.90358 [MHz]
  Nuclear repulsion =  131.245020001974524

  Charge       = 0
  Multiplicity = 1
  Electrons    = 34
  Nalpha       = 17
  Nbeta        = 17

  ==> Algorithm <==

  SCF Algorithm Type is DF.
  DIIS enabled.
  MOM disabled.
  Fractional occupation disabled.
  Guess Type is READ.
  Energy threshold   = 1.00e-10
  Density threshold  = 1.00e-10
  Integral threshold = 0.00e+00

  ==> Primary Basis <==

  Basis Set: 6-31G(D)
    Number of shells: 44
    Number of basis function: 80
    Number of Cartesian functions: 80
    Spherical Harmonics?: false
    Max angular momentum: 2

  ==> Pre-Iterations <==

   -------------------------------------------------------
    Irrep   Nso     Nmo     Nalpha   Nbeta   Ndocc  Nsocc
   -------------------------------------------------------
     A         80      80       0       0       0       0
   -------------------------------------------------------
    Total      80      80      17      17      17       0
   -------------------------------------------------------

  ==> Integral Setup <==

  ==> DFJK: Density-Fitted J/K Matrices <==

    J tasked:                  Yes
    K tasked:                  Yes
    wK tasked:                  No
    OpenMP threads:              1
    Integrals threads:           1
    Memory (MB):               715
    Algorithm:                Core
    Integral Cache:           NONE
    Schwarz Cutoff:          1E-12
    Fitting Condition:       1E-12

   => Auxiliary Basis Set <=

  Basis Set: 
    Number of shells: 186
    Number of basis function: 574
    Number of Cartesian functions: 574
    Spherical Harmonics?: false
    Max angular momentum: 3

  Minimum eigenvalue in the overlap matrix is 4.7094937089E-03.
  Using Symmetric Orthogonalization.
  SCF Guess was Projection but file not found.
  Switching over to SAD guess.

  SCF Guess: Superposition of Atomic Densities via on-the-fly atomic UHF.

  ==> Iterations <==

                           Total Energy        Delta E     RMS |[F,P]|

   @DF-RHF iter   0:  -158.87722234952076   -1.58877e+02   4.65362e-02 
   @DF-RHF iter   1:  -157.20325122479284    1.67397e+00   3.94364e-03 
   @DF-RHF iter   2:  -157.28403931296265   -8.07881e-02   1.10074e-03 DIIS
   @DF-RHF iter   3:  -157.29197010180025   -7.93079e-03   2.64681e-04 DIIS
   @DF-RHF iter   4:  -157.29236606759895   -3.95966e-04   7.72101e-05 DIIS
   @DF-RHF iter   5:  -157.29240331804289   -3.72504e-05   1.32409e-05 DIIS
   @DF-RHF iter   6:  -157.29240466133319   -1.34329e-06   2.19831e-06 DIIS
   @DF-RHF iter   7:  -157.29240468788413   -2.65509e-08   7.34420e-07 DIIS
   @DF-RHF iter   8:  -157.29240469051462   -2.63049e-09   1.28952e-07 DIIS
   @DF-RHF iter   9:  -157.29240469064945   -1.34833e-10   2.86049e-08 DIIS
   @DF-RHF iter  10:  -157.29240469065644   -6.99174e-12   4.94125e-09 DIIS
   @DF-RHF iter  11:  -157.29240469065684   -3.97904e-13   1.01986e-09 DIIS
   @DF-RHF iter  12:  -157.29240469065661    2.27374e-13   3.10596e-10 DIIS
   @DF-RHF iter  13:  -157.29240469065655    5.68434e-14   6.87892e-11 DIIS

  ==> Post-Iterations <==

    Orbital Energies (a.u.)
    -----------------------

    Doubly Occupied:                                                      

       1A    -11.212046     2A    -11.211488     3A    -11.206439  
       4A    -11.206374     5A     -1.067803     6A     -0.978481  
       7A     -0.859518     8A     -0.788715     9A     -0.638979  
      10A     -0.590521    11A     -0.582172    12A     -0.557726  
      13A     -0.510000    14A     -0.505609    15A     -0.465831  
      16A     -0.464446    17A     -0.446051  

    Virtual:                                                              

      18A      0.233134    19A      0.266008    20A      0.288171  
      21A      0.296856    22A      0.323464    23A      0.330347  
      24A      0.330437    25A      0.340972    26A      0.346817  
      27A      0.353652    28A      0.416377    29A      0.441395  
      30A      0.447727    31A      0.707445    32A      0.719073  
      33A      0.743021    34A      0.769925    35A      0.793561  
      36A      0.839011    37A      0.842020    38A      0.933135  
      39A      0.941086    40A      1.003974    41A      1.070917  
      42A      1.081804    43A      1.156713    44A      1.177651  
      45A      1.178098    46A      1.195017    47A      1.199817  
      48A      1.208883    49A      1.239606    50A      1.241427  
      51A      1.249962    52A      1.272036    53A      1.275107  
      54A      1.496905    55A      1.650866    56A      1.732171  
      57A      1.754270    58A      1.921753    59A      1.955710  
      60A      2.111504    61A      2.196421    62A      2.220479  
      63A      2.293170    64A      2.301063    65A      2.334205  
      66A      2.432535    67A      2.507228    68A      2.614470  
      69A      2.640190    70A      2.685980    71A      2.694523  
      72A      2.733763    73A      2.767605    74A      2.883925  
      75A      3.013810    76A      3.089248    77A      4.564328  
      78A      4.661174    79A      4.798270    80A      4.960781  

    Final Occupation by Irrep:
              A 
    DOCC [    17 ]

  Energy converged.

  @DF-RHF Final Energy:  -157.29240469065655

   => Energetics <=

    Nuclear Repulsion Energy =            131.2450200019745239
    One-Electron Energy =                -470.4904532376530710
    Two-Electron Energy =                 181.9530285450218514
    DFT Exchange-Correlation Energy =       0.0000000000000000
    Empirical Dispersion Energy =           0.0000000000000000
    PCM Polarization Energy =               0.0000000000000000
    EFP Energy =                            0.0000000000000000
    Total Energy =                       -157.2924046906566957


  Saving occupied orbitals to File 180.

*** tstop() called on lski1497 at Thu Feb 16 16:29:12 2017
Module time:
	user time   =       5.49 seconds =       0.09 minutes
	system time =       0.16 seconds =       0.00 minutes
	total time  =          7 seconds =       0.12 minutes
Total time:
	user time   =      30.75 seconds =       0.51 minutes
	system time =       0.88 seconds =       0.01 minutes
	total time  =         36 seconds =       0.60 minutes


Properties will be evaluated at   0.000000,   0.000000,   0.000000 Bohr

Properties computed using the SCF density matrix

  Nuclear Dipole Moment: (a.u.)
     X:    -0.2076      Y:    -0.0995      Z:     0.3080

  Electronic Dipole Moment: (a.u.)
     X:     0.2207      Y:     0.1055      Z:    -0.3273

  Dipole Moment: (a.u.)
     X:     0.0131      Y:     0.0060      Z:    -0.0193     Total:     0.0240

  Dipole Moment: (Debye)
     X:     0.0332      Y:     0.0153      Z:    -0.0489     Total:     0.0611


  //>>>>>>>>>>>>>>>>>>>>>>>>>>>>>>>>>>>//
  //               DFMP2               //
  //<<<<<<<<<<<<<<<<<<<<<<<<<<<<<<<<<<<//


*** tstart() called on lski1497
*** at Thu Feb 16 16:29:12 2017


*** tstop() called on lski1497 at Thu Feb 16 16:29:12 2017
Module time:
	user time   =       0.60 seconds =       0.01 minutes
	system time =       0.01 seconds =       0.00 minutes
	total time  =          0 seconds =       0.00 minutes
Total time:
	user time   =      31.37 seconds =       0.52 minutes
	system time =       0.89 seconds =       0.01 minutes
	total time  =         36 seconds =       0.60 minutes
	 --------------------------------------------------------
	                          DF-MP2                         
	      2nd-Order Density-Fitted Moller-Plesset Theory     
	              RMP2 Wavefunction,   1 Threads             
	                                                         
	        Rob Parrish, Justin Turney, Andy Simmonett,      
	           Ed Hohenstein, and C. David Sherrill          
	 --------------------------------------------------------

   => Auxiliary Basis Set <=

  Basis Set: 
    Number of shells: 132
    Number of basis function: 364
    Number of Cartesian functions: 414
    Spherical Harmonics?: true
    Max angular momentum: 3

	 --------------------------------------------------------
	                 NBF =    80, NAUX =   364
	 --------------------------------------------------------
	   CLASS    FOCC     OCC    AOCC    AVIR     VIR    FVIR
	   PAIRS       0      17      17      63      63       0
	 --------------------------------------------------------

DGAS Warning! /src/lib/libfock/apps.cc:80 is not currently checking restricted

         ------------------------------------------------------------
                                     CPHF                           
                                  Rob Parrish                       
         ------------------------------------------------------------

  ==> Geometry <==

    Molecular point group: c1
    Full point group: C1

    Geometry (in Angstrom), charge = 0, multiplicity = 1:

       Center              X                  Y                   Z               Mass       
    ------------   -----------------  -----------------  -----------------  -----------------
           H         -2.199931969338     0.125017956132     0.106592384577     1.007825032070
           H         -2.058669086061     1.764256983102    -0.531416224181     1.007825032070
           H         -1.751777133844     0.380518292101    -1.581606688371     1.007825032070
           C         -1.646723256119     0.761882343813    -0.573053262111    12.000000000000
           H          0.382798421609     1.421231510985    -0.857305705728     1.007825032070
           H         -0.066667117024     1.165640050618     0.833249836536     1.007825032070
           C         -0.160895959972     0.777625530249    -0.174642317127    12.000000000000
           H         -0.367354029408    -1.372717454055    -0.192069428815     1.007825032070
           H          0.983709616834    -0.768707913548    -1.158854405334     1.007825032070
           C          0.436277311871    -0.646070995321    -0.231187881743    12.000000000000
           H          1.805045072803    -1.885029705869     0.905177599200     1.007825032070
           H          0.851009035540    -0.770394416275     1.884213496299     1.007825032070
           H          2.200350531825    -0.165930605301     0.920592475940     1.007825032070
           C          1.389943553991    -0.884524740595     0.951288091227    12.000000000000

  Nuclear repulsion =  131.245020001974524
  Reference energy  = -157.292404690656554

  ==> Basis Set <==

  Basis Set: 6-31G(D)
    Number of shells: 44
    Number of basis function: 80
    Number of Cartesian functions: 80
    Spherical Harmonics?: false
    Max angular momentum: 2

  ==> CGRSolver (by Rob Parrish) <==

   Number of roots    =         1
   Preconditioning    =    JACOBI
   Convergence cutoff =     1E-06
   Maximum iterations =       100

  ==> CPHFRHamiltonian (by Rob Parrish) <== 

  ==> DFJK: Density-Fitted J/K Matrices <==

    J tasked:                  Yes
    K tasked:                  Yes
    wK tasked:                  No
    OpenMP threads:              1
    Integrals threads:           1
    Memory (MB):               715
    Algorithm:                Core
    Integral Cache:           NONE
    Schwarz Cutoff:          1E-12
    Fitting Condition:       1E-12

   => Auxiliary Basis Set <=

  Basis Set: 
    Number of shells: 186
    Number of basis function: 574
    Number of Cartesian functions: 574
    Spherical Harmonics?: false
    Max angular momentum: 3

  ==> CPHF Iterations <==

  => Iterations <=

             Iter  Converged  Remaining    Residual
  CGR           1          0          1   7.345E-02
  CGR           2          0          1   8.954E-03
  CGR           3          0          1   2.778E-03
  CGR           4          0          1   3.930E-04
  CGR           5          0          1   7.389E-05
  CGR           6          0          1   1.814E-05
  CGR           7          0          1   3.283E-06
  CGR           8          1          0   6.175E-07

    CGRSolver converged.

  ==> DFCorrGrad: Density-Fitted Correlated Gradients <==

    OpenMP threads:              1
    Integrals threads:           1
    Memory (MB):               715
    Schwarz Cutoff:          0E+00
    Fitting Condition:       1E-12

   => Auxiliary Basis Set <=

  Basis Set: 
    Number of shells: 186
    Number of basis function: 510
    Number of Cartesian functions: 574
    Spherical Harmonics?: true
    Max angular momentum: 3

	-----------------------------------------------------------
	 ==================> DF-MP2 Energies <==================== 
	-----------------------------------------------------------
	 Reference Energy          =    -157.2924046906565536 [Eh]
	 Singles Energy            =      -0.0000000000000000 [Eh]
	 Same-Spin Energy          =      -0.1242823440259458 [Eh]
	 Opposite-Spin Energy      =      -0.4216197205837514 [Eh]
	 Correlation Energy        =      -0.5459020646096973 [Eh]
	 Total Energy              =    -157.8383067552662453 [Eh]
	-----------------------------------------------------------
	 ================> DF-SCS-MP2 Energies <================== 
	-----------------------------------------------------------
	 SCS Same-Spin Scale       =       0.3333333333333333 [-]
	 SCS Opposite-Spin Scale   =       1.2000000000000000 [-]
	 SCS Same-Spin Energy      =      -0.0414274480086486 [Eh]
	 SCS Opposite-Spin Energy  =      -0.5059436647005017 [Eh]
	 SCS Correlation Energy    =      -0.5473711127091503 [Eh]
	 SCS Total Energy          =    -157.8397758033657112 [Eh]
	-----------------------------------------------------------


  -Total Gradient:
     Atom            X                  Y                   Z
    ------   -----------------  -----------------  -----------------
       1        0.005088017174     0.003619370139    -0.003051488919
       2        0.005028129990    -0.004819172583     0.000777143191
       3        0.002946383527     0.002568356812     0.006028668341
       4       -0.016392950374    -0.005402022036    -0.003803911094
       5       -0.004681841065    -0.007050004744     0.000329598409
       6       -0.001558664636    -0.005246546402    -0.005542812575
       7        0.013279615256     0.017652928498     0.008289890145
       8        0.003947651791     0.006415787999     0.002016825518
       9       -0.000389705931     0.004616720818     0.007241633026
      10       -0.007350420122    -0.014993358191    -0.016587070956
      11       -0.004236772674     0.005479332678    -0.002062211595
      12        0.001608295998    -0.000462924351    -0.006662509103
      13       -0.005634609806    -0.003792241460    -0.001845351776
      14        0.008346870871     0.001413772822     0.014871597390


			-----------------------------------------
			 OPTKING 2.0: for geometry optimizations 
			  - R.A. King,  Bethel University        
			-----------------------------------------

	Previous internal coordinate definitions found.
	---Fragment 1 Geometry and Gradient---
	 H          -4.1572689330        0.2362496988        0.2014304147
	 H          -3.8903207709        3.3339625261       -1.0042311263
	 H          -3.3103790288        0.7190753606       -2.9888034910
	 C          -3.1118559707        1.4397489753       -1.0829137249
	 H           0.7233841809        2.6857383272       -1.6200729960
	 H          -0.1259825932        2.2027404652        1.5746139913
	 C          -0.3040493002        1.4694992861       -0.3300261506
	 H          -0.6941985094       -2.5940600460       -0.3629586190
	 H           1.8589417701       -1.4526474328       -2.1899174540
	 C           0.8244446374       -1.2208972436       -0.4368817817
	 H           3.4110408451       -3.5621898964        1.7105377641
	 H           1.6081740138       -1.4558344611        3.5606474839
	 H           4.1580599015       -0.3135634011        1.7396676595
	 C           2.6266126572       -1.6715095175        1.7976739659
	             0.0050880172        0.0036193701       -0.0030514889
	             0.0050281300       -0.0048191726        0.0007771432
	             0.0029463835        0.0025683568        0.0060286683
	            -0.0163929504       -0.0054020220       -0.0038039111
	            -0.0046818411       -0.0070500047        0.0003295984
	            -0.0015586646       -0.0052465464       -0.0055428126
	             0.0132796153        0.0176529285        0.0082898901
	             0.0039476518        0.0064157880        0.0020168255
	            -0.0003897059        0.0046167208        0.0072416330
	            -0.0073504201       -0.0149933582       -0.0165870710
	            -0.0042367727        0.0054793327       -0.0020622116
	             0.0016082960       -0.0004629244       -0.0066625091
	            -0.0056346098       -0.0037922415       -0.0018453518
	             0.0083468709        0.0014137728        0.0148715974

	---Fragment 1 Intrafragment Coordinates---
	 - Coordinate -           - BOHR/RAD -       - ANG/DEG -
	 R(1,4)           =         2.047154	       1.083307
	 R(2,4)           =         2.049450	       1.084522
	 R(3,4)           =         2.047241	       1.083354
	 R(4,7)           =         2.907147	       1.538396
	 R(5,7)           =         2.049165	       1.084371
	 R(6,7)           =         2.048659	       1.084104
	 R(7,10)          =         2.919443	       1.544903
	 R(8,10)          =         2.048736	       1.084144
	 R(9,10)          =         2.048665	       1.084107
	 R(10,14)         =         2.905873	       1.537722
	 R(11,14)         =         2.048803	       1.084180
	 R(12,14)         =         2.047391	       1.083432
	 R(13,14)         =         2.047612	       1.083549
	 B(1,4,2)         =         1.902126	     108.983799
	 B(1,4,3)         =         1.904552	     109.122765
	 B(1,4,7)         =         1.914265	     109.679287
	 B(2,4,3)         =         1.901032	     108.921085
	 B(2,4,7)         =         1.925658	     110.332053
	 B(3,4,7)         =         1.915967	     109.776796
	 B(4,7,5)         =         1.904234	     109.104555
	 B(4,7,6)         =         1.905388	     109.170688
	 B(4,7,10)        =         1.933096	     110.758269
	 B(5,7,6)         =         1.906336	     109.225020
	 B(5,7,10)        =         1.907218	     109.275521
	 B(6,7,10)        =         1.907378	     109.284730
	 B(7,10,8)        =         1.906903	     109.257495
	 B(7,10,9)        =         1.907902	     109.314737
	 B(7,10,14)       =         1.933160	     110.761894
	 B(8,10,9)        =         1.906425	     109.230088
	 B(8,10,14)       =         1.905017	     109.149430
	 B(9,10,14)       =         1.904245	     109.105177
	 B(10,14,11)      =         1.926069	     110.355643
	 B(10,14,12)      =         1.914866	     109.713760
	 B(10,14,13)      =         1.916885	     109.829429
	 B(11,14,12)      =         1.901053	     108.922338
	 B(11,14,13)      =         1.901216	     108.931681
	 B(12,14,13)      =         1.903470	     109.060820
	 D(1,4,7,5)       =        -3.136629	    -179.715626
	 D(1,4,7,6)       =        -1.054487	     -60.417675
	 D(1,4,7,10)      =         1.046505	      59.960294
	 D(2,4,7,5)       =        -1.041127	     -59.652164
	 D(2,4,7,6)       =         1.041015	      59.645787
	 D(2,4,7,10)      =        -3.141178	    -179.976244
	 D(3,4,7,5)       =         1.054103	      60.395638
	 D(3,4,7,6)       =         3.136245	     179.693588
	 D(3,4,7,10)      =        -1.045949	     -59.928442
	 D(4,7,10,8)      =        -0.346363	     -19.845120
	 D(4,7,10,9)      =         1.738977	      99.636060
	 D(4,7,10,14)     =        -2.445443	    -140.113547
	 D(5,7,10,8)      =        -2.444635	    -140.067263
	 D(5,7,10,9)      =        -0.359295	     -20.586083
	 D(5,7,10,14)     =         1.739470	      99.664310
	 D(6,7,10,8)      =         1.753443	     100.464901
	 D(6,7,10,9)      =        -2.444402	    -140.053919
	 D(6,7,10,14)     =        -0.345637	     -19.803526
	 D(7,10,14,11)    =         3.141593	     180.000000
	 D(7,10,14,12)    =         1.046778	      59.975944
	 D(7,10,14,13)    =        -1.045288	     -59.890602
	 D(8,10,14,11)    =         1.041389	      59.667217
	 D(8,10,14,12)    =        -1.053427	     -60.356894
	 D(8,10,14,13)    =         3.137693	     179.776560
	 D(9,10,14,11)    =        -1.040647	     -59.624662
	 D(9,10,14,12)    =        -3.135463	    -179.648773
	 D(9,10,14,13)    =         1.055657	      60.484681

	Current energy   :      -157.8383067553

	Energy change for the previous step:
		Projected    :        -0.0056064533
		Actual       :        -0.0041233567

	Performing BFGS update.
	Previous computed or guess Hessian on step 1.
	Steps to be used in Hessian update: 1
	Adding user-defined constraint: Fragment 1; Coordinate 49:
		Value =    -2.445443; Fixed value    =    -2.443460
		Force =     0.001041; Force constant =     0.525000
	Removing off-diagonal coupling between coordinate 49 and others.
	Taking RFO optimization step.
	Going to follow RFO solution 1.
	Using RFO vector 1.

	Determining step-restricting scale parameter for RS-RFO.
	Maximum step size allowed    0.10000

	 Iter      |step|        alpha        rfo_root  
	------------------------------------------------
	    0     0.20883       1.00000           1
	    1     0.16040       5.05770           1
	    2     0.12477      14.18974           1
	    3     0.10655      24.35928           1
	    4     0.10067      29.24767           1
	    5     0.10001      29.86338           1
	------------------------------------------------
	Norm of target step-size    0.10001
	Projected energy change by RFO approximation:        -0.0029018921

	Back-transformation to cartesian coordinates...
	Could not converge backtransformation.
	Using first guess instead.

	--- Internal Coordinate Step in ANG or DEG, aJ/ANG or AJ/DEG ---
	 ---------------------------------------------------------------------------
	   Coordinate                Previous        Force       Change         New 
	   ----------                --------       ------       ------       ------
	    1 R(1,4)          =      1.083307     0.054710     0.008398     1.091705
	    2 R(2,4)          =      1.084522     0.052185     0.007631     1.092153
	    3 R(3,4)          =      1.083354     0.056043     0.008508     1.091862
	    4 R(4,7)          =      1.538396    -0.026945    -0.006962     1.531434
	    5 R(5,7)          =      1.084371     0.055523     0.008377     1.092748
	    6 R(6,7)          =      1.084104     0.059042     0.009090     1.093194
	    7 R(7,10)         =      1.544903     0.000850    -0.001738     1.543164
	    8 R(8,10)         =      1.084144     0.058936     0.009072     1.093216
	    9 R(9,10)         =      1.084107     0.056976     0.008574     1.092680
	   10 R(10,14)        =      1.537722    -0.024308    -0.006442     1.531280
	   11 R(11,14)        =      1.084180     0.054299     0.007911     1.092091
	   12 R(12,14)        =      1.083432     0.054259     0.008323     1.091755
	   13 R(13,14)        =      1.083549     0.055010     0.008356     1.091905
	   14 B(1,4,2)        =    108.983799    -0.000191    -0.659479   108.324320
	   15 B(1,4,3)        =    109.122765    -0.000178    -0.759729   108.363037
	   16 B(1,4,7)        =    109.679287     0.000131     0.530648   110.209935
	   17 B(2,4,3)        =    108.921085    -0.000200    -0.683465   108.237620
	   18 B(2,4,7)        =    110.332053     0.000269     0.872182   111.204235
	   19 B(3,4,7)        =    109.776796     0.000160     0.639380   110.416176
	   20 B(4,7,5)        =    109.104555    -0.000085    -0.006047   109.098507
	   21 B(4,7,6)        =    109.170688    -0.000099    -0.234489   108.936199
	   22 B(4,7,10)       =    110.758269     0.000384     1.182495   111.940764
	   23 B(5,7,6)        =    109.225020    -0.000106    -1.061784   108.163236
	   24 B(5,7,10)       =    109.275521    -0.000045     0.096662   109.372183
	   25 B(6,7,10)       =    109.284730    -0.000055    -0.032011   109.252720
	   26 B(7,10,8)       =    109.257495    -0.000052    -0.017810   109.239685
	   27 B(7,10,9)       =    109.314737    -0.000050     0.074337   109.389075
	   28 B(7,10,14)      =    110.761894     0.000384     1.180827   111.942720
	   29 B(8,10,9)       =    109.230088    -0.000107    -1.064306   108.165782
	   30 B(8,10,14)      =    109.149430    -0.000098    -0.228805   108.920626
	   31 B(9,10,14)      =    109.105177    -0.000083     0.000475   109.105653
	   32 B(10,14,11)     =    110.355643     0.000266     0.859633   111.215276
	   33 B(10,14,12)     =    109.713760     0.000123     0.504706   110.218465
	   34 B(10,14,13)     =    109.829429     0.000153     0.611005   110.440435
	   35 B(11,14,12)     =    108.922338    -0.000183    -0.627388   108.294950
	   36 B(11,14,13)     =    108.931681    -0.000199    -0.683403   108.248278
	   37 B(12,14,13)     =    109.060820    -0.000170    -0.724884   108.335936
	   38 D(1,4,7,5)      =   -179.715626     0.000026     0.746739  -178.968887
	   39 D(1,4,7,6)      =    -60.417675    -0.000029    -0.675804   -61.093479
	   40 D(1,4,7,10)     =     59.960294    -0.000004    -0.121530    59.838764
	   41 D(2,4,7,5)      =    -59.652164     0.000029     0.826844   -58.825320
	   42 D(2,4,7,6)      =     59.645787    -0.000025    -0.595699    59.050087
	   43 D(2,4,7,10)     =   -179.976244    -0.000000    -0.041425  -180.017669
	   44 D(3,4,7,5)      =     60.395638     0.000035     0.950607    61.346245
	   45 D(3,4,7,6)      =    179.693588    -0.000020    -0.471936   179.221652
	   46 D(3,4,7,10)     =    -59.928442     0.000005     0.082338   -59.846104
	   47 D(4,7,10,8)     =    -19.845120     0.000013     0.311262   -19.533858
	   48 D(4,7,10,9)     =     99.636060    -0.000031    -0.947461    98.688599
	   49 D(4,7,10,14)    =   -140.113547    -0.000007    -0.141920  -140.255468
	   50 D(5,7,10,8)     =   -140.067263    -0.000012    -0.500726  -140.567989
	   51 D(5,7,10,9)     =    -20.586083    -0.000056    -1.759449   -22.345532
	   52 D(5,7,10,14)    =     99.664310    -0.000031    -0.953908    98.710402
	   53 D(6,7,10,8)     =    100.464901     0.000032     0.749972   101.214873
	   54 D(6,7,10,9)     =   -140.053919    -0.000012    -0.508751  -140.562670
	   55 D(6,7,10,14)    =    -19.803526     0.000012     0.296790   -19.506736
	   56 D(7,10,14,11)   =    180.000000     0.000001    -0.015496   179.984504
	   57 D(7,10,14,12)   =     59.975944    -0.000004    -0.110993    59.864951
	   58 D(7,10,14,13)   =    -59.890602     0.000005     0.083474   -59.807128
	   59 D(8,10,14,11)   =     59.667217    -0.000025    -0.589351    59.077866
	   60 D(8,10,14,12)   =    -60.356894    -0.000029    -0.684793   -61.041687
	   61 D(8,10,14,13)   =    179.776560    -0.000021    -0.490326   179.286234
	   62 D(9,10,14,11)   =    -59.624662     0.000029     0.828905   -58.795757
	   63 D(9,10,14,12)   =   -179.648773     0.000025     0.733462  -178.915310
	   64 D(9,10,14,13)   =     60.484681     0.000034     0.927929    61.412610
	 ---------------------------------------------------------------------------
	 Forces used to impose fixed constraints are not included.
	  Forces zeroed: 49 

  ==> Convergence Check <==

  Measures of convergence in internal coordinates in au.
  Criteria marked as inactive (o), active & met (*), and active & unmet ( ).
  ---------------------------------------------------------------------------------------------
   Step     Total Energy     Delta E     MAX Force     RMS Force      MAX Disp      RMS Disp   
  ---------------------------------------------------------------------------------------------
    Convergence Criteria    1.00e-06 *    3.00e-04 *             o    1.20e-03 *             o
  ---------------------------------------------------------------------------------------------
      2    -157.83830676   -4.12e-03      7.17e-03      3.23e-03 o    3.07e-02      1.25e-02 o  ~
  ---------------------------------------------------------------------------------------------

	Writing optimization data to binary file.
	Structure for next step:
	Cartesian Geometry (in Angstrom)
	    H    -2.2211719328   0.1349056532   0.1013182128
	    H    -2.0692625138   1.7773868611  -0.5417300931
	    H    -1.7685450388   0.3853419152  -1.5920321649
	    C    -1.6486093874   0.7701204319  -0.5772794226
	    H     0.3821589723   1.4275998288  -0.8568971197
	    H    -0.0765866048   1.1746656037   0.8341125575
	    C    -0.1700703315   0.7729137265  -0.1782754827
	    H    -0.3615505486  -1.3838308975  -0.1870777770
	    H     0.9852735714  -0.7744190576  -1.1610331862
	    C     0.4417093521  -0.6431178571  -0.2222849512
	    H     1.8224585342  -1.8952784086   0.9061755695
	    H     0.8669099274  -0.7826152352   1.8971559549
	    H     2.2175420943  -0.1704422697   0.9300676765
	    C     1.3968588988  -0.8904334586   0.9487581964
			--------------------------
			 OPTKING Finished Execution 
			--------------------------

    Structure for next step:
    Molecular point group: c1
    Full point group: C1

    Geometry (in Angstrom), charge = 0, multiplicity = 1:

    H           -2.221415494425     0.134797638822     0.101599515425
    H           -2.069506075431     1.777278846790    -0.541448790520
    H           -1.768788600480     0.385233900823    -1.591750862296
    C           -1.648852949071     0.770012417532    -0.576998119963
    H            0.381915410640     1.427491814435    -0.856615817066
    H           -0.076830166419     1.174557589331     0.834393860095
    C           -0.170313893134     0.772805712146    -0.177994180081
    H           -0.361794110276    -1.383938911794    -0.186796474457
    H            0.985030009806    -0.774527071934    -1.160751883638
    C            0.441465790462    -0.643225871454    -0.222003648577
    H            1.822214972547    -1.895386422899     0.906456872049
    H            0.866666365741    -0.782723249585     1.897437257532
    H            2.217298532678    -0.170550283998     0.930348979087
    C            1.396615337117    -0.890541472925     0.949039499003

gradient() will perform analytic gradient computation.
    SCF Algorithm Type (re)set to DF.

*** tstart() called on lski1497
*** at Thu Feb 16 16:29:35 2017


         ---------------------------------------------------------
                                   SCF
            by Justin Turney, Rob Parrish, and Andy Simmonett
                              RHF Reference
                        1 Threads,   1000 MiB Core
         ---------------------------------------------------------

  ==> Geometry <==

    Molecular point group: c1
    Full point group: C1

    Geometry (in Angstrom), charge = 0, multiplicity = 1:

       Center              X                  Y                   Z               Mass       
    ------------   -----------------  -----------------  -----------------  -----------------
           H         -2.221415494425     0.134797638822     0.101599515425     1.007825032070
           H         -2.069506075431     1.777278846790    -0.541448790520     1.007825032070
           H         -1.768788600480     0.385233900823    -1.591750862296     1.007825032070
           C         -1.648852949071     0.770012417532    -0.576998119963    12.000000000000
           H          0.381915410640     1.427491814435    -0.856615817066     1.007825032070
           H         -0.076830166419     1.174557589331     0.834393860095     1.007825032070
           C         -0.170313893134     0.772805712146    -0.177994180081    12.000000000000
           H         -0.361794110276    -1.383938911794    -0.186796474457     1.007825032070
           H          0.985030009806    -0.774527071934    -1.160751883638     1.007825032070
           C          0.441465790462    -0.643225871454    -0.222003648577    12.000000000000
           H          1.822214972547    -1.895386422899     0.906456872049     1.007825032070
           H          0.866666365741    -0.782723249585     1.897437257532     1.007825032070
           H          2.217298532678    -0.170550283998     0.930348979087     1.007825032070
           C          1.396615337117    -0.890541472925     0.949039499003    12.000000000000

  Running in c1 symmetry.

  Rotational constants: A =      0.67910  B =      0.12418  C =      0.11981 [cm^-1]
  Rotational constants: A =  20358.96990  B =   3722.71350  C =   3591.86636 [MHz]
  Nuclear repulsion =  130.848302421446022

  Charge       = 0
  Multiplicity = 1
  Electrons    = 34
  Nalpha       = 17
  Nbeta        = 17

  ==> Algorithm <==

  SCF Algorithm Type is DF.
  DIIS enabled.
  MOM disabled.
  Fractional occupation disabled.
  Guess Type is READ.
  Energy threshold   = 1.00e-10
  Density threshold  = 1.00e-10
  Integral threshold = 0.00e+00

  ==> Primary Basis <==

  Basis Set: 6-31G(D)
    Number of shells: 44
    Number of basis function: 80
    Number of Cartesian functions: 80
    Spherical Harmonics?: false
    Max angular momentum: 2

  ==> Pre-Iterations <==

   -------------------------------------------------------
    Irrep   Nso     Nmo     Nalpha   Nbeta   Ndocc  Nsocc
   -------------------------------------------------------
     A         80      80       0       0       0       0
   -------------------------------------------------------
    Total      80      80      17      17      17       0
   -------------------------------------------------------

  ==> Integral Setup <==

  ==> DFJK: Density-Fitted J/K Matrices <==

    J tasked:                  Yes
    K tasked:                  Yes
    wK tasked:                  No
    OpenMP threads:              1
    Integrals threads:           1
    Memory (MB):               715
    Algorithm:                Core
    Integral Cache:           NONE
    Schwarz Cutoff:          1E-12
    Fitting Condition:       1E-12

   => Auxiliary Basis Set <=

  Basis Set: 
    Number of shells: 186
    Number of basis function: 574
    Number of Cartesian functions: 574
    Spherical Harmonics?: false
    Max angular momentum: 3

  Minimum eigenvalue in the overlap matrix is 4.7428040239E-03.
  Using Symmetric Orthogonalization.
  SCF Guess was Projection but file not found.
  Switching over to SAD guess.

  SCF Guess: Superposition of Atomic Densities via on-the-fly atomic UHF.

  ==> Iterations <==

                           Total Energy        Delta E     RMS |[F,P]|

   @DF-RHF iter   0:  -158.84067569291898   -1.58841e+02   4.62023e-02 
   @DF-RHF iter   1:  -157.20363507992926    1.63704e+00   3.93314e-03 
   @DF-RHF iter   2:  -157.28474713668567   -8.11121e-02   1.11077e-03 DIIS
   @DF-RHF iter   3:  -157.29280064436915   -8.05351e-03   2.79146e-04 DIIS
   @DF-RHF iter   4:  -157.29323264276007   -4.31998e-04   7.82511e-05 DIIS
   @DF-RHF iter   5:  -157.29327247541181   -3.98327e-05   1.30544e-05 DIIS
   @DF-RHF iter   6:  -157.29327382274829   -1.34734e-06   1.78225e-06 DIIS
   @DF-RHF iter   7:  -157.29327384494246   -2.21942e-08   5.40275e-07 DIIS
   @DF-RHF iter   8:  -157.29327384635934   -1.41688e-09   1.35794e-07 DIIS
   @DF-RHF iter   9:  -157.29327384648514   -1.25794e-10   2.94025e-08 DIIS
   @DF-RHF iter  10:  -157.29327384649224   -7.10543e-12   4.96506e-09 DIIS
   @DF-RHF iter  11:  -157.29327384649258   -3.41061e-13   8.16747e-10 DIIS
   @DF-RHF iter  12:  -157.29327384649264   -5.68434e-14   2.09689e-10 DIIS
   @DF-RHF iter  13:  -157.29327384649247    1.70530e-13   6.53595e-11 DIIS

  ==> Post-Iterations <==

    Orbital Energies (a.u.)
    -----------------------

    Doubly Occupied:                                                      

       1A    -11.214927     2A    -11.214370     3A    -11.209596  
       4A    -11.209582     5A     -1.067314     6A     -0.978455  
       7A     -0.858374     8A     -0.786119     9A     -0.635794  
      10A     -0.588944    11A     -0.580822    12A     -0.556967  
      13A     -0.509396    14A     -0.502923    15A     -0.464875  
      16A     -0.460477    17A     -0.450740  

    Virtual:                                                              

      18A      0.232439    19A      0.264548    20A      0.285610  
      21A      0.294458    22A      0.321681    23A      0.327497  
      24A      0.328208    25A      0.337286    26A      0.344832  
      27A      0.352382    28A      0.417289    29A      0.444561  
      30A      0.449767    31A      0.707736    32A      0.715482  
      33A      0.743129    34A      0.771283    35A      0.797008  
      36A      0.840719    37A      0.844673    38A      0.935743  
      39A      0.943413    40A      1.003428    41A      1.077068  
      42A      1.080964    43A      1.148177    44A      1.168185  
      45A      1.168797    46A      1.186609    47A      1.192686  
      48A      1.201561    49A      1.232802    50A      1.234563  
      51A      1.241690    52A      1.266439    53A      1.266576  
      54A      1.497546    55A      1.652319    56A      1.736578  
      57A      1.750734    58A      1.919146    59A      1.947012  
      60A      2.104871    61A      2.204645    62A      2.211727  
      63A      2.289230    64A      2.301538    65A      2.325205  
      66A      2.425207    67A      2.490530    68A      2.603763  
      69A      2.632474    70A      2.681643    71A      2.688621  
      72A      2.728333    73A      2.767841    74A      2.886691  
      75A      3.021391    76A      3.085006    77A      4.559091  
      78A      4.657152    79A      4.795193    80A      4.957540  

    Final Occupation by Irrep:
              A 
    DOCC [    17 ]

  Energy converged.

  @DF-RHF Final Energy:  -157.29327384649247

   => Energetics <=

    Nuclear Repulsion Energy =            130.8483024214460215
    One-Electron Energy =                -469.7038025614035632
    Two-Electron Energy =                 181.5622262934651303
    DFT Exchange-Correlation Energy =       0.0000000000000000
    Empirical Dispersion Energy =           0.0000000000000000
    PCM Polarization Energy =               0.0000000000000000
    EFP Energy =                            0.0000000000000000
    Total Energy =                       -157.2932738464924114


  Saving occupied orbitals to File 180.

*** tstop() called on lski1497 at Thu Feb 16 16:29:41 2017
Module time:
	user time   =       5.44 seconds =       0.09 minutes
	system time =       0.18 seconds =       0.00 minutes
	total time  =          6 seconds =       0.10 minutes
Total time:
	user time   =      55.89 seconds =       0.93 minutes
	system time =       1.57 seconds =       0.03 minutes
	total time  =         65 seconds =       1.08 minutes


Properties will be evaluated at   0.000000,   0.000000,   0.000000 Bohr

Properties computed using the SCF density matrix

  Nuclear Dipole Moment: (a.u.)
     X:    -0.2111      Y:    -0.1010      Z:     0.3121

  Electronic Dipole Moment: (a.u.)
     X:     0.2226      Y:     0.1065      Z:    -0.3290

  Dipole Moment: (a.u.)
     X:     0.0115      Y:     0.0055      Z:    -0.0170     Total:     0.0212

  Dipole Moment: (Debye)
     X:     0.0292      Y:     0.0139      Z:    -0.0432     Total:     0.0540


  //>>>>>>>>>>>>>>>>>>>>>>>>>>>>>>>>>>>//
  //               DFMP2               //
  //<<<<<<<<<<<<<<<<<<<<<<<<<<<<<<<<<<<//


*** tstart() called on lski1497
*** at Thu Feb 16 16:29:41 2017


*** tstop() called on lski1497 at Thu Feb 16 16:29:42 2017
Module time:
	user time   =       0.59 seconds =       0.01 minutes
	system time =       0.00 seconds =       0.00 minutes
	total time  =          1 seconds =       0.02 minutes
Total time:
	user time   =      56.50 seconds =       0.94 minutes
	system time =       1.57 seconds =       0.03 minutes
	total time  =         66 seconds =       1.10 minutes
	 --------------------------------------------------------
	                          DF-MP2                         
	      2nd-Order Density-Fitted Moller-Plesset Theory     
	              RMP2 Wavefunction,   1 Threads             
	                                                         
	        Rob Parrish, Justin Turney, Andy Simmonett,      
	           Ed Hohenstein, and C. David Sherrill          
	 --------------------------------------------------------

   => Auxiliary Basis Set <=

  Basis Set: 
    Number of shells: 132
    Number of basis function: 364
    Number of Cartesian functions: 414
    Spherical Harmonics?: true
    Max angular momentum: 3

	 --------------------------------------------------------
	                 NBF =    80, NAUX =   364
	 --------------------------------------------------------
	   CLASS    FOCC     OCC    AOCC    AVIR     VIR    FVIR
	   PAIRS       0      17      17      63      63       0
	 --------------------------------------------------------

DGAS Warning! /src/lib/libfock/apps.cc:80 is not currently checking restricted

         ------------------------------------------------------------
                                     CPHF                           
                                  Rob Parrish                       
         ------------------------------------------------------------

  ==> Geometry <==

    Molecular point group: c1
    Full point group: C1

    Geometry (in Angstrom), charge = 0, multiplicity = 1:

       Center              X                  Y                   Z               Mass       
    ------------   -----------------  -----------------  -----------------  -----------------
           H         -2.221415494425     0.134797638822     0.101599515425     1.007825032070
           H         -2.069506075431     1.777278846790    -0.541448790520     1.007825032070
           H         -1.768788600480     0.385233900823    -1.591750862296     1.007825032070
           C         -1.648852949071     0.770012417532    -0.576998119963    12.000000000000
           H          0.381915410640     1.427491814435    -0.856615817066     1.007825032070
           H         -0.076830166419     1.174557589331     0.834393860095     1.007825032070
           C         -0.170313893134     0.772805712146    -0.177994180081    12.000000000000
           H         -0.361794110276    -1.383938911794    -0.186796474457     1.007825032070
           H          0.985030009806    -0.774527071934    -1.160751883638     1.007825032070
           C          0.441465790462    -0.643225871454    -0.222003648577    12.000000000000
           H          1.822214972547    -1.895386422899     0.906456872049     1.007825032070
           H          0.866666365741    -0.782723249585     1.897437257532     1.007825032070
           H          2.217298532678    -0.170550283998     0.930348979087     1.007825032070
           C          1.396615337117    -0.890541472925     0.949039499003    12.000000000000

  Nuclear repulsion =  130.848302421446022
  Reference energy  = -157.293273846492468

  ==> Basis Set <==

  Basis Set: 6-31G(D)
    Number of shells: 44
    Number of basis function: 80
    Number of Cartesian functions: 80
    Spherical Harmonics?: false
    Max angular momentum: 2

  ==> CGRSolver (by Rob Parrish) <==

   Number of roots    =         1
   Preconditioning    =    JACOBI
   Convergence cutoff =     1E-06
   Maximum iterations =       100

  ==> CPHFRHamiltonian (by Rob Parrish) <== 

  ==> DFJK: Density-Fitted J/K Matrices <==

    J tasked:                  Yes
    K tasked:                  Yes
[...]
       1        0.000055508002    -0.000008341874    -0.000013263216
       2        0.000004162593    -0.000021332295     0.000004283530
       3       -0.000022671862     0.000029226914     0.000006816707
       4       -0.000817295454    -0.000385331715     0.002704909189
       5       -0.000106784285     0.000049757223    -0.000002733104
       6        0.000117048041    -0.000044687525     0.000047106430
       7        0.000153071017     0.000071189754    -0.003265899838
       8       -0.000101804970     0.000051996641    -0.000071420507
       9        0.000062134347    -0.000071809498     0.000073088000
      10        0.002783966977     0.001345022069    -0.001060274440
      11       -0.000013370261     0.000017817029     0.000009560840
      12       -0.000012925828     0.000028701836    -0.000047765499
      13        0.000013420378    -0.000034341826     0.000010437758
      14       -0.002114458696    -0.001027866733     0.001605154150


			-----------------------------------------
			 OPTKING 2.0: for geometry optimizations 
			  - R.A. King,  Bethel University        
			-----------------------------------------

	Previous internal coordinate definitions found.
	---Fragment 1 Geometry and Gradient---
	 H          -4.2223745700        0.2723293623        0.1854718371
	 H          -3.9158994953        3.3590604475       -1.0638306200
	 H          -3.3700319072        0.7015272073       -3.0140343168
	 C          -3.1191469623        1.4524182757       -1.1036409015
	 H           0.7344307065        2.7377987496       -1.5536915370
	 H          -0.1850918106        2.2100293530        1.5787573563
	 C          -0.3390275175        1.4469184087       -0.3426325980
	 H          -0.6647979018       -2.6194097400       -0.3280509454
	 H           1.8200343486       -1.5072543397       -2.2055537809
	 C           0.8465330855       -1.2024242420       -0.4042449454
	 H           3.4845521117       -3.5668590339        1.6983241917
	 H           1.6537257420       -1.5093241465        3.5949035828
	 H           4.1964531279       -0.3038751823        1.7979881232
	 C           2.6510305265       -1.6779336421        1.7925446629
	             0.0000555080       -0.0000083419       -0.0000132632
	             0.0000041626       -0.0000213323        0.0000042835
	            -0.0000226719        0.0000292269        0.0000068167
	            -0.0008172955       -0.0003853317        0.0027049092
	            -0.0001067843        0.0000497572       -0.0000027331
	             0.0001170480       -0.0000446875        0.0000471064
	             0.0001530710        0.0000711898       -0.0032658998
	            -0.0001018050        0.0000519966       -0.0000714205
	             0.0000621343       -0.0000718095        0.0000730880
	             0.0027839670        0.0013450221       -0.0010602744
	            -0.0000133703        0.0000178170        0.0000095608
	            -0.0000129258        0.0000287018       -0.0000477655
	             0.0000134204       -0.0000343418        0.0000104378
	            -0.0021144587       -0.0010278667        0.0016051542

	---Fragment 1 Intrafragment Coordinates---
	 - Coordinate -           - BOHR/RAD -       - ANG/DEG -
	 R(1,4)           =         2.066769	       1.093687
	 R(2,4)           =         2.066805	       1.093706
	 R(3,4)           =         2.067942	       1.094308
	 R(4,7)           =         2.882400	       1.525300
	 R(5,7)           =         2.070108	       1.095454
	 R(6,7)           =         2.073107	       1.097041
	 R(7,10)          =         2.903165	       1.536289
	 R(8,10)          =         2.073108	       1.097041
	 R(9,10)          =         2.070106	       1.095453
	 R(10,14)         =         2.882396	       1.525298
	 R(11,14)         =         2.066803	       1.093705
	 R(12,14)         =         2.066771	       1.093688
	 R(13,14)         =         2.067945	       1.094309
	 B(1,4,2)         =         1.884879	     107.995606
	 B(1,4,3)         =         1.879815	     107.705442
	 B(1,4,7)         =         1.927391	     110.431369
	 B(2,4,3)         =         1.881782	     107.818147
	 B(2,4,7)         =         1.948186	     111.622836
	 B(3,4,7)         =         1.939308	     111.114177
	 B(4,7,5)         =         1.922507	     110.151548
	 B(4,7,6)         =         1.891900	     108.397858
	 B(4,7,10)        =         1.971445	     112.955479
	 B(5,7,6)         =         1.848516	     105.912168
	 B(5,7,10)        =         1.922914	     110.174835
	 B(6,7,10)        =         1.902087	     108.981557
	 B(7,10,8)        =         1.902085	     108.981429
	 B(7,10,9)        =         1.922916	     110.174944
	 B(7,10,14)       =         1.971458	     112.956223
	 B(8,10,9)        =         1.848517	     105.912235
	 B(8,10,14)       =         1.891911	     108.398534
	 B(9,10,14)       =         1.922481	     110.150064
	 B(10,14,11)      =         1.948196	     111.623402
	 B(10,14,12)      =         1.927392	     110.431426
	 B(10,14,13)      =         1.939327	     111.115265
	 B(11,14,12)      =         1.884853	     107.994148
	 B(11,14,13)      =         1.881787	     107.818461
	 B(12,14,13)      =         1.879803	     107.704768
	 D(1,4,7,5)       =        -3.070267	    -175.913316
	 D(1,4,7,6)       =        -1.055165	     -60.456502
	 D(1,4,7,10)      =         1.054477	      60.417107
	 D(2,4,7,5)       =        -0.973210	     -55.760822
	 D(2,4,7,6)       =         1.041892	      59.695992
	 D(2,4,7,10)      =        -3.131651	    -179.430398
	 D(3,4,7,5)       =         1.128029	      64.631300
	 D(3,4,7,6)       =        -3.140055	    -179.911886
	 D(3,4,7,10)      =        -1.030412	     -59.038276
	 D(4,7,10,8)      =        -0.346466	     -19.851064
	 D(4,7,10,9)      =         1.674663	      95.951113
	 D(4,7,10,14)     =        -2.450328	    -140.393467
	 D(5,7,10,8)      =        -2.504684	    -143.507801
	 D(5,7,10,9)      =        -0.483554	     -27.705625
	 D(5,7,10,14)     =         1.674640	      95.949796
	 D(6,7,10,8)      =         1.757374	     100.690090
	 D(6,7,10,9)      =        -2.504682	    -143.507734
	 D(6,7,10,14)     =        -0.346488	     -19.852313
	 D(7,10,14,11)    =        -3.131913	    -179.445388
	 D(7,10,14,12)    =         1.054241	      60.403545
	 D(7,10,14,13)    =        -1.030647	     -59.051736
	 D(8,10,14,11)    =         1.041616	      59.680219
	 D(8,10,14,12)    =        -1.055415	     -60.470848
	 D(8,10,14,13)    =        -3.140303	    -179.926128
	 D(9,10,14,11)    =        -0.973479	     -55.776250
	 D(9,10,14,12)    =        -3.070511	    -175.927317
	 D(9,10,14,13)    =         1.127786	      64.617403

	Current energy   :      -157.8403587931

	Energy change for the previous step:
		Projected    :        -0.0000007741
		Actual       :         0.0000015325

	Performing BFGS update.
	Previous computed or guess Hessian on step 1.
	Steps to be used in Hessian update: 11 10
	Adding user-defined constraint: Fragment 1; Coordinate 49:
		Value =    -2.450328; Fixed value    =    -2.443460
		Force =     0.005323; Force constant =     0.775000
	Removing off-diagonal coupling between coordinate 49 and others.
	Taking RFO optimization step.
	Going to follow RFO solution 1.
	Rejecting RFO root 1 because normalization gives large value.
	Rejecting RFO root 2 because normalization gives large value.
	Rejecting RFO root 3 because normalization gives large value.
	Rejecting RFO root 4 because normalization gives large value.
	Rejecting RFO root 5 because normalization gives large value.
	Rejecting RFO root 6 because normalization gives large value.
	Rejecting RFO root 7 because normalization gives large value.
	Rejecting RFO root 8 because normalization gives large value.
	Rejecting RFO root 9 because normalization gives large value.
	Rejecting RFO root 10 because normalization gives large value.
	Rejecting RFO root 11 because normalization gives large value.
	Rejecting RFO root 12 because normalization gives large value.
	Rejecting RFO root 13 because normalization gives large value.
	Rejecting RFO root 14 because normalization gives large value.
	Rejecting RFO root 15 because normalization gives large value.
	Rejecting RFO root 16 because normalization gives large value.
	Rejecting RFO root 17 because normalization gives large value.
	Rejecting RFO root 18 because normalization gives large value.
	Rejecting RFO root 19 because normalization gives large value.
	Rejecting RFO root 20 because normalization gives large value.
	Rejecting RFO root 21 because normalization gives large value.
	Rejecting RFO root 22 because normalization gives large value.
	Rejecting RFO root 23 because normalization gives large value.
	Rejecting RFO root 24 because normalization gives large value.
	Rejecting RFO root 25 because normalization gives large value.
	Rejecting RFO root 26 because normalization gives large value.
	Rejecting RFO root 27 because normalization gives large value.
	Rejecting RFO root 28 because normalization gives large value.
	Rejecting RFO root 29 because normalization gives large value.
	Rejecting RFO root 30 because normalization gives large value.
	Using RFO vector 31.
	Norm of target step-size    0.00400
	Projected energy change by RFO approximation:         0.0000009458

	Back-transformation to cartesian coordinates...
	Could not converge backtransformation.
	Using first guess instead.

	--- Internal Coordinate Step in ANG or DEG, aJ/ANG or AJ/DEG ---
	 ---------------------------------------------------------------------------
	   Coordinate                Previous        Force       Change         New 
	   ----------                --------       ------       ------       ------
	    1 R(1,4)          =      1.093687     0.000273    -0.000030     1.093657
	    2 R(2,4)          =      1.093706     0.000174    -0.000035     1.093671
	    3 R(3,4)          =      1.094308     0.000118    -0.000030     1.094278
	    4 R(4,7)          =      1.525300    -0.000314    -0.000005     1.525295
	    5 R(5,7)          =      1.095454     0.000187    -0.000005     1.095449
	    6 R(6,7)          =      1.097041    -0.000296     0.000010     1.097051
	    7 R(7,10)         =      1.536289     0.000338    -0.000064     1.536225
	    8 R(8,10)         =      1.097041    -0.000297     0.000010     1.097051
	    9 R(9,10)         =      1.095453     0.000196    -0.000006     1.095447
	   10 R(10,14)        =      1.525298    -0.000311    -0.000007     1.525291
	   11 R(11,14)        =      1.093705     0.000181    -0.000037     1.093668
	   12 R(12,14)        =      1.093688     0.000273    -0.000029     1.093659
	   13 R(13,14)        =      1.094309     0.000106    -0.000029     1.094280
	   14 B(1,4,2)        =    107.995606    -0.000002     0.002324   107.997930
	   15 B(1,4,3)        =    107.705442    -0.000001     0.001728   107.707169
	   16 B(1,4,7)        =    110.431369     0.000005     0.003145   110.434515
	   17 B(2,4,3)        =    107.818147     0.000002     0.002198   107.820345
	   18 B(2,4,7)        =    111.622836    -0.000001    -0.004086   111.618750
	   19 B(3,4,7)        =    111.114177    -0.000004    -0.004950   111.109228
	   20 B(4,7,5)        =    110.151548     0.000009    -0.033002   110.118546
	   21 B(4,7,6)        =    108.397858    -0.000010     0.023767   108.421625
	   22 B(4,7,10)       =    112.955479    -0.000001     0.008014   112.963493
	   23 B(5,7,6)        =    105.912168     0.000000    -0.012175   105.899993
	   24 B(5,7,10)       =    110.174835    -0.000009     0.031816   110.206652
	   25 B(6,7,10)       =    108.981557     0.000009    -0.019800   108.961756
	   26 B(7,10,8)       =    108.981429     0.000009    -0.018722   108.962707
	   27 B(7,10,9)       =    110.174944    -0.000009     0.030848   110.205792
	   28 B(7,10,14)      =    112.956223    -0.000001     0.008563   112.964786
	   29 B(8,10,9)       =    105.912235     0.000000    -0.011908   105.900327
	   30 B(8,10,14)      =    108.398534    -0.000010     0.024250   108.422784
	   31 B(9,10,14)      =    110.150064     0.000009    -0.034370   110.115693
	   32 B(10,14,11)     =    111.623402    -0.000001    -0.004485   111.618917
	   33 B(10,14,12)     =    110.431426     0.000005     0.003626   110.435053
	   34 B(10,14,13)     =    111.115265    -0.000004    -0.005338   111.109927
	   35 B(11,14,12)     =    107.994148    -0.000002     0.002563   107.996711
	   36 B(11,14,13)     =    107.818461     0.000002     0.002208   107.820669
	   37 B(12,14,13)     =    107.704768    -0.000000     0.001806   107.706575
	   38 D(1,4,7,5)      =   -175.913316    -0.000000     0.052776  -175.860541
	   39 D(1,4,7,6)      =    -60.456502    -0.000000     0.033711   -60.422791
	   40 D(1,4,7,10)     =     60.417107     0.000001     0.030338    60.447445
	   41 D(2,4,7,5)      =    -55.760822    -0.000000     0.055131   -55.705690
	   42 D(2,4,7,6)      =     59.695992    -0.000000     0.036067    59.732059
	   43 D(2,4,7,10)     =   -179.430398     0.000001     0.032694  -179.397704
	   44 D(3,4,7,5)      =     64.631300    -0.000000     0.051754    64.683054
	   45 D(3,4,7,6)      =   -179.911886    -0.000000     0.032690  -179.879196
	   46 D(3,4,7,10)     =    -59.038276     0.000001     0.029317   -59.008960
	   47 D(4,7,10,8)     =    -19.851064     0.000000     0.023328   -19.827736
	   48 D(4,7,10,9)     =     95.951113     0.000001     0.015502    95.966614
	   49 D(4,7,10,14)    =   -140.393467     0.000002     0.000093  -140.393374
	   50 D(5,7,10,8)     =   -143.507801    -0.000001     0.036619  -143.471182
	   51 D(5,7,10,9)     =    -27.705625    -0.000001     0.028793   -27.676832
	   52 D(5,7,10,14)    =     95.949796     0.000001     0.013384    95.963180
	   53 D(6,7,10,8)     =    100.690090    -0.000001     0.044846   100.734936
	   54 D(6,7,10,9)     =   -143.507734    -0.000001     0.037019  -143.470714
	   55 D(6,7,10,14)    =    -19.852313     0.000001     0.021611   -19.830703
	   56 D(7,10,14,11)   =   -179.445388     0.000001     0.045426  -179.399963
	   57 D(7,10,14,12)   =     60.403545     0.000001     0.042708    60.446253
	   58 D(7,10,14,13)   =    -59.051736     0.000001     0.041524   -59.010211
	   59 D(8,10,14,11)   =     59.680219    -0.000000     0.046751    59.726970
	   60 D(8,10,14,12)   =    -60.470848    -0.000000     0.044033   -60.426815
	   61 D(8,10,14,13)   =   -179.926128    -0.000000     0.042849  -179.883279
	   62 D(9,10,14,11)   =    -55.776250    -0.000000     0.065966   -55.710284
	   63 D(9,10,14,12)   =   -175.927317    -0.000000     0.063248  -175.864068
	   64 D(9,10,14,13)   =     64.617403    -0.000000     0.062065    64.679467
	 ---------------------------------------------------------------------------
	 Forces used to impose fixed constraints are not included.
	  Forces zeroed: 49 

  ==> Convergence Check <==

  Measures of convergence in internal coordinates in au.
  Criteria marked as inactive (o), active & met (*), and active & unmet ( ).
  ---------------------------------------------------------------------------------------------
   Step     Total Energy     Delta E     MAX Force     RMS Force      MAX Disp      RMS Disp   
  ---------------------------------------------------------------------------------------------
    Convergence Criteria    1.00e-06 *    3.00e-04 *             o    1.20e-03 *             o
  ---------------------------------------------------------------------------------------------
     12    -157.84035879    1.53e-06      1.27e-04 *    5.28e-05 o    1.15e-03 *    5.00e-04 o  ~
  ---------------------------------------------------------------------------------------------


  **** Optimization is complete! (in 12 steps) ****

  ==> Optimization Summary <==

  Measures of convergence in internal coordinates in au.
  --------------------------------------------------------------------------------------------------------------- ~
   Step         Total Energy             Delta E       MAX Force       RMS Force        MAX Disp        RMS Disp  ~
  --------------------------------------------------------------------------------------------------------------- ~
      1    -157.834183398526   -157.834183398526      0.01739647      0.00728936      0.02725994      0.01250962  ~
      2    -157.838306755266     -0.004123356740      0.00716639      0.00322753      0.03070818      0.01250141  ~
      3    -157.839819095314     -0.001512340048      0.00229223      0.00100542      0.04741800      0.01251824  ~
      4    -157.840256496296     -0.000437400982      0.00124147      0.00032755      0.03676640      0.01249448  ~
      5    -157.840360122133     -0.000103625837      0.00018286      0.00007336      0.01176214      0.00574814  ~
      6    -157.840373585776     -0.000013463643      0.00011577      0.00003158      0.00340141      0.00163014  ~
      7    -157.840371703625      0.000001882151      0.00009128      0.00002459      0.02762282      0.01250337  ~
      8    -157.840365091521      0.000006612104      0.00081702      0.00030103      0.02850377      0.01250084  ~
      9    -157.840341897736      0.000023193785      0.00049343      0.00016241      0.00455917      0.00209152  ~
     10    -157.840353919401     -0.000012021665      0.00017954      0.00005284      0.00389183      0.00142627  ~
     11    -157.840360325558     -0.000006406157      0.00011190      0.00003897      0.00178476      0.00070978  ~
     12    -157.840358793082      0.000001532476      0.00012714      0.00005447      0.00115133      0.00049959  ~
  --------------------------------------------------------------------------------------------------------------- ~

	Writing optimization data to binary file.
	Final energy is   -157.8403587930822
	Final (previous) structure:
	Cartesian Geometry (in Angstrom)
	    H    -2.2343843886   0.1441104918   0.0981474690
	    H    -2.0722047640   1.7775382311  -0.5629549179
	    H    -1.7833440775   0.3712322093  -1.5949582664
	    C    -1.6505814827   0.7685866488  -0.5840216116
	    H     0.3886439912   1.4487807000  -0.8221781506
	    H    -0.0979463677   1.1694971639   0.8354424108
	    C    -0.1794056354   0.7656762446  -0.1813133618
	    H    -0.3517958979  -1.3861319344  -0.1735970836
	    H     0.9631206961  -0.7976046441  -1.1671287932
	    C     0.4479660152  -0.6362955039  -0.2139172118
	    H     1.8439455597  -1.8875005070   0.8987144550
	    H     0.8751139719  -0.7986999387   1.9023410431
	    H     2.2206673522  -0.1608038208   0.9514543361
	    C     1.4028649339  -0.8879242409   0.9485737810
	Saving final (previous) structure.
			--------------------------
			 OPTKING Finished Execution 
			--------------------------

    Final optimized geometry and variables:
    Molecular point group: c1
    Full point group: C1

    Geometry (in Angstrom), charge = 0, multiplicity = 1:

    H           -2.234384388592     0.144110491758     0.098147469016
    H           -2.072204764022     1.777538231117    -0.562954917917
    H           -1.783344077494     0.371232209329    -1.594958266360
    C           -1.650581482699     0.768586648828    -0.584021611558
    H            0.388643991166     1.448780700020    -0.822178150584
    H           -0.097946367657     1.169497163943     0.835442410829
    C           -0.179405635368     0.765676244561    -0.181313361784
    H           -0.351795897942    -1.386131934389    -0.173597083554
    H            0.963120696129    -0.797604644092    -1.167128793160
    C            0.447966015166    -0.636295503946    -0.213917211773
    H            1.843945559667    -1.887500507009     0.898714455035
    H            0.875113971928    -0.798699938687     1.902341043118
    H            2.220667352220    -0.160803820752     0.951454336106
    C            1.402864933881    -0.887924240933     0.948573780963

	Cleaning optimization helper files.

*** Psi4 exiting successfully. Buy a developer a beer!
