    -----------------------------------------------------------------------
          Psi4: An Open-Source Ab Initio Electronic Structure Package
                              Psi4 1.0.0 Driver

                          Git: Rev {master} 6a9a71b 

    J. M. Turney, A. C. Simmonett, R. M. Parrish, E. G. Hohenstein,
    F. A. Evangelista, J. T. Fermann, B. J. Mintz, L. A. Burns, J. J. Wilke,
    M. L. Abrams, N. J. Russ, M. L. Leininger, C. L. Janssen, E. T. Seidl,
    W. D. Allen, H. F. Schaefer, R. A. King, E. F. Valeev, C. D. Sherrill,
    and T. D. Crawford, WIREs Comput. Mol. Sci. 2, 556-565 (2012)
    (doi: 10.1002/wcms.93)

                         Additional Contributions by
    A. E. DePrince, U. Bozkaya, A. Yu. Sokolov, D. G. A. Smith, R. Di Remigio,
    R. M. Richard, J. F. Gonthier, H. R. McAlexander, M. Saitow, and
    B. P. Pritchard
    -----------------------------------------------------------------------


    Psi4 started on: Thu Feb 16 16:29:05 2017

    Process ID:   1697
    PSI4DATADIR: /Users/sternc1/anaconda/share/psi4
    Memory level set to 256.000 MB

  ==> Input File <==

--------------------------------------------------------------------------

memory 1000 mb

molecule butane {
  symmetry C1
  0 1 
  H      1.604   0.760   -8.260
  H      1.745   2.388   -8.880
  H      2.043   1.024   -9.930
  C      2.142   1.395   -8.932
  H      4.169   2.051   -9.210
  H      3.731   1.788   -7.539
  C      3.631   1.416   -8.537
  H      3.434   -0.688   -8.921
  H      5.006   -0.038   -9.318
  C      4.203   -0.012   -8.612
  H      5.123   -1.421   -7.278
  H      3.924   -0.404   -6.519
  H      5.496   0.246   -6.916
  C      4.726   -0.430   -7.226
  units Angstrom
}

dih_string = "4 7 10 14 240"
set optking fixed_dihedral = $dih_string

optimize('MP2/6-31G(d)')
--------------------------------------------------------------------------

  Memory set to 1000.000 MiB by Python script.
gradient() will perform analytic gradient computation.
    SCF Algorithm Type (re)set to DF.

*** tstart() called on lski1497
*** at Thu Feb 16 16:29:06 2017


         ---------------------------------------------------------
                                   SCF
            by Justin Turney, Rob Parrish, and Andy Simmonett
                              RHF Reference
                        1 Threads,   1000 MiB Core
         ---------------------------------------------------------

  ==> Geometry <==

    Molecular point group: c1
    Full point group: C1

    Geometry (in Angstrom), charge = 0, multiplicity = 1:

       Center              X                  Y                   Z               Mass       
    ------------   -----------------  -----------------  -----------------  -----------------
           H         -2.063170616578     0.171506898981     0.058134294023     1.007825032070
           H         -1.922170616578     1.799506898981    -0.561865705977     1.007825032070
           H         -1.624170616578     0.435506898981    -1.611865705977     1.007825032070
           C         -1.525170616578     0.806506898981    -0.613865705977    12.000000000000
           H          0.501829383422     1.462506898981    -0.891865705977     1.007825032070
           H          0.063829383422     1.199506898981     0.779134294023     1.007825032070
           C         -0.036170616578     0.827506898981    -0.218865705977    12.000000000000
           H         -0.233170616578    -1.276493101019    -0.602865705977     1.007825032070
           H          1.338829383422    -0.626493101019    -0.999865705977     1.007825032070
           C          0.535829383422    -0.600493101019    -0.293865705977    12.000000000000
           H          1.455829383422    -2.009493101019     1.040134294023     1.007825032070
           H          0.256829383422    -0.992493101019     1.799134294023     1.007825032070
           H          1.828829383422    -0.342493101019     1.402134294023     1.007825032070
           C          1.058829383422    -1.018493101019     1.092134294023    12.000000000000

  Running in c1 symmetry.

  Rotational constants: A =      0.58975  B =      0.13122  C =      0.13112 [cm^-1]
  Rotational constants: A =  17680.11081  B =   3933.97258  C =   3930.98071 [MHz]
  Nuclear repulsion =  132.581039688683205

  Charge       = 0
  Multiplicity = 1
  Electrons    = 34
  Nalpha       = 17
  Nbeta        = 17

  ==> Algorithm <==

  SCF Algorithm Type is DF.
  DIIS enabled.
  MOM disabled.
  Fractional occupation disabled.
  Guess Type is SAD.
  Energy threshold   = 1.00e-10
  Density threshold  = 1.00e-10
  Integral threshold = 0.00e+00

  ==> Primary Basis <==

  Basis Set: 6-31G(D)
    Number of shells: 44
    Number of basis function: 80
    Number of Cartesian functions: 80
    Spherical Harmonics?: false
    Max angular momentum: 2

  ==> Pre-Iterations <==

   -------------------------------------------------------
    Irrep   Nso     Nmo     Nalpha   Nbeta   Ndocc  Nsocc
   -------------------------------------------------------
     A         80      80       0       0       0       0
   -------------------------------------------------------
    Total      80      80      17      17      17       0
   -------------------------------------------------------

  ==> Integral Setup <==

  ==> DFJK: Density-Fitted J/K Matrices <==

    J tasked:                  Yes
    K tasked:                  Yes
    wK tasked:                  No
    OpenMP threads:              1
    Integrals threads:           1
    Memory (MB):               715
    Algorithm:                Core
    Integral Cache:           NONE
    Schwarz Cutoff:          1E-12
    Fitting Condition:       1E-12

   => Auxiliary Basis Set <=

  Basis Set: 
    Number of shells: 186
    Number of basis function: 574
    Number of Cartesian functions: 574
    Spherical Harmonics?: false
    Max angular momentum: 3

  Minimum eigenvalue in the overlap matrix is 4.8197485743E-03.
  Using Symmetric Orthogonalization.
  SCF Guess: Superposition of Atomic Densities via on-the-fly atomic UHF.

  ==> Iterations <==

                           Total Energy        Delta E     RMS |[F,P]|

   @DF-RHF iter   0:  -158.96390921000429   -1.58964e+02   4.73687e-02 
   @DF-RHF iter   1:  -157.19895695831994    1.76495e+00   3.97200e-03 
   @DF-RHF iter   2:  -157.27944294321352   -8.04860e-02   1.09993e-03 DIIS
   @DF-RHF iter   3:  -157.28741456114969   -7.97162e-03   2.65664e-04 DIIS
   @DF-RHF iter   4:  -157.28779613681033   -3.81576e-04   8.23491e-05 DIIS
   @DF-RHF iter   5:  -157.28783420762088   -3.80708e-05   1.38914e-05 DIIS
   @DF-RHF iter   6:  -157.28783568672483   -1.47910e-06   2.38214e-06 DIIS
   @DF-RHF iter   7:  -157.28783571968049   -3.29557e-08   7.30112e-07 DIIS
   @DF-RHF iter   8:  -157.28783572264783   -2.96734e-09   1.49969e-07 DIIS
   @DF-RHF iter   9:  -157.28783572282620   -1.78375e-10   3.66053e-08 DIIS
   @DF-RHF iter  10:  -157.28783572283712   -1.09139e-11   6.59829e-09 DIIS
   @DF-RHF iter  11:  -157.28783572283751   -3.97904e-13   1.79652e-09 DIIS
   @DF-RHF iter  12:  -157.28783572283746    5.68434e-14   4.59573e-10 DIIS
   @DF-RHF iter  13:  -157.28783572283746    0.00000e+00   8.58467e-11 DIIS

  ==> Post-Iterations <==

    Orbital Energies (a.u.)
    -----------------------

    Doubly Occupied:                                                      

       1A    -11.206139     2A    -11.205532     3A    -11.201033  
       4A    -11.200782     5A     -1.071561     6A     -0.979991  
       7A     -0.864927     8A     -0.793099     9A     -0.638559  
      10A     -0.604862    11A     -0.583927    12A     -0.554119  
      13A     -0.514691    14A     -0.510364    15A     -0.471100  
      16A     -0.463029    17A     -0.442219  

    Virtual:                                                              

      18A      0.234935    19A      0.272539    20A      0.290189  
      21A      0.298302    22A      0.320759    23A      0.329905  
      24A      0.335759    25A      0.345688    26A      0.350719  
      27A      0.360084    28A      0.414545    29A      0.447230  
      30A      0.453979    31A      0.712435    32A      0.727106  
      33A      0.734512    34A      0.791660    35A      0.806061  
      36A      0.812807    37A      0.826017    38A      0.937439  
      39A      0.938607    40A      1.000670    41A      1.052798  
      42A      1.098980    43A      1.175670    44A      1.178012  
      45A      1.193105    46A      1.210595    47A      1.210930  
      48A      1.226067    49A      1.245439    50A      1.258730  
      51A      1.265976    52A      1.276594    53A      1.286654  
      54A      1.449732    55A      1.672349    56A      1.735537  
      57A      1.785189    58A      1.914288    59A      2.018699  
      60A      2.083561    61A      2.191883    62A      2.243687  
      63A      2.276194    64A      2.305508    65A      2.374806  
      66A      2.460365    67A      2.516566    68A      2.634993  
      69A      2.666736    70A      2.674667    71A      2.731033  
      72A      2.756337    73A      2.784922    74A      2.896075  
      75A      3.009951    76A      3.088658    77A      4.575467  
      78A      4.664213    79A      4.822614    80A      4.970307  

    Final Occupation by Irrep:
              A 
    DOCC [    17 ]

  Energy converged.

  @DF-RHF Final Energy:  -157.28783572283746

   => Energetics <=

    Nuclear Repulsion Energy =            132.5810396886832052
    One-Electron Energy =                -473.1258846482103309
    Two-Electron Energy =                 183.2570092366896688
    DFT Exchange-Correlation Energy =       0.0000000000000000
    Empirical Dispersion Energy =           0.0000000000000000
    PCM Polarization Energy =               0.0000000000000000
    EFP Energy =                            0.0000000000000000
    Total Energy =                       -157.2878357228374853


  Saving occupied orbitals to File 180.

*** tstop() called on lski1497 at Thu Feb 16 16:29:13 2017
Module time:
	user time   =       5.57 seconds =       0.09 minutes
	system time =       0.18 seconds =       0.00 minutes
	total time  =          7 seconds =       0.12 minutes
Total time:
	user time   =       5.57 seconds =       0.09 minutes
	system time =       0.18 seconds =       0.00 minutes
	total time  =          7 seconds =       0.12 minutes


Properties will be evaluated at   0.000000,   0.000000,   0.000000 Bohr

Properties computed using the SCF density matrix

  Nuclear Dipole Moment: (a.u.)
     X:    -0.3719      Y:    -0.1677      Z:     0.3847

  Electronic Dipole Moment: (a.u.)
     X:     0.3949      Y:     0.1771      Z:    -0.4085

  Dipole Moment: (a.u.)
     X:     0.0230      Y:     0.0094      Z:    -0.0238     Total:     0.0344

  Dipole Moment: (Debye)
     X:     0.0585      Y:     0.0238      Z:    -0.0605     Total:     0.0875


  //>>>>>>>>>>>>>>>>>>>>>>>>>>>>>>>>>>>//
  //               DFMP2               //
  //<<<<<<<<<<<<<<<<<<<<<<<<<<<<<<<<<<<//


*** tstart() called on lski1497
*** at Thu Feb 16 16:29:13 2017


*** tstop() called on lski1497 at Thu Feb 16 16:29:13 2017
Module time:
	user time   =       0.59 seconds =       0.01 minutes
	system time =       0.00 seconds =       0.00 minutes
	total time  =          0 seconds =       0.00 minutes
Total time:
	user time   =       6.18 seconds =       0.10 minutes
	system time =       0.18 seconds =       0.00 minutes
	total time  =          7 seconds =       0.12 minutes
	 --------------------------------------------------------
	                          DF-MP2                         
	      2nd-Order Density-Fitted Moller-Plesset Theory     
	              RMP2 Wavefunction,   1 Threads             
	                                                         
	        Rob Parrish, Justin Turney, Andy Simmonett,      
	           Ed Hohenstein, and C. David Sherrill          
	 --------------------------------------------------------

   => Auxiliary Basis Set <=

  Basis Set: 
    Number of shells: 132
    Number of basis function: 364
    Number of Cartesian functions: 414
    Spherical Harmonics?: true
    Max angular momentum: 3

	 --------------------------------------------------------
	                 NBF =    80, NAUX =   364
	 --------------------------------------------------------
	   CLASS    FOCC     OCC    AOCC    AVIR     VIR    FVIR
	   PAIRS       0      17      17      63      63       0
	 --------------------------------------------------------

DGAS Warning! /src/lib/libfock/apps.cc:80 is not currently checking restricted

         ------------------------------------------------------------
                                     CPHF                           
                                  Rob Parrish                       
         ------------------------------------------------------------

  ==> Geometry <==

    Molecular point group: c1
    Full point group: C1

    Geometry (in Angstrom), charge = 0, multiplicity = 1:

       Center              X                  Y                   Z               Mass       
    ------------   -----------------  -----------------  -----------------  -----------------
           H         -2.063170616578     0.171506898981     0.058134294023     1.007825032070
           H         -1.922170616578     1.799506898981    -0.561865705977     1.007825032070
           H         -1.624170616578     0.435506898981    -1.611865705977     1.007825032070
           C         -1.525170616578     0.806506898981    -0.613865705977    12.000000000000
           H          0.501829383422     1.462506898981    -0.891865705977     1.007825032070
           H          0.063829383422     1.199506898981     0.779134294023     1.007825032070
           C         -0.036170616578     0.827506898981    -0.218865705977    12.000000000000
           H         -0.233170616578    -1.276493101019    -0.602865705977     1.007825032070
           H          1.338829383422    -0.626493101019    -0.999865705977     1.007825032070
           C          0.535829383422    -0.600493101019    -0.293865705977    12.000000000000
           H          1.455829383422    -2.009493101019     1.040134294023     1.007825032070
           H          0.256829383422    -0.992493101019     1.799134294023     1.007825032070
           H          1.828829383422    -0.342493101019     1.402134294023     1.007825032070
           C          1.058829383422    -1.018493101019     1.092134294023    12.000000000000

  Nuclear repulsion =  132.581039688683205
  Reference energy  = -157.287835722837457

  ==> Basis Set <==

  Basis Set: 6-31G(D)
    Number of shells: 44
    Number of basis function: 80
    Number of Cartesian functions: 80
    Spherical Harmonics?: false
    Max angular momentum: 2

  ==> CGRSolver (by Rob Parrish) <==

   Number of roots    =         1
   Preconditioning    =    JACOBI
   Convergence cutoff =     1E-06
   Maximum iterations =       100

  ==> CPHFRHamiltonian (by Rob Parrish) <== 

  ==> DFJK: Density-Fitted J/K Matrices <==

    J tasked:                  Yes
    K tasked:                  Yes
    wK tasked:                  No
    OpenMP threads:              1
    Integrals threads:           1
    Memory (MB):               715
    Algorithm:                Core
    Integral Cache:           NONE
    Schwarz Cutoff:          1E-12
    Fitting Condition:       1E-12

   => Auxiliary Basis Set <=

  Basis Set: 
    Number of shells: 186
    Number of basis function: 574
    Number of Cartesian functions: 574
    Spherical Harmonics?: false
    Max angular momentum: 3

  ==> CPHF Iterations <==

  => Iterations <=

             Iter  Converged  Remaining    Residual
  CGR           1          0          1   7.344E-02
  CGR           2          0          1   8.867E-03
  CGR           3          0          1   2.664E-03
  CGR           4          0          1   4.198E-04
  CGR           5          0          1   8.154E-05
  CGR           6          0          1   1.992E-05
  CGR           7          0          1   3.646E-06
  CGR           8          1          0   6.369E-07

    CGRSolver converged.

  ==> DFCorrGrad: Density-Fitted Correlated Gradients <==

    OpenMP threads:              1
    Integrals threads:           1
    Memory (MB):               715
    Schwarz Cutoff:          0E+00
    Fitting Condition:       1E-12

   => Auxiliary Basis Set <=

  Basis Set: 
    Number of shells: 186
    Number of basis function: 510
    Number of Cartesian functions: 574
    Spherical Harmonics?: true
    Max angular momentum: 3

	-----------------------------------------------------------
	 ==================> DF-MP2 Energies <==================== 
	-----------------------------------------------------------
	 Reference Energy          =    -157.2878357228374568 [Eh]
	 Singles Energy            =      -0.0000000000000000 [Eh]
	 Same-Spin Energy          =      -0.1244268521493330 [Eh]
	 Opposite-Spin Energy      =      -0.4204139745379049 [Eh]
	 Correlation Energy        =      -0.5448408266872380 [Eh]
	 Total Energy              =    -157.8326765495247059 [Eh]
	-----------------------------------------------------------
	 ================> DF-SCS-MP2 Energies <================== 
	-----------------------------------------------------------
	 SCS Same-Spin Scale       =       0.3333333333333333 [-]
	 SCS Opposite-Spin Scale   =       1.2000000000000000 [-]
	 SCS Same-Spin Energy      =      -0.0414756173831110 [Eh]
	 SCS Opposite-Spin Energy  =      -0.5044967694454858 [Eh]
	 SCS Correlation Energy    =      -0.5459723868285968 [Eh]
	 SCS Total Energy          =    -157.8338081096660517 [Eh]
	-----------------------------------------------------------


  -Total Gradient:
     Atom            X                  Y                   Z
    ------   -----------------  -----------------  -----------------
       1        0.010444794354     0.009568349458    -0.009233561830
       2        0.010754157289    -0.013709999648     0.000451274528
       3        0.004040395646     0.005577782017     0.015379334447
       4       -0.027200361538    -0.009105060889    -0.008473376157
       5       -0.008056299787    -0.013629094807     0.007385840103
       6       -0.002621828658    -0.009591546081    -0.014471590970
       7        0.021225475810     0.025284513811     0.014922355523
       8        0.009770325994     0.012847615159     0.007504336759
       9       -0.011631950954     0.004824593821     0.012895424991
      10       -0.005238564584    -0.018414906184    -0.030733009747
      11       -0.007699601027     0.016661774911    -0.004017991451
      12        0.011214988233     0.000162558069    -0.012923450643
      13       -0.011605875687    -0.008726360175    -0.006730369252
      14        0.006604344910    -0.001750219462     0.028044783702


			-----------------------------------------
			 OPTKING 2.0: for geometry optimizations 
			  - R.A. King,  Bethel University        
			-----------------------------------------

	Previous internal coordinate definitions found.
	---Fragment 1 Geometry and Gradient---
	 H          -3.8988274307        0.3241010690        0.1098578946
	 H          -3.6323760460        3.4005752133       -1.0617723078
	 H          -3.0692376584        0.8229887681       -3.0459847473
	 C          -2.8821547713        1.5240771634       -1.1600380667
	 H           0.9483201001        2.7637375065       -1.6853819316
	 H           0.1206200539        2.2667395336        1.4723504364
	 C          -0.0683525594        1.5637614121       -0.4135962442
	 H          -0.4406286076       -2.4122223714       -1.1392510792
	 H           2.5300208733       -1.1839003851       -1.8894723540
	 C           1.0125707886       -1.1347675056       -0.5553257041
	 H           2.7511188309       -3.7973916268        1.9655689571
	 H           0.4853371975       -1.8755401497        3.3998710920
	 H           3.4559866784       -0.6472181633        2.6496498172
	 C           2.0008975561       -1.9246730292        2.0638347160
	             0.0104447944        0.0095683495       -0.0092335618
	             0.0107541573       -0.0137099996        0.0004512745
	             0.0040403956        0.0055777820        0.0153793344
	            -0.0272003615       -0.0091050609       -0.0084733762
	            -0.0080562998       -0.0136290948        0.0073858401
	            -0.0026218287       -0.0095915461       -0.0144715910
	             0.0212254758        0.0252845138        0.0149223555
	             0.0097703260        0.0128476152        0.0075043368
	            -0.0116319510        0.0048245938        0.0128954250
	            -0.0052385646       -0.0184149062       -0.0307330097
	            -0.0076996010        0.0166617749       -0.0040179915
	             0.0112149882        0.0001625581       -0.0129234506
	            -0.0116058757       -0.0087263602       -0.0067303693
	             0.0066043449       -0.0017502195        0.0280447837

	Previous optimization step data not found.  Starting new optimization.

	---Fragment 1 Intrafragment Coordinates---
	 - Coordinate -           - BOHR/RAD -       - ANG/DEG -
	 R(1,4)           =         2.021436	       1.069698
	 R(2,4)           =         2.023298	       1.070683
	 R(3,4)           =         2.020723	       1.069320
	 R(4,7)           =         2.911397	       1.540645
	 R(5,7)           =         2.022623	       1.070326
	 R(6,7)           =         2.021555	       1.069761
	 R(7,10)          =         2.910419	       1.540128
	 R(8,10)          =         2.021051	       1.069494
	 R(9,10)          =         2.021142	       1.069542
	 R(10,14)         =         2.908735	       1.539236
	 R(11,14)         =         2.019793	       1.068828
	 R(12,14)         =         2.020973	       1.069453
	 R(13,14)         =         2.022957	       1.070503
	 B(1,4,2)         =         1.910870	     109.484805
	 B(1,4,3)         =         1.911121	     109.499161
	 B(1,4,7)         =         1.910399	     109.457783
	 B(2,4,3)         =         1.910042	     109.437340
	 B(2,4,7)         =         1.910564	     109.467262
	 B(3,4,7)         =         1.910803	     109.480971
	 B(4,7,5)         =         1.909937	     109.431343
	 B(4,7,6)         =         1.911630	     109.528316
	 B(4,7,10)        =         1.911154	     109.501062
	 B(5,7,6)         =         1.910605	     109.469614
	 B(5,7,10)        =         1.910047	     109.437654
	 B(6,7,10)        =         1.910425	     109.459295
	 B(7,10,8)        =         1.910364	     109.455816
	 B(7,10,9)        =         1.910837	     109.482906
	 B(7,10,14)       =         1.911485	     109.520015
	 B(8,10,9)        =         1.911085	     109.497105
	 B(8,10,14)       =         1.910091	     109.440145
	 B(9,10,14)       =         1.909937	     109.431337
	 B(10,14,11)      =         1.911538	     109.523084
	 B(10,14,12)      =         1.911197	     109.503507
	 B(10,14,13)      =         1.910987	     109.491497
	 B(11,14,12)      =         1.910544	     109.466094
	 B(11,14,13)      =         1.909661	     109.415539
	 B(12,14,13)      =         1.909871	     109.427523
	 D(1,4,7,5)       =         3.140997	     179.965873
	 D(1,4,7,6)       =        -1.047644	     -60.025575
	 D(1,4,7,10)      =         1.047427	      60.013132
	 D(2,4,7,5)       =        -1.047689	     -60.028143
	 D(2,4,7,6)       =         1.046856	      59.980409
	 D(2,4,7,10)      =        -3.141259	    -179.980883
	 D(3,4,7,5)       =         1.046044	      59.933911
	 D(3,4,7,6)       =         3.140588	     179.942463
	 D(3,4,7,10)      =        -1.047526	     -60.018830
	 D(4,7,10,8)      =        -0.000019	      -0.001086
	 D(4,7,10,9)      =         2.094890	     120.028337
	 D(4,7,10,14)     =        -2.094106	    -119.983464
	 D(5,7,10,8)      =        -2.093522	    -119.949962
	 D(5,7,10,9)      =         0.001387	       0.079461
	 D(5,7,10,14)     =         2.095576	     120.067660
	 D(6,7,10,8)      =         2.095789	     120.079839
	 D(6,7,10,9)      =        -2.092488	    -119.890737
	 D(6,7,10,14)     =         0.001701	       0.097462
	 D(7,10,14,11)    =        -3.141564	    -179.998331
	 D(7,10,14,12)    =         1.046435	      59.956338
	 D(7,10,14,13)    =        -1.047587	     -60.022338
	 D(8,10,14,11)    =         1.047367	      60.009703
	 D(8,10,14,12)    =        -1.047819	     -60.035629
	 D(8,10,14,13)    =         3.141343	     179.985696
	 D(9,10,14,11)    =        -1.046824	     -59.978581
	 D(9,10,14,12)    =         3.141175	     179.976087
	 D(9,10,14,13)    =         1.047152	      59.997411

	Current energy   :      -157.8326765495

	Generating empirical Hessian (Schlegel '84) for each fragment.
	Adding user-defined constraint: Fragment 1; Coordinate 49:
		Value =    -2.094106; Fixed value    =    -2.094400
		Force =    -0.000147; Force constant =     0.500000
	Removing off-diagonal coupling between coordinate 49 and others.
	Taking RFO optimization step.
	Going to follow RFO solution 1.
	Using RFO vector 1.

	Determining step-restricting scale parameter for RS-RFO.
	Maximum step size allowed    0.10000

	 Iter      |step|        alpha        rfo_root  
	------------------------------------------------
	    0     0.23586       1.00000           1
	    1     0.17300       6.54253           1
	    2     0.13231      18.87399           1
	    3     0.10972      35.19001           1
	    4     0.10129      44.97811           1
	    5     0.10003      46.70475           1
	    6     0.10000      46.74389           1
	------------------------------------------------
	Norm of target step-size    0.10000
	Projected energy change by RFO approximation:        -0.0053409512

	Back-transformation to cartesian coordinates...
	Successfully converged to displaced geometry.

	--- Internal Coordinate Step in ANG or DEG, aJ/ANG or AJ/DEG ---
	 ---------------------------------------------------------------------------
	   Coordinate                Previous        Force       Change         New 
	   ----------                --------       ------       ------       ------
	    1 R(1,4)          =      1.069698     0.137866     0.013793     1.083491
	    2 R(2,4)          =      1.070683     0.137429     0.013776     1.084459
	    3 R(3,4)          =      1.069320     0.137281     0.013725     1.083045
	    4 R(4,7)          =      1.540645    -0.020438    -0.002370     1.538275
	    5 R(5,7)          =      1.070326     0.138241     0.013848     1.084174
	    6 R(6,7)          =      1.069761     0.140728     0.014081     1.083842
	    7 R(7,10)         =      1.540128     0.066696     0.007727     1.547855
	    8 R(8,10)         =      1.069494     0.142645     0.014266     1.083760
	    9 R(9,10)         =      1.069542     0.143046     0.014307     1.083850
	   10 R(10,14)        =      1.539236    -0.014078    -0.001629     1.537608
	   11 R(11,14)        =      1.068828     0.149227     0.014904     1.083733
	   12 R(12,14)        =      1.069453     0.139645     0.013965     1.083417
	   13 R(13,14)        =      1.070503     0.130234     0.013050     1.083553
	   14 B(1,4,2)        =    109.484805    -0.000290    -0.507959   108.976846
	   15 B(1,4,3)        =    109.499161    -0.000191    -0.357664   109.141497
	   16 B(1,4,7)        =    109.457783     0.000132     0.225321   109.683104
	   17 B(2,4,3)        =    109.437340    -0.000287    -0.492866   108.944474
	   18 B(2,4,7)        =    109.467262     0.000489     0.871344   110.338606
	   19 B(3,4,7)        =    109.480971     0.000147     0.250865   109.731836
	   20 B(4,7,5)        =    109.431343    -0.000252    -0.402272   109.029071
	   21 B(4,7,6)        =    109.528316    -0.000230    -0.370149   109.158167
	   22 B(4,7,10)       =    109.501062     0.000736     1.195959   110.697021
	   23 B(5,7,6)        =    109.469614    -0.000053    -0.275709   109.193905
	   24 B(5,7,10)       =    109.437654    -0.000065    -0.005725   109.431929
	   25 B(6,7,10)       =    109.459295    -0.000137    -0.151051   109.308244
	   26 B(7,10,8)       =    109.455816    -0.000139    -0.155673   109.300143
	   27 B(7,10,9)       =    109.482906    -0.000069    -0.015590   109.467316
	   28 B(7,10,14)      =    109.520015     0.000733     1.191344   110.711359
	   29 B(8,10,9)       =    109.497105    -0.000056    -0.281981   109.215123
	   30 B(8,10,14)      =    109.440145    -0.000220    -0.349923   109.090222
	   31 B(9,10,14)      =    109.431337    -0.000249    -0.397187   109.034149
	   32 B(10,14,11)     =    109.523084     0.000482     0.858216   110.381300
	   33 B(10,14,12)     =    109.503507     0.000124     0.212693   109.716200
	   34 B(10,14,13)     =    109.491497     0.000149     0.254396   109.745893
	   35 B(11,14,12)     =    109.466094    -0.000285    -0.498254   108.967839
	   36 B(11,14,13)     =    109.415539    -0.000285    -0.490071   108.925469
	   37 B(12,14,13)     =    109.427523    -0.000187    -0.349645   109.077878
	   38 D(1,4,7,5)      =    179.965873     0.000036     0.347035   180.312907
	   39 D(1,4,7,6)      =    -60.025575    -0.000046    -0.453368   -60.478943
	   40 D(1,4,7,10)     =     60.013132    -0.000013    -0.131285    59.881847
	   41 D(2,4,7,5)      =    -60.028143     0.000042     0.402446   -59.625697
	   42 D(2,4,7,6)      =     59.980409    -0.000041    -0.397957    59.582452
	   43 D(2,4,7,10)     =   -179.980883    -0.000008    -0.075874  -180.056757
	   44 D(3,4,7,5)      =     59.933911     0.000051     0.492690    60.426600
	   45 D(3,4,7,6)      =    179.942463    -0.000032    -0.307713   179.634749
	   46 D(3,4,7,10)     =    -60.018830     0.000001     0.014370   -60.004460
	   47 D(4,7,10,8)     =     -0.001086     0.000023     0.225696     0.224609
	   48 D(4,7,10,9)     =    120.028337    -0.000022    -0.223324   119.805013
	   49 D(4,7,10,14)    =   -119.983464     0.000001     0.017217  -119.966247
	   50 D(5,7,10,8)     =   -119.949962    -0.000001    -0.016104  -119.966066
	   51 D(5,7,10,9)     =      0.079461    -0.000046    -0.465123    -0.385662
	   52 D(5,7,10,14)    =    120.067660    -0.000022    -0.224583   119.843078
	   53 D(6,7,10,8)     =    120.079839     0.000042     0.416015   120.495854
	   54 D(6,7,10,9)     =   -119.890737    -0.000002    -0.033004  -119.923742
	   55 D(6,7,10,14)    =      0.097462     0.000021     0.207536     0.304998
	   56 D(7,10,14,11)   =   -179.998331    -0.000007    -0.071849  -180.070180
	   57 D(7,10,14,12)   =     59.956338    -0.000013    -0.124662    59.831676
	   58 D(7,10,14,13)   =    -60.022338     0.000001     0.016731   -60.005606
	   59 D(8,10,14,11)   =     60.009703    -0.000040    -0.396038    59.613665
	   60 D(8,10,14,12)   =    -60.035629    -0.000046    -0.448850   -60.484479
	   61 D(8,10,14,13)   =    179.985696    -0.000032    -0.307457   179.678238
	   62 D(9,10,14,11)   =    -59.978581     0.000041     0.395419   -59.583163
	   63 D(9,10,14,12)   =    179.976087     0.000036     0.342606   180.318693
	   64 D(9,10,14,13)   =     59.997411     0.000050     0.483999    60.481410
	 ---------------------------------------------------------------------------
	 Forces used to impose fixed constraints are not included.
	  Forces zeroed: 49 

  ==> Convergence Check <==

  Measures of convergence in internal coordinates in au.
  Criteria marked as inactive (o), active & met (*), and active & unmet ( ).
  --------------------------------------------------------------------------------------------- ~
   Step     Total Energy     Delta E     MAX Force     RMS Force      MAX Disp      RMS Disp    ~
  --------------------------------------------------------------------------------------------- ~
    Convergence Criteria    1.00e-06 *    3.00e-04 *             o    1.20e-03 *             o  ~
  --------------------------------------------------------------------------------------------- ~
      1    -157.83267655   -1.58e+02      1.81e-02      7.33e-03 o    2.82e-02      1.25e-02 o  ~
  ---------------------------------------------------------------------------------------------

	Writing optimization data to binary file.
	Structure for next step:
	Cartesian Geometry (in Angstrom)
	    H    -2.0895680065   0.1736478787   0.0523345986
	    H    -1.9484874053   1.8108581197  -0.5909630794
	    H    -1.6391839468   0.4239366831  -1.6361603870
	    C    -1.5359605131   0.8086480234  -0.6290215727
	    H     0.4919704213   1.4685493105  -0.9141322143
	    H     0.0425339727   1.2186295533   0.7765313544
	    C    -0.0505694359   0.8263577761  -0.2295344614
	    H    -0.2211168648  -1.2994613594  -0.5915886491
	    H     1.3626945298  -0.6261058018  -0.9923135861
	    C     0.5464605607  -0.6008408950  -0.2796749090
	    H     1.4901331669  -2.0183063004   1.0618387543
	    H     0.2656295642  -1.0022019984   1.8231981889
	    H     1.8474497340  -0.3293867744   1.4226272521
	    C     1.0746255909  -1.0182276297   1.1027388270
			--------------------------
			 OPTKING Finished Execution 
			--------------------------

    Structure for next step:
    Molecular point group: c1
    Full point group: C1

    Geometry (in Angstrom), charge = 0, multiplicity = 1:

    H           -2.089802443052     0.173475708447     0.052529407513
    H           -1.948721841852     1.810685949369    -0.590768270454
    H           -1.639418383371     0.423764512830    -1.635965578096
    C           -1.536194949687     0.808475853131    -0.628826763823
    H            0.491735984734     1.468377140238    -0.913937405357
    H            0.042299536132     1.218457383026     0.776726163356
    C           -0.050803872443     0.826185605787    -0.229339652467
    H           -0.221351301352    -1.299633529648    -0.591393840173
    H            1.362460093263    -0.626277972117    -0.992118777195
    C            0.546226124133    -0.601013065324    -0.279480100107
    H            1.489898730338    -2.018478470723     1.062033563198
    H            0.265395127688    -1.002374168673     1.823392997810
    H            1.847215297448    -0.329558944673     1.422822061012
    C            1.074391154318    -1.018399799971     1.102933635865

gradient() will perform analytic gradient computation.
    SCF Algorithm Type (re)set to DF.

*** tstart() called on lski1497
*** at Thu Feb 16 16:29:36 2017


         ---------------------------------------------------------
                                   SCF
            by Justin Turney, Rob Parrish, and Andy Simmonett
                              RHF Reference
                        1 Threads,   1000 MiB Core
         ---------------------------------------------------------

  ==> Geometry <==

    Molecular point group: c1
    Full point group: C1

    Geometry (in Angstrom), charge = 0, multiplicity = 1:

       Center              X                  Y                   Z               Mass       
    ------------   -----------------  -----------------  -----------------  -----------------
           H         -2.089802443052     0.173475708447     0.052529407513     1.007825032070
           H         -1.948721841852     1.810685949369    -0.590768270454     1.007825032070
           H         -1.639418383371     0.423764512830    -1.635965578096     1.007825032070
           C         -1.536194949687     0.808475853131    -0.628826763823    12.000000000000
           H          0.491735984734     1.468377140238    -0.913937405357     1.007825032070
           H          0.042299536132     1.218457383026     0.776726163356     1.007825032070
           C         -0.050803872443     0.826185605787    -0.229339652467    12.000000000000
           H         -0.221351301352    -1.299633529648    -0.591393840173     1.007825032070
           H          1.362460093263    -0.626277972117    -0.992118777195     1.007825032070
           C          0.546226124133    -0.601013065324    -0.279480100107    12.000000000000
           H          1.489898730338    -2.018478470723     1.062033563198     1.007825032070
           H          0.265395127688    -1.002374168673     1.823392997810     1.007825032070
           H          1.847215297448    -0.329558944673     1.422822061012     1.007825032070
           C          1.074391154318    -1.018399799971     1.102933635865    12.000000000000

  Running in c1 symmetry.

  Rotational constants: A =      0.59084  B =      0.12871  C =      0.12870 [cm^-1]
  Rotational constants: A =  17712.83682  B =   3858.66253  C =   3858.42517 [MHz]
  Nuclear repulsion =  131.597448105058334

  Charge       = 0
  Multiplicity = 1
  Electrons    = 34
  Nalpha       = 17
  Nbeta        = 17

  ==> Algorithm <==

  SCF Algorithm Type is DF.
  DIIS enabled.
  MOM disabled.
  Fractional occupation disabled.
  Guess Type is READ.
  Energy threshold   = 1.00e-10
  Density threshold  = 1.00e-10
  Integral threshold = 0.00e+00

  ==> Primary Basis <==

  Basis Set: 6-31G(D)
    Number of shells: 44
    Number of basis function: 80
    Number of Cartesian functions: 80
    Spherical Harmonics?: false
    Max angular momentum: 2

  ==> Pre-Iterations <==

   -------------------------------------------------------
    Irrep   Nso     Nmo     Nalpha   Nbeta   Ndocc  Nsocc
   -------------------------------------------------------
     A         80      80       0       0       0       0
   -------------------------------------------------------
    Total      80      80      17      17      17       0
   -------------------------------------------------------

  ==> Integral Setup <==

  ==> DFJK: Density-Fitted J/K Matrices <==

    J tasked:                  Yes
    K tasked:                  Yes
    wK tasked:                  No
    OpenMP threads:              1
    Integrals threads:           1
    Memory (MB):               715
    Algorithm:                Core
    Integral Cache:           NONE
    Schwarz Cutoff:          1E-12
    Fitting Condition:       1E-12

   => Auxiliary Basis Set <=

  Basis Set: 
    Number of shells: 186
    Number of basis function: 574
    Number of Cartesian functions: 574
    Spherical Harmonics?: false
    Max angular momentum: 3

  Minimum eigenvalue in the overlap matrix is 4.9541478653E-03.
  Using Symmetric Orthogonalization.
  SCF Guess was Projection but file not found.
  Switching over to SAD guess.

  SCF Guess: Superposition of Atomic Densities via on-the-fly atomic UHF.

  ==> Iterations <==

                           Total Energy        Delta E     RMS |[F,P]|

   @DF-RHF iter   0:  -158.85129656791378   -1.58851e+02   4.63661e-02 
   @DF-RHF iter   1:  -157.20137652901428    1.64992e+00   3.93683e-03 
   @DF-RHF iter   2:  -157.28224156430156   -8.08650e-02   1.10697e-03 DIIS
   @DF-RHF iter   3:  -157.29044716821556   -8.20560e-03   2.59630e-04 DIIS
   @DF-RHF iter   4:  -157.29082294279311   -3.75775e-04   8.05621e-05 DIIS
   @DF-RHF iter   5:  -157.29086017584211   -3.72330e-05   1.39259e-05 DIIS
   @DF-RHF iter   6:  -157.29086163000147   -1.45416e-06   2.62953e-06 DIIS
   @DF-RHF iter   7:  -157.29086166687244   -3.68710e-08   7.86835e-07 DIIS
   @DF-RHF iter   8:  -157.29086167037690   -3.50445e-09   1.47613e-07 DIIS
   @DF-RHF iter   9:  -157.29086167055812   -1.81217e-10   3.51165e-08 DIIS
   @DF-RHF iter  10:  -157.29086167056846   -1.03455e-11   6.09230e-09 DIIS
   @DF-RHF iter  11:  -157.29086167056892   -4.54747e-13   1.51686e-09 DIIS
   @DF-RHF iter  12:  -157.29086167056892    0.00000e+00   4.45928e-10 DIIS
   @DF-RHF iter  13:  -157.29086167056869    2.27374e-13   8.15742e-11 DIIS

  ==> Post-Iterations <==

    Orbital Energies (a.u.)
    -----------------------

    Doubly Occupied:                                                      

       1A    -11.211737     2A    -11.211182     3A    -11.206692  
       4A    -11.206581     5A     -1.067687     6A     -0.977889  
       7A     -0.860927     8A     -0.787835     9A     -0.634033  
      10A     -0.601796    11A     -0.580424    12A     -0.551739  
      13A     -0.511135    14A     -0.507624    15A     -0.467443  
      16A     -0.460212    17A     -0.446197  

    Virtual:                                                              

      18A      0.232790    19A      0.269931    20A      0.286660  
      21A      0.294782    22A      0.318366    23A      0.326548  
      24A      0.331696    25A      0.340841    26A      0.347176  
      27A      0.356476    28A      0.411464    29A      0.447426  
      30A      0.454311    31A      0.714101    32A      0.725986  
      33A      0.735604    34A      0.790458    35A      0.806562  
      36A      0.816026    37A      0.831628    38A      0.933948  
      39A      0.938264    40A      0.996047    41A      1.058699  
      42A      1.098803    43A      1.163589    44A      1.165263  
      45A      1.178104    46A      1.197127    47A      1.197231  
      48A      1.212800    49A      1.239384    50A      1.243938  
      51A      1.255815    52A      1.261516    53A      1.270912  
      54A      1.446106    55A      1.676665    56A      1.737773  
      57A      1.776926    58A      1.906850    59A      2.000972  
      60A      2.075819    61A      2.190350    62A      2.233888  
      63A      2.276439    64A      2.304635    65A      2.358244  
      66A      2.447581    67A      2.494903    68A      2.615653  
      69A      2.648445    70A      2.656048    71A      2.719068  
      72A      2.738564    73A      2.774639    74A      2.888181  
      75A      3.007478    76A      3.077393    77A      4.561769  
      78A      4.655292    79A      4.816063    80A      4.962978  

    Final Occupation by Irrep:
              A 
    DOCC [    17 ]

  Energy converged.

  @DF-RHF Final Energy:  -157.29086167056869

   => Energetics <=

    Nuclear Repulsion Energy =            131.5974481050583336
    One-Electron Energy =                -471.1943504542296068
    Two-Electron Energy =                 182.3060406786024146
    DFT Exchange-Correlation Energy =       0.0000000000000000
    Empirical Dispersion Energy =           0.0000000000000000
    PCM Polarization Energy =               0.0000000000000000
    EFP Energy =                            0.0000000000000000
    Total Energy =                       -157.2908616705688587


  Saving occupied orbitals to File 180.

*** tstop() called on lski1497 at Thu Feb 16 16:29:42 2017
Module time:
	user time   =       5.54 seconds =       0.09 minutes
	system time =       0.17 seconds =       0.00 minutes
	total time  =          6 seconds =       0.10 minutes
Total time:
	user time   =      30.72 seconds =       0.51 minutes
	system time =       0.89 seconds =       0.01 minutes
	total time  =         36 seconds =       0.60 minutes


Properties will be evaluated at   0.000000,   0.000000,   0.000000 Bohr

Properties computed using the SCF density matrix

  Nuclear Dipole Moment: (a.u.)
     X:    -0.3753      Y:    -0.1702      Z:     0.3875

  Electronic Dipole Moment: (a.u.)
     X:     0.3963      Y:     0.1794      Z:    -0.4092

  Dipole Moment: (a.u.)
     X:     0.0211      Y:     0.0092      Z:    -0.0218     Total:     0.0317

  Dipole Moment: (Debye)
     X:     0.0536      Y:     0.0234      Z:    -0.0553     Total:     0.0805


  //>>>>>>>>>>>>>>>>>>>>>>>>>>>>>>>>>>>//
  //               DFMP2               //
  //<<<<<<<<<<<<<<<<<<<<<<<<<<<<<<<<<<<//


*** tstart() called on lski1497
*** at Thu Feb 16 16:29:42 2017


*** tstop() called on lski1497 at Thu Feb 16 16:29:43 2017
Module time:
	user time   =       0.57 seconds =       0.01 minutes
	system time =       0.00 seconds =       0.00 minutes
	total time  =          1 seconds =       0.02 minutes
Total time:
	user time   =      31.31 seconds =       0.52 minutes
	system time =       0.89 seconds =       0.01 minutes
	total time  =         37 seconds =       0.62 minutes
	 --------------------------------------------------------
	                          DF-MP2                         
	      2nd-Order Density-Fitted Moller-Plesset Theory     
	              RMP2 Wavefunction,   1 Threads             
	                                                         
	        Rob Parrish, Justin Turney, Andy Simmonett,      
	           Ed Hohenstein, and C. David Sherrill          
	 --------------------------------------------------------

   => Auxiliary Basis Set <=

  Basis Set: 
    Number of shells: 132
    Number of basis function: 364
    Number of Cartesian functions: 414
    Spherical Harmonics?: true
    Max angular momentum: 3

	 --------------------------------------------------------
	                 NBF =    80, NAUX =   364
	 --------------------------------------------------------
	   CLASS    FOCC     OCC    AOCC    AVIR     VIR    FVIR
	   PAIRS       0      17      17      63      63       0
	 --------------------------------------------------------

DGAS Warning! /src/lib/libfock/apps.cc:80 is not currently checking restricted

         ------------------------------------------------------------
                                     CPHF                           
                                  Rob Parrish                       
         ------------------------------------------------------------

  ==> Geometry <==

    Molecular point group: c1
    Full point group: C1

    Geometry (in Angstrom), charge = 0, multiplicity = 1:

       Center              X                  Y                   Z               Mass       
    ------------   -----------------  -----------------  -----------------  -----------------
           H         -2.089802443052     0.173475708447     0.052529407513     1.007825032070
           H         -1.948721841852     1.810685949369    -0.590768270454     1.007825032070
           H         -1.639418383371     0.423764512830    -1.635965578096     1.007825032070
           C         -1.536194949687     0.808475853131    -0.628826763823    12.000000000000
           H          0.491735984734     1.468377140238    -0.913937405357     1.007825032070
           H          0.042299536132     1.218457383026     0.776726163356     1.007825032070
           C         -0.050803872443     0.826185605787    -0.229339652467    12.000000000000
           H         -0.221351301352    -1.299633529648    -0.591393840173     1.007825032070
           H          1.362460093263    -0.626277972117    -0.992118777195     1.007825032070
           C          0.546226124133    -0.601013065324    -0.279480100107    12.000000000000
           H          1.489898730338    -2.018478470723     1.062033563198     1.007825032070
           H          0.265395127688    -1.002374168673     1.823392997810     1.007825032070
           H          1.847215297448    -0.329558944673     1.422822061012     1.007825032070
           C          1.074391154318    -1.018399799971     1.102933635865    12.000000000000

  Nuclear repulsion =  131.597448105058334
  Reference energy  = -157.290861670568688

  ==> Basis Set <==

  Basis Set: 6-31G(D)
    Number of shells: 44
    Number of basis function: 80
    Number of Cartesian functions: 80
    Spherical Harmonics?: false
    Max angular momentum: 2

  ==> CGRSolver (by Rob Parrish) <==

   Number of roots    =         1
   Preconditioning    =    JACOBI
   Convergence cutoff =     1E-06
   Maximum iterations =       100

  ==> CPHFRHamiltonian (by Rob Parrish) <== 

  ==> DFJK: Density-Fitted J/K Matrices <==

    J tasked:                  Yes
    K tasked:                  Yes
    wK tasked:                  No
    OpenMP threads:              1
    Integrals threads:           1
    Memory (MB):               715
    Algorithm:                Core
    Integral Cache:           NONE
    Schwarz Cutoff:          1E-12
    Fitting Condition:       1E-12

   => Auxiliary Basis Set <=

  Basis Set: 
    Number of shells: 186
    Number of basis function: 574
    Number of Cartesian functions: 574
    Spherical Harmonics?: false
    Max angular momentum: 3

  ==> CPHF Iterations <==

  => Iterations <=

             Iter  Converged  Remaining    Residual
  CGR           1          0          1   7.376E-02
  CGR           2          0          1   8.959E-03
  CGR           3          0          1   2.684E-03
  CGR           4          0          1   4.202E-04
  CGR           5          0          1   8.223E-05
  CGR           6          0          1   1.988E-05
  CGR           7          0          1   3.564E-06
  CGR           8          1          0   6.342E-07

    CGRSolver converged.

  ==> DFCorrGrad: Density-Fitted Correlated Gradients <==

    OpenMP threads:              1
    Integrals threads:           1
    Memory (MB):               715
    Schwarz Cutoff:          0E+00
    Fitting Condition:       1E-12

   => Auxiliary Basis Set <=

  Basis Set: 
    Number of shells: 186
    Number of basis function: 510
    Number of Cartesian functions: 574
    Spherical Harmonics?: true
    Max angular momentum: 3

	-----------------------------------------------------------
	 ==================> DF-MP2 Energies <==================== 
	-----------------------------------------------------------
	 Reference Energy          =    -157.2908616705686882 [Eh]
	 Singles Energy            =      -0.0000000000000000 [Eh]
	 Same-Spin Energy          =      -0.1242750079242000 [Eh]
	 Opposite-Spin Energy      =      -0.4216819338370762 [Eh]
	 Correlation Energy        =      -0.5459569417612762 [Eh]
	 Total Energy              =    -157.8368186123299779 [Eh]
	-----------------------------------------------------------
	 ================> DF-SCS-MP2 Energies <================== 
	-----------------------------------------------------------
	 SCS Same-Spin Scale       =       0.3333333333333333 [-]
	 SCS Opposite-Spin Scale   =       1.2000000000000000 [-]
	 SCS Same-Spin Energy      =      -0.0414250026414000 [Eh]
	 SCS Opposite-Spin Energy  =      -0.5060183206044914 [Eh]
	 SCS Correlation Energy    =      -0.5474433232458914 [Eh]
	 SCS Total Energy          =    -157.8383049938145746 [Eh]
	-----------------------------------------------------------


  -Total Gradient:
     Atom            X                  Y                   Z
    ------   -----------------  -----------------  -----------------
       1        0.005203235375     0.003825621699    -0.003006732537
       2        0.005193114175    -0.004822179187     0.000505491598
       3        0.002797377757     0.002411314309     0.006069563735
       4       -0.016011023955    -0.005374646127    -0.005143967636
       5       -0.003693822461    -0.007135812565     0.000962625556
       6       -0.002205204104    -0.005895275792    -0.005191438428
       7        0.012356751947     0.016952813681     0.009391292511
       8        0.002652313500     0.006090976906     0.004909987773
       9       -0.003445855096     0.003924540549     0.006405321101
      10       -0.002832116644    -0.012730657434    -0.018875481972
      11       -0.003181722494     0.006297296396    -0.002689374254
      12        0.003764065096     0.000216899383    -0.006098611663
      13       -0.004664001220    -0.003139301526    -0.003803311012
      14        0.004066888123    -0.000621590292     0.016564635227


			-----------------------------------------
			 OPTKING 2.0: for geometry optimizations 
			  - R.A. King,  Bethel University        
			-----------------------------------------

	Previous internal coordinate definitions found.
	---Fragment 1 Geometry and Gradient---
	 H          -3.9491542892        0.3278215797        0.0992661941
	 H          -3.6825505903        3.4217005570       -1.1163902392
	 H          -3.0980517618        0.8007988741       -3.0915269054
	 C          -2.9029877416        1.5277979475       -1.1883103687
	 H           0.9292463408        2.7748306548       -1.7270913987
	 H           0.0799345388        2.3025507585        1.4677997290
	 C          -0.0960054054        1.5612645299       -0.4333891346
	 H          -0.4182933387       -2.4559514442       -1.1175723946
	 H           2.5746764433       -1.1834938504       -1.8748327802
	 C           1.0322177812       -1.1357500957       -0.5281408488
	 H           2.8155005661       -3.8143715148        2.0069525784
	 H           0.5015241083       -1.8942126615        3.4457133985
	 H           3.4907310207       -0.6227761501        2.6887440311
	 C           2.0303050413       -1.9244967157        2.0842425145
	             0.0052032354        0.0038256217       -0.0030067325
	             0.0051931142       -0.0048221792        0.0005054916
	             0.0027973778        0.0024113143        0.0060695637
	            -0.0160110240       -0.0053746461       -0.0051439676
	            -0.0036938225       -0.0071358126        0.0009626256
	            -0.0022052041       -0.0058952758       -0.0051914384
	             0.0123567519        0.0169528137        0.0093912925
	             0.0026523135        0.0060909769        0.0049099878
	            -0.0034458551        0.0039245405        0.0064053211
	            -0.0028321166       -0.0127306574       -0.0188754820
	            -0.0031817225        0.0062972964       -0.0026893743
	             0.0037640651        0.0002168994       -0.0060986117
	            -0.0046640012       -0.0031393015       -0.0038033110
	             0.0040668881       -0.0006215903        0.0165646352

	---Fragment 1 Intrafragment Coordinates---
	 - Coordinate -           - BOHR/RAD -       - ANG/DEG -
	 R(1,4)           =         2.047501	       1.083491
	 R(2,4)           =         2.049331	       1.084459
	 R(3,4)           =         2.046658	       1.083045
	 R(4,7)           =         2.906919	       1.538275
	 R(5,7)           =         2.048792	       1.084174
	 R(6,7)           =         2.048165	       1.083842
	 R(7,10)          =         2.925022	       1.547855
	 R(8,10)          =         2.048010	       1.083760
	 R(9,10)          =         2.048179	       1.083850
	 R(10,14)         =         2.905658	       1.537608
	 R(11,14)         =         2.047958	       1.083733
	 R(12,14)         =         2.047362	       1.083417
	 R(13,14)         =         2.047619	       1.083553
	 B(1,4,2)         =         1.902005	     108.976846
	 B(1,4,3)         =         1.904878	     109.141497
	 B(1,4,7)         =         1.914331	     109.683104
	 B(2,4,3)         =         1.901440	     108.944474
	 B(2,4,7)         =         1.925772	     110.338606
	 B(3,4,7)         =         1.915182	     109.731836
	 B(4,7,5)         =         1.902916	     109.029071
	 B(4,7,6)         =         1.905169	     109.158167
	 B(4,7,10)        =         1.932027	     110.697021
	 B(5,7,6)         =         1.905793	     109.193905
	 B(5,7,10)        =         1.909947	     109.431929
	 B(6,7,10)        =         1.907789	     109.308244
	 B(7,10,8)        =         1.907647	     109.300143
	 B(7,10,9)        =         1.910565	     109.467316
	 B(7,10,14)       =         1.932278	     110.711359
	 B(8,10,9)        =         1.906163	     109.215123
	 B(8,10,14)       =         1.903984	     109.090222
	 B(9,10,14)       =         1.903005	     109.034149
	 B(10,14,11)      =         1.926517	     110.381300
	 B(10,14,12)      =         1.914909	     109.716200
	 B(10,14,13)      =         1.915427	     109.745893
	 B(11,14,12)      =         1.901848	     108.967839
	 B(11,14,13)      =         1.901108	     108.925469
	 B(12,14,13)      =         1.903768	     109.077878
	 D(1,4,7,5)       =        -3.136131	    -179.687093
	 D(1,4,7,6)       =        -1.055557	     -60.478943
	 D(1,4,7,10)      =         1.045135	      59.881847
	 D(2,4,7,5)       =        -1.040665	     -59.625697
	 D(2,4,7,6)       =         1.039910	      59.582452
	 D(2,4,7,10)      =         3.140602	     179.943243
	 D(3,4,7,5)       =         1.054643	      60.426600
	 D(3,4,7,6)       =         3.135218	     179.634749
	 D(3,4,7,10)      =        -1.047275	     -60.004460
	 D(4,7,10,8)      =         0.003920	       0.224609
	 D(4,7,10,9)      =         2.090992	     119.805013
	 D(4,7,10,14)     =        -2.093806	    -119.966247
	 D(5,7,10,8)      =        -2.093803	    -119.966066
	 D(5,7,10,9)      =        -0.006731	      -0.385662
	 D(5,7,10,14)     =         2.091656	     119.843078
	 D(6,7,10,8)      =         2.103049	     120.495854
	 D(6,7,10,9)      =        -2.093064	    -119.923742
	 D(6,7,10,14)     =         0.005323	       0.304998
	 D(7,10,14,11)    =         3.140368	     179.929820
	 D(7,10,14,12)    =         1.044260	      59.831676
	 D(7,10,14,13)    =        -1.047295	     -60.005606
	 D(8,10,14,11)    =         1.040455	      59.613665
	 D(8,10,14,12)    =        -1.055653	     -60.484479
	 D(8,10,14,13)    =         3.135977	     179.678238
	 D(9,10,14,11)    =        -1.039922	     -59.583163
	 D(9,10,14,12)    =        -3.136030	    -179.681307
	 D(9,10,14,13)    =         1.055600	      60.481410

	Current energy   :      -157.8368186123

	Energy change for the previous step:
		Projected    :        -0.0053409512
		Actual       :        -0.0041420628

	Performing BFGS update.
	Previous computed or guess Hessian on step 1.
	Steps to be used in Hessian update: 1
	Adding user-defined constraint: Fragment 1; Coordinate 49:
		Value =    -2.093806; Fixed value    =    -2.094400
		Force =    -0.000312; Force constant =     0.525000
	Removing off-diagonal coupling between coordinate 49 and others.
	Taking RFO optimization step.
	Going to follow RFO solution 1.
	Using RFO vector 1.

	Determining step-restricting scale parameter for RS-RFO.
	Maximum step size allowed    0.10000

	 Iter      |step|        alpha        rfo_root  
	------------------------------------------------
	    0     0.17870       1.00000           1
	    1     0.13915       7.69213           1
	    2     0.11299      18.47432           1
	    3     0.10224      26.28588           1
	    4     0.10009      28.23904           1
	    5     0.10000      28.32120           1
	------------------------------------------------
	Norm of target step-size    0.10000
	Projected energy change by RFO approximation:        -0.0028259600

	Back-transformation to cartesian coordinates...
	Successfully converged to displaced geometry.

	--- Internal Coordinate Step in ANG or DEG, aJ/ANG or AJ/DEG ---
	 ---------------------------------------------------------------------------
	   Coordinate                Previous        Force       Change         New 
	   ----------                --------       ------       ------       ------
	    1 R(1,4)          =      1.083491     0.055953     0.008434     1.091925
	    2 R(2,4)          =      1.084459     0.052844     0.007712     1.092172
	    3 R(3,4)          =      1.083045     0.055755     0.008402     1.091447
	    4 R(4,7)          =      1.538275    -0.026159    -0.006787     1.531488
	    5 R(5,7)          =      1.084174     0.055060     0.008213     1.092387
	    6 R(6,7)          =      1.083842     0.058841     0.009025     1.092867
	    7 R(7,10)         =      1.547855     0.010899    -0.000307     1.547548
	    8 R(8,10)         =      1.083760     0.059467     0.009102     1.092862
	    9 R(9,10)         =      1.083850     0.056831     0.008454     1.092304
	   10 R(10,14)        =      1.537608    -0.023231    -0.006227     1.531381
	   11 R(11,14)        =      1.083733     0.057090     0.008282     1.092015
	   12 R(12,14)        =      1.083417     0.056542     0.008507     1.091925
	   13 R(13,14)        =      1.083553     0.053100     0.008036     1.091589
	   14 B(1,4,2)        =    108.976846    -0.000199    -0.715275   108.261571
	   15 B(1,4,3)        =    109.141497    -0.000176    -0.772482   108.369015
	   16 B(1,4,7)        =    109.683104     0.000140     0.594134   110.277238
	   17 B(2,4,3)        =    108.944474    -0.000195    -0.680951   108.263524
	   18 B(2,4,7)        =    110.338606     0.000276     0.909682   111.248288
	   19 B(3,4,7)        =    109.731836     0.000145     0.602605   110.334441
	   20 B(4,7,5)        =    109.029071    -0.000112    -0.176243   108.852828
	   21 B(4,7,6)        =    109.158167    -0.000098    -0.180550   108.977617
	   22 B(4,7,10)       =    110.697021     0.000373     1.176288   111.873309
	   23 B(5,7,6)        =    109.193905    -0.000114    -1.120534   108.073371
	   24 B(5,7,10)       =    109.431929    -0.000003     0.242330   109.674259
	   25 B(6,7,10)       =    109.308244    -0.000053     0.000562   109.308806
	   26 B(7,10,8)       =    109.300143    -0.000053     0.000431   109.300574
	   27 B(7,10,9)       =    109.467316    -0.000005     0.227465   109.694781
	   28 B(7,10,14)      =    110.711359     0.000369     1.162898   111.874257
	   29 B(8,10,9)       =    109.215123    -0.000116    -1.131158   108.083965
	   30 B(8,10,14)      =    109.090222    -0.000091    -0.144398   108.945824
	   31 B(9,10,14)      =    109.034149    -0.000110    -0.173248   108.860901
	   32 B(10,14,11)     =    110.381300     0.000270     0.883046   111.264346
	   33 B(10,14,12)     =    109.716200     0.000134     0.569529   110.285730
	   34 B(10,14,13)     =    109.745893     0.000145     0.599220   110.345113
	   35 B(11,14,12)     =    108.967839    -0.000195    -0.703481   108.264359
	   36 B(11,14,13)     =    108.925469    -0.000192    -0.669325   108.256144
	   37 B(12,14,13)     =    109.077878    -0.000171    -0.741218   108.336660
	   38 D(1,4,7,5)      =   -179.687093     0.000027     0.699378  -178.987714
	   39 D(1,4,7,6)      =    -60.478943    -0.000033    -0.857538   -61.336482
	   40 D(1,4,7,10)     =     59.881847    -0.000009    -0.231063    59.650785
	   41 D(2,4,7,5)      =    -59.625697     0.000030     0.776136   -58.849561
	   42 D(2,4,7,6)      =     59.582452    -0.000029    -0.780780    58.801672
	   43 D(2,4,7,10)     =    179.943243    -0.000006    -0.154304   179.788938
	   44 D(3,4,7,5)      =     60.426600     0.000036     0.902471    61.329071
	   45 D(3,4,7,6)      =    179.634749    -0.000024    -0.654445   178.980304
	   46 D(3,4,7,10)     =    -60.004460     0.000000    -0.027970   -60.032430
	   47 D(4,7,10,8)     =      0.224609     0.000020     0.586129     0.810738
	   48 D(4,7,10,9)     =    119.805013    -0.000021    -0.655335   119.149678
	   49 D(4,7,10,14)    =   -119.966247     0.000001     0.026785  -119.939462
	   50 D(5,7,10,8)     =   -119.966066    -0.000002    -0.109249  -120.075315
	   51 D(5,7,10,9)     =     -0.385662    -0.000042    -1.350713    -1.736375
	   52 D(5,7,10,14)    =    119.843078    -0.000021    -0.668593   119.174485
	   53 D(6,7,10,8)     =    120.495854     0.000038     1.109991   121.605846
	   54 D(6,7,10,9)     =   -119.923742    -0.000003    -0.131473  -120.055214
	   55 D(6,7,10,14)    =      0.304998     0.000019     0.550648     0.855646
	   56 D(7,10,14,11)   =    179.929820    -0.000005    -0.146326   179.783495
	   57 D(7,10,14,12)   =     59.831676    -0.000008    -0.205971    59.625705
	   58 D(7,10,14,13)   =    -60.005606     0.000000    -0.023922   -60.029529
	   59 D(8,10,14,11)   =     59.613665    -0.000029    -0.786278    58.827387
	   60 D(8,10,14,12)   =    -60.484479    -0.000033    -0.845923   -61.330402
	   61 D(8,10,14,13)   =    179.678238    -0.000024    -0.663874   179.014364
	   62 D(9,10,14,11)   =    -59.583163     0.000030     0.760019   -58.823144
	   63 D(9,10,14,12)   =   -179.681307     0.000027     0.700373  -178.980934
	   64 D(9,10,14,13)   =     60.481410     0.000035     0.882422    61.363832
	 ---------------------------------------------------------------------------
	 Forces used to impose fixed constraints are not included.
	  Forces zeroed: 49 

  ==> Convergence Check <==

  Measures of convergence in internal coordinates in au.
  Criteria marked as inactive (o), active & met (*), and active & unmet ( ).
  ---------------------------------------------------------------------------------------------
   Step     Total Energy     Delta E     MAX Force     RMS Force      MAX Disp      RMS Disp   
  ---------------------------------------------------------------------------------------------
    Convergence Criteria    1.00e-06 *    3.00e-04 *             o    1.20e-03 *             o
  ---------------------------------------------------------------------------------------------
      2    -157.83681861   -4.14e-03      7.22e-03      3.24e-03 o    2.36e-02      1.25e-02 o  ~
  ---------------------------------------------------------------------------------------------

	Writing optimization data to binary file.
	Structure for next step:
	Cartesian Geometry (in Angstrom)
	    H    -2.1129868511   0.1806211161   0.0437403133
	    H    -1.9636941716   1.8189928289  -0.6089347892
	    H    -1.6560285340   0.4213938293  -1.6497527197
	    C    -1.5398650756   0.8128174660  -0.6375517029
	    H     0.4856689809   1.4737702537  -0.9209657370
	    H     0.0306522347   1.2336098324   0.7712780361
	    C    -0.0617925232   0.8215581821  -0.2367033850
	    H    -0.2089027759  -1.3144655247  -0.5874367091
	    H     1.3718726105  -0.6298294521  -0.9886777840
	    C     0.5522798728  -0.5986123132  -0.2672760927
	    H     1.5120795089  -2.0240688339   1.0734199626
	    H     0.2787648781  -1.0140027045   1.8421180962
	    H     1.8605557329  -0.3284398564   1.4399102309
	    C     1.0847253688  -1.0196586219   1.1054397215
			--------------------------
			 OPTKING Finished Execution 
			--------------------------

    Structure for next step:
    Molecular point group: c1
    Full point group: C1

    Geometry (in Angstrom), charge = 0, multiplicity = 1:

    H           -2.113314125434     0.180459082701     0.044001229819
    H           -1.964021445905     1.818830795551    -0.608673872652
    H           -1.656355808356     0.421231795906    -1.649491803116
    C           -1.540192349899     0.812655432675    -0.637290786350
    H            0.485341706594     1.473608220335    -0.920704820415
    H            0.030324960389     1.233447799073     0.771538952678
    C           -0.062119797539     0.821396148744    -0.236442468440
    H           -0.209230050200    -1.314627558113    -0.587175792500
    H            1.371545336167    -0.629991485493    -0.988416867447
    C            0.551952598480    -0.598774346576    -0.267015176186
    H            1.511752234555    -2.024230867316     1.073680879202
    H            0.278437603741    -1.014164737908     1.842379012748
    H            1.860228458529    -0.328601889769     1.440171147487
    C            1.084398094459    -1.019820655268     1.105700638076

gradient() will perform analytic gradient computation.
    SCF Algorithm Type (re)set to DF.

*** tstart() called on lski1497
*** at Thu Feb 16 16:30:05 2017


         ---------------------------------------------------------
                                   SCF
            by Justin Turney, Rob Parrish, and Andy Simmonett
                              RHF Reference
                        1 Threads,   1000 MiB Core
         ---------------------------------------------------------

  ==> Geometry <==

    Molecular point group: c1
    Full point group: C1

    Geometry (in Angstrom), charge = 0, multiplicity = 1:

       Center              X                  Y                   Z               Mass       
    ------------   -----------------  -----------------  -----------------  -----------------
           H         -2.113314125434     0.180459082701     0.044001229819     1.007825032070
           H         -1.964021445905     1.818830795551    -0.608673872652     1.007825032070
           H         -1.656355808356     0.421231795906    -1.649491803116     1.007825032070
           C         -1.540192349899     0.812655432675    -0.637290786350    12.000000000000
           H          0.485341706594     1.473608220335    -0.920704820415     1.007825032070
           H          0.030324960389     1.233447799073     0.771538952678     1.007825032070
           C         -0.062119797539     0.821396148744    -0.236442468440    12.000000000000
           H         -0.209230050200    -1.314627558113    -0.587175792500     1.007825032070
           H          1.371545336167    -0.629991485493    -0.988416867447     1.007825032070
           C          0.551952598480    -0.598774346576    -0.267015176186    12.000000000000
           H          1.511752234555    -2.024230867316     1.073680879202     1.007825032070
           H          0.278437603741    -1.014164737908     1.842379012748     1.007825032070
           H          1.860228458529    -0.328601889769     1.440171147487     1.007825032070
           C          1.084398094459    -1.019820655268     1.105700638076    12.000000000000

  Running in c1 symmetry.

  Rotational constants: A =      0.59590  B =      0.12728  C =      0.12723 [cm^-1]
  Rotational constants: A =  17864.66312  B =   3815.67356  C =   3814.31886 [MHz]
  Nuclear repulsion =  131.143844890139178

  Charge       = 0
  Multiplicity = 1
  Electrons    = 34
  Nalpha       = 17
  Nbeta        = 17

  ==> Algorithm <==

  SCF Algorithm Type is DF.
  DIIS enabled.
  MOM disabled.
  Fractional occupation disabled.
  Guess Type is READ.
  Energy threshold   = 1.00e-10
  Density threshold  = 1.00e-10
  Integral threshold = 0.00e+00

  ==> Primary Basis <==

  Basis Set: 6-31G(D)
    Number of shells: 44
    Number of basis function: 80
    Number of Cartesian functions: 80
    Spherical Harmonics?: false
    Max angular momentum: 2

  ==> Pre-Iterations <==

   -------------------------------------------------------
    Irrep   Nso     Nmo     Nalpha   Nbeta   Ndocc  Nsocc
   -------------------------------------------------------
     A         80      80       0       0       0       0
   -------------------------------------------------------
    Total      80      80      17      17      17       0
   -------------------------------------------------------

  ==> Integral Setup <==

  ==> DFJK: Density-Fitted J/K Matrices <==

    J tasked:                  Yes
    K tasked:                  Yes
    wK tasked:                  No
    OpenMP threads:              1
    Integrals threads:           1
    Memory (MB):               715
    Algorithm:                Core
    Integral Cache:           NONE
    Schwarz Cutoff:          1E-12
    Fitting Condition:       1E-12

   => Auxiliary Basis Set <=

  Basis Set: 
    Number of shells: 186
    Number of basis function: 574
    Number of Cartesian functions: 574
    Spherical Harmonics?: false
    Max angular momentum: 3

  Minimum eigenvalue in the overlap matrix is 5.0162309280E-03.
  Using Symmetric Orthogonalization.
  SCF Guess was Projection but file not found.
  Switching over to SAD guess.

  SCF Guess: Superposition of Atomic Densities via on-the-fly atomic UHF.

  ==> Iterations <==

                           Total Energy        Delta E     RMS |[F,P]|

   @DF-RHF iter   0:  -158.81002367334366   -1.58810e+02   4.60030e-02 
   @DF-RHF iter   1:  -157.20207682986097    1.60795e+00   3.91748e-03 
   @DF-RHF iter   2:  -157.28301665586940   -8.09398e-02   1.11172e-03 DIIS
   @DF-RHF iter   3:  -157.29133286197356   -8.31621e-03   2.60481e-04 DIIS
   @DF-RHF iter   4:  -157.29171335711789   -3.80495e-04   7.94500e-05 DIIS
   @DF-RHF iter   5:  -157.29175055594209   -3.71988e-05   1.37453e-05 DIIS
   @DF-RHF iter   6:  -157.29175197119639   -1.41525e-06   2.63731e-06 DIIS
   @DF-RHF iter   7:  -157.29175200782407   -3.66277e-08   8.01538e-07 DIIS
   @DF-RHF iter   8:  -157.29175201140794   -3.58386e-09   1.46489e-07 DIIS
   @DF-RHF iter   9:  -157.29175201158671   -1.78773e-10   3.42886e-08 DIIS
   @DF-RHF iter  10:  -157.29175201159671   -1.00044e-11   5.74209e-09 DIIS
   @DF-RHF iter  11:  -157.29175201159683   -1.13687e-13   1.17502e-09 DIIS
   @DF-RHF iter  12:  -157.29175201159728   -4.54747e-13   3.97215e-10 DIIS
   @DF-RHF iter  13:  -157.29175201159717    1.13687e-13   7.96006e-11 DIIS

  ==> Post-Iterations <==

    Orbital Energies (a.u.)
    -----------------------

    Doubly Occupied:                                                      

       1A    -11.214798     2A    -11.214252     3A    -11.209746  
       4A    -11.209724     5A     -1.066836     6A     -0.977878  
       7A     -0.859537     8A     -0.785398     9A     -0.630881  
      10A     -0.599949    11A     -0.578905    12A     -0.550457  
      13A     -0.508884    14A     -0.506917    15A     -0.466046  
      16A     -0.457199    17A     -0.450298  

    Virtual:                                                              

      18A      0.231887    19A      0.268604    20A      0.284303  
      21A      0.292262    22A      0.317022    23A      0.324470  
      24A      0.329015    25A      0.336857    26A      0.345119  
      27A      0.355050    28A      0.411654    29A      0.450513  
      30A      0.457420    31A      0.713924    32A      0.723761  
      33A      0.734968    34A      0.790038    35A      0.807582  
      36A      0.818185    37A      0.836720    38A      0.935187  
      39A      0.941694    40A      0.995658    41A      1.063657  
      42A      1.098738    43A      1.154798    44A      1.155800  
      45A      1.169098    46A      1.188754    47A      1.190874  
      48A      1.205320    49A      1.235150    50A      1.235569  
      51A      1.248654    52A      1.253988    53A      1.262477  
      54A      1.445221    55A      1.679238    56A      1.740252  
      57A      1.774386    58A      1.903223    59A      1.987828  
      60A      2.068278    61A      2.195227    62A      2.226041  
      63A      2.276558    64A      2.302187    65A      2.348990  
      66A      2.438187    67A      2.479278    68A      2.605078  
      69A      2.640705    70A      2.649047    71A      2.718194  
      72A      2.730475    73A      2.774638    74A      2.892015  
      75A      3.012643    76A      3.071728    77A      4.556027  
      78A      4.651022    79A      4.812756    80A      4.959329  

    Final Occupation by Irrep:
              A 
    DOCC [    17 ]

  Energy converged.

  @DF-RHF Final Energy:  -157.29175201159717

   => Energetics <=

    Nuclear Repulsion Energy =            131.1438448901391780
    One-Electron Energy =                -470.2957815362114502
    Two-Electron Energy =                 181.8601846344751323
    DFT Exchange-Correlation Energy =       0.0000000000000000
    Empirical Dispersion Energy =           0.0000000000000000
    PCM Polarization Energy =               0.0000000000000000
    EFP Energy =                            0.0000000000000000
    Total Energy =                       -157.2917520115971399


  Saving occupied orbitals to File 180.

*** tstop() called on lski1497 at Thu Feb 16 16:30:12 2017
Module time:
	user time   =       5.50 seconds =       0.09 minutes
	system time =       0.16 seconds =       0.00 minutes
	total time  =          7 seconds =       0.12 minutes
Total time:
	user time   =      55.62 seconds =       0.93 minutes
	system time =       1.56 seconds =       0.03 minutes
	total time  =         66 seconds =       1.10 minutes


Properties will be evaluated at   0.000000,   0.000000,   0.000000 Bohr

Properties computed using the SCF density matrix

  Nuclear Dipole Moment: (a.u.)
     X:    -0.3799      Y:    -0.1725      Z:     0.3912

  Electronic Dipole Moment: (a.u.)
     X:     0.3993      Y:     0.1813      Z:    -0.4111

  Dipole Moment: (a.u.)
     X:     0.0193      Y:     0.0087      Z:    -0.0199     Total:     0.0291

  Dipole Moment: (Debye)
     X:     0.0491      Y:     0.0222      Z:    -0.0507     Total:     0.0740


  //>>>>>>>>>>>>>>>>>>>>>>>>>>>>>>>>>>>//
  //               DFMP2               //
  //<<<<<<<<<<<<<<<<<<<<<<<<<<<<<<<<<<<//


*** tstart() called on lski1497
*** at Thu Feb 16 16:30:12 2017


*** tstop() called on lski1497 at Thu Feb 16 16:30:12 2017
Module time:
	user time   =       0.56 seconds =       0.01 minutes
	system time =       0.00 seconds =       0.00 minutes
	total time  =          0 seconds =       0.00 minutes
Total time:
	user time   =      56.19 seconds =       0.94 minutes
	system time =       1.56 seconds =       0.03 minutes
	total time  =         66 seconds =       1.10 minutes
	 --------------------------------------------------------
	                          DF-MP2                         
	      2nd-Order Density-Fitted Moller-Plesset Theory     
	              RMP2 Wavefunction,   1 Threads             
	                                                         
	        Rob Parrish, Justin Turney, Andy Simmonett,      
	           Ed Hohenstein, and C. David Sherrill          
	 --------------------------------------------------------

   => Auxiliary Basis Set <=

  Basis Set: 
    Number of shells: 132
    Number of basis function: 364
    Number of Cartesian functions: 414
    Spherical Harmonics?: true
    Max angular momentum: 3

	 --------------------------------------------------------
	                 NBF =    80, NAUX =   364
	 --------------------------------------------------------
	   CLASS    FOCC     OCC    AOCC    AVIR     VIR    FVIR
	   PAIRS       0      17      17      63      63       0
	 --------------------------------------------------------

DGAS Warning! /src/lib/libfock/apps.cc:80 is not currently checking restricted

         ------------------------------------------------------------
                                     CPHF                           
                                  Rob Parrish                       
         ------------------------------------------------------------

  ==> Geometry <==

    Molecular point group: c1
    Full point group: C1

    Geometry (in Angstrom), charge = 0, multiplicity = 1:

       Center              X                  Y                   Z               Mass       
    ------------   -----------------  -----------------  -----------------  -----------------
           H         -2.113314125434     0.180459082701     0.044001229819     1.007825032070
           H         -1.964021445905     1.818830795551    -0.608673872652     1.007825032070
           H         -1.656355808356     0.421231795906    -1.649491803116     1.007825032070
           C         -1.540192349899     0.812655432675    -0.637290786350    12.000000000000
           H          0.485341706594     1.473608220335    -0.920704820415     1.007825032070
           H          0.030324960389     1.233447799073     0.771538952678     1.007825032070
           C         -0.062119797539     0.821396148744    -0.236442468440    12.000000000000
           H         -0.209230050200    -1.314627558113    -0.587175792500     1.007825032070
           H          1.371545336167    -0.629991485493    -0.988416867447     1.007825032070
           C          0.551952598480    -0.598774346576    -0.267015176186    12.000000000000
           H          1.511752234555    -2.024230867316     1.073680879202     1.007825032070
           H          0.278437603741    -1.014164737908     1.842379012748     1.007825032070
           H          1.860228458529    -0.328601889769     1.440171147487     1.007825032070
           C          1.084398094459    -1.019820655268     1.105700638076    12.000000000000

  Nuclear repulsion =  131.143844890139178
  Reference energy  = -157.291752011597168

  ==> Basis Set <==

  Basis Set: 6-31G(D)
    Number of shells: 44
    Number of basis function: 80
    Number of Cartesian functions: 80
    Spherical Harmonics?: false
    Max angular momentum: 2

  ==> CGRSolver (by Rob Parrish) <==

   Number of roots    =         1
   Preconditioning    =    JACOBI
   Convergence cutoff =     1E-06
   Maximum iterations =       100

  ==> CPHFRHamiltonian (by Rob Parrish) <== 

  ==> DFJK: Density-Fitted J/K Matrices <==

    J tasked:                  Yes
    K tasked:                  Yes
[...]
    Memory (MB):               715
    Algorithm:                Core
    Integral Cache:           NONE
    Schwarz Cutoff:          1E-12
    Fitting Condition:       1E-12

   => Auxiliary Basis Set <=

  Basis Set: 
    Number of shells: 186
    Number of basis function: 574
    Number of Cartesian functions: 574
    Spherical Harmonics?: false
    Max angular momentum: 3

  ==> CPHF Iterations <==

  => Iterations <=

             Iter  Converged  Remaining    Residual
  CGR           1          0          1   7.520E-02
  CGR           2          0          1   9.295E-03
  CGR           3          0          1   2.774E-03
  CGR           4          0          1   4.129E-04
  CGR           5          0          1   8.041E-05
  CGR           6          0          1   1.825E-05
  CGR           7          0          1   2.906E-06
  CGR           8          1          0   5.503E-07

    CGRSolver converged.

  ==> DFCorrGrad: Density-Fitted Correlated Gradients <==

    OpenMP threads:              1
    Integrals threads:           1
    Memory (MB):               715
    Schwarz Cutoff:          0E+00
    Fitting Condition:       1E-12

   => Auxiliary Basis Set <=

  Basis Set: 
    Number of shells: 186
    Number of basis function: 510
    Number of Cartesian functions: 574
    Spherical Harmonics?: true
    Max angular momentum: 3

	-----------------------------------------------------------
	 ==================> DF-MP2 Energies <==================== 
	-----------------------------------------------------------
	 Reference Energy          =    -157.2920389510316284 [Eh]
	 Singles Energy            =      -0.0000000000000000 [Eh]
	 Same-Spin Energy          =      -0.1242727415689349 [Eh]
	 Opposite-Spin Energy      =      -0.4224170590770878 [Eh]
	 Correlation Energy        =      -0.5466898006460227 [Eh]
	 Total Energy              =    -157.8387287516776496 [Eh]
	-----------------------------------------------------------
	 ================> DF-SCS-MP2 Energies <================== 
	-----------------------------------------------------------
	 SCS Same-Spin Scale       =       0.3333333333333333 [-]
	 SCS Opposite-Spin Scale   =       1.2000000000000000 [-]
	 SCS Same-Spin Energy      =      -0.0414242471896449 [Eh]
	 SCS Opposite-Spin Energy  =      -0.5069004708925053 [Eh]
	 SCS Correlation Energy    =      -0.5483247180821503 [Eh]
	 SCS Total Energy          =    -157.8403636691137706 [Eh]
	-----------------------------------------------------------


  -Total Gradient:
     Atom            X                  Y                   Z
    ------   -----------------  -----------------  -----------------
       1        0.000003108508     0.000006192243     0.000002365907
       2       -0.000011040249     0.000001796894    -0.000007248537
       3        0.000001009246    -0.000006589849     0.000003132480
       4        0.000024646606     0.000001484064     0.000089196677
       5       -0.000029057836     0.000007427342     0.000001001832
       6        0.000016331895     0.000008345256    -0.000023658721
       7       -0.000043039985     0.000042610700    -0.000075239106
       8        0.000023020076     0.000009535824    -0.000016602211
       9        0.000005366636    -0.000018087746     0.000023417578
      10        0.000089670645    -0.000021677134     0.000026842539
      11        0.000008692696    -0.000003284454     0.000009568160
      12       -0.000000278442    -0.000005250574    -0.000006178558
      13       -0.000005885775     0.000004278359     0.000001337732
      14       -0.000082544021    -0.000026780927    -0.000027935771


			-----------------------------------------
			 OPTKING 2.0: for geometry optimizations 
			  - R.A. King,  Bethel University        
			-----------------------------------------

	Previous internal coordinate definitions found.
	---Fragment 1 Geometry and Gradient---
	 H          -4.0175141291        0.3408282264        0.0544556139
	 H          -3.7192202970        3.4451330679       -1.1499621520
	 H          -3.1507870262        0.8164048494       -3.1348004437
	 C          -2.9126647222        1.5430269977       -1.2142816840
	 H           0.9200012167        2.8020837008       -1.7132771037
	 H           0.0495621296        2.3525690448        1.4425087109
	 C          -0.1316575128        1.5398577069       -0.4545641354
	 H          -0.3717169178       -2.4989413835       -1.1113091913
	 H           2.5743474727       -1.2144758073       -1.8791415273
	 C           1.0464788269       -1.1242234742       -0.4859332488
	 H           2.8606047571       -3.8352335556        2.0327191910
	 H           0.5547821729       -1.9141299068        3.5054186156
	 H           3.5421226185       -0.6385455269        2.7324632964
	 C           2.0614890709       -1.9297444383        2.0893481268
	             0.0000031085        0.0000061922        0.0000023659
	            -0.0000110402        0.0000017969       -0.0000072485
	             0.0000010092       -0.0000065898        0.0000031325
	             0.0000246466        0.0000014841        0.0000891967
	            -0.0000290578        0.0000074273        0.0000010018
	             0.0000163319        0.0000083453       -0.0000236587
	            -0.0000430400        0.0000426107       -0.0000752391
	             0.0000230201        0.0000095358       -0.0000166022
	             0.0000053666       -0.0000180877        0.0000234176
	             0.0000896706       -0.0000216771        0.0000268425
	             0.0000086927       -0.0000032845        0.0000095682
	            -0.0000002784       -0.0000052506       -0.0000061786
	            -0.0000058858        0.0000042784        0.0000013377
	            -0.0000825440       -0.0000267809       -0.0000279358

	---Fragment 1 Intrafragment Coordinates---
	 - Coordinate -           - BOHR/RAD -       - ANG/DEG -
	 R(1,4)           =         2.067769	       1.094216
	 R(2,4)           =         2.067045	       1.093833
	 R(3,4)           =         2.067142	       1.093884
	 R(4,7)           =         2.882912	       1.525571
	 R(5,7)           =         2.069676	       1.095225
	 R(6,7)           =         2.071769	       1.096333
	 R(7,10)          =         2.913129	       1.541561
	 R(8,10)          =         2.071768	       1.096333
	 R(9,10)          =         2.069676	       1.095225
	 R(10,14)         =         2.882912	       1.525572
	 R(11,14)         =         2.067047	       1.093834
	 R(12,14)         =         2.067768	       1.094216
	 R(13,14)         =         2.067140	       1.093883
	 B(1,4,2)         =         1.883281	     107.904049
	 B(1,4,3)         =         1.879830	     107.706333
	 B(1,4,7)         =         1.931679	     110.677081
	 B(2,4,3)         =         1.883280	     107.904000
	 B(2,4,7)         =         1.948962	     111.667293
	 B(3,4,7)         =         1.934318	     110.828273
	 B(4,7,5)         =         1.906282	     109.221936
	 B(4,7,6)         =         1.902074	     108.980798
	 B(4,7,10)        =         1.969577	     112.848465
	 B(5,7,6)         =         1.847517	     105.854942
	 B(5,7,10)        =         1.923761	     110.223366
	 B(6,7,10)        =         1.910521	     109.464785
	 B(7,10,8)        =         1.910523	     109.464917
	 B(7,10,9)        =         1.923759	     110.223272
	 B(7,10,14)       =         1.969576	     112.848404
	 B(8,10,9)        =         1.847518	     105.854987
	 B(8,10,14)       =         1.902074	     108.980812
	 B(9,10,14)       =         1.906282	     109.221907
	 B(10,14,11)      =         1.948959	     111.667132
	 B(10,14,12)      =         1.931675	     110.676852
	 B(10,14,13)      =         1.934319	     110.828331
	 B(11,14,12)      =         1.883280	     107.903967
	 B(11,14,13)      =         1.883282	     107.904096
	 B(12,14,13)      =         1.879836	     107.706674
	 D(1,4,7,5)       =        -3.110017	    -178.190857
	 D(1,4,7,6)       =        -1.099271	     -62.983594
	 D(1,4,7,10)      =         1.026967	      58.840885
	 D(2,4,7,5)       =        -1.011561	     -57.958179
	 D(2,4,7,6)       =         0.999185	      57.249084
	 D(2,4,7,10)      =         3.125423	     179.073563
	 D(3,4,7,5)       =         1.088692	      62.377452
	 D(3,4,7,6)       =         3.099438	     177.584715
	 D(3,4,7,10)      =        -1.057509	     -60.590806
	 D(4,7,10,8)      =         0.027131	       1.554471
	 D(4,7,10,9)      =         2.052414	     117.594658
	 D(4,7,10,14)     =        -2.094338	    -119.996706
	 D(5,7,10,8)      =        -2.109306	    -120.854315
	 D(5,7,10,9)      =        -0.084022	      -4.814127
	 D(5,7,10,14)     =         2.052411	     117.594509
	 D(6,7,10,8)      =         2.148598	     123.105576
	 D(6,7,10,9)      =        -2.109304	    -120.854237
	 D(6,7,10,14)     =         0.027129	       1.554400
	 D(7,10,14,11)    =         3.125458	     179.075551
	 D(7,10,14,12)    =         1.027008	      58.843241
	 D(7,10,14,13)    =        -1.057473	     -60.588765
	 D(8,10,14,11)    =         0.999217	      57.250935
	 D(8,10,14,12)    =        -1.099232	     -62.981376
	 D(8,10,14,13)    =         3.099471	     177.586618
	 D(9,10,14,11)    =        -1.011530	     -57.956374
	 D(9,10,14,12)    =        -3.109979	    -178.188685
	 D(9,10,14,13)    =         1.088724	      62.379309

	Current energy   :      -157.8387287517

	Energy change for the previous step:
		Projected    :        -0.0000013996
		Actual       :        -0.0000007878

	Performing BFGS update.
	Previous computed or guess Hessian on step 1.
	Steps to be used in Hessian update: 5 4
	Adding user-defined constraint: Fragment 1; Coordinate 49:
		Value =    -2.094338; Fixed value    =    -2.094400
		Force =    -0.000039; Force constant =     0.625000
	Removing off-diagonal coupling between coordinate 49 and others.
	Taking RFO optimization step.
	Going to follow RFO solution 1.
	Using RFO vector 1.
	Norm of target step-size    0.00456
	Projected energy change by RFO approximation:        -0.0000003629

	Back-transformation to cartesian coordinates...
	Could not converge backtransformation.
	Using first guess instead.

	--- Internal Coordinate Step in ANG or DEG, aJ/ANG or AJ/DEG ---
	 ---------------------------------------------------------------------------
	   Coordinate                Previous        Force       Change         New 
	   ----------                --------       ------       ------       ------
	    1 R(1,4)          =      1.094216     0.000032    -0.000017     1.094199
	    2 R(2,4)          =      1.093833    -0.000048    -0.000026     1.093807
	    3 R(3,4)          =      1.093884     0.000007    -0.000017     1.093867
	    4 R(4,7)          =      1.525571     0.000332     0.000078     1.525649
	    5 R(5,7)          =      1.095225     0.000089     0.000005     1.095231
	    6 R(6,7)          =      1.096333     0.000139     0.000022     1.096354
	    7 R(7,10)         =      1.541561    -0.000590    -0.000107     1.541454
	    8 R(8,10)         =      1.096333     0.000140     0.000022     1.096354
	    9 R(9,10)         =      1.095225     0.000091     0.000005     1.095230
	   10 R(10,14)        =      1.525572     0.000333     0.000077     1.525648
	   11 R(11,14)        =      1.093834    -0.000051    -0.000029     1.093805
	   12 R(12,14)        =      1.094216     0.000034    -0.000017     1.094199
	   13 R(13,14)        =      1.093883     0.000010    -0.000015     1.093868
	   14 B(1,4,2)        =    107.904049     0.000000     0.002298   107.906347
	   15 B(1,4,3)        =    107.706333    -0.000000     0.001042   107.707376
	   16 B(1,4,7)        =    110.677081     0.000001    -0.000553   110.676528
	   17 B(2,4,3)        =    107.904000     0.000000     0.000709   107.904709
	   18 B(2,4,7)        =    111.667293    -0.000001    -0.005503   111.661789
	   19 B(3,4,7)        =    110.828273     0.000000     0.002257   110.830530
	   20 B(4,7,5)        =    109.221936    -0.000001     0.012867   109.234803
	   21 B(4,7,6)        =    108.980798     0.000002    -0.012387   108.968410
	   22 B(4,7,10)       =    112.848465     0.000000     0.002996   112.851461
	   23 B(5,7,6)        =    105.854942     0.000001     0.001264   105.856205
	   24 B(5,7,10)       =    110.223366    -0.000001     0.001570   110.224936
	   25 B(6,7,10)       =    109.464785    -0.000000    -0.006594   109.458191
	   26 B(7,10,8)       =    109.464917    -0.000000    -0.006714   109.458203
	   27 B(7,10,9)       =    110.223272    -0.000001     0.001625   110.224898
	   28 B(7,10,14)      =    112.848404     0.000000     0.003075   112.851479
	   29 B(8,10,9)       =    105.854987     0.000001     0.001188   105.856175
	   30 B(8,10,14)      =    108.980812     0.000002    -0.012313   108.968499
	   31 B(9,10,14)      =    109.221907    -0.000001     0.012846   109.234753
	   32 B(10,14,11)     =    111.667132    -0.000001    -0.005363   111.661770
	   33 B(10,14,12)     =    110.676852     0.000001    -0.000263   110.676589
	   34 B(10,14,13)     =    110.828331     0.000000     0.002303   110.830635
	   35 B(11,14,12)     =    107.903967     0.000000     0.002279   107.906246
	   36 B(11,14,13)     =    107.904096     0.000000     0.000573   107.904669
	   37 B(12,14,13)     =    107.706674    -0.000000     0.000691   107.707365
	   38 D(1,4,7,5)      =   -178.190857    -0.000000    -0.048236  -178.239093
	   39 D(1,4,7,6)      =    -62.983594    -0.000000    -0.046509   -63.030103
	   40 D(1,4,7,10)     =     58.840885     0.000000    -0.061694    58.779191
	   41 D(2,4,7,5)      =    -57.958179    -0.000000    -0.049379   -58.007558
	   42 D(2,4,7,6)      =     57.249084    -0.000000    -0.047653    57.201431
	   43 D(2,4,7,10)     =    179.073563     0.000000    -0.062838   179.010725
	   44 D(3,4,7,5)      =     62.377452    -0.000000    -0.050643    62.326809
	   45 D(3,4,7,6)      =    177.584715    -0.000000    -0.048916   177.535798
	   46 D(3,4,7,10)     =    -60.590806     0.000000    -0.064101   -60.654908
	   47 D(4,7,10,8)     =      1.554471    -0.000001    -0.029200     1.525271
	   48 D(4,7,10,9)     =    117.594658    -0.000001    -0.030743   117.563915
	   49 D(4,7,10,14)    =   -119.996706    -0.000001    -0.010770  -120.007476
	   50 D(5,7,10,8)     =   -120.854315    -0.000000    -0.049105  -120.903420
	   51 D(5,7,10,9)     =     -4.814127    -0.000000    -0.050648    -4.864775
	   52 D(5,7,10,14)    =    117.594509    -0.000001    -0.030675   117.563834
	   53 D(6,7,10,8)     =    123.105576    -0.000000    -0.047692   123.057884
	   54 D(6,7,10,9)     =   -120.854237    -0.000000    -0.049235  -120.903472
	   55 D(6,7,10,14)    =      1.554400    -0.000001    -0.029262     1.525137
	   56 D(7,10,14,11)   =    179.075551     0.000000    -0.064631   179.010921
	   57 D(7,10,14,12)   =     58.843241     0.000000    -0.063754    58.779486
	   58 D(7,10,14,13)   =    -60.588765     0.000000    -0.065941   -60.654706
	   59 D(8,10,14,11)   =     57.250935    -0.000000    -0.049397    57.201537
	   60 D(8,10,14,12)   =    -62.981376    -0.000000    -0.048521   -63.029897
	   61 D(8,10,14,13)   =    177.586618    -0.000000    -0.050708   177.535910
	   62 D(9,10,14,11)   =    -57.956374    -0.000000    -0.051063   -58.007437
	   63 D(9,10,14,12)   =   -178.188685    -0.000000    -0.050187  -178.238872
	   64 D(9,10,14,13)   =     62.379309    -0.000000    -0.052373    62.326936
	 ---------------------------------------------------------------------------
	 Forces used to impose fixed constraints are not included.
	  Forces zeroed: 49 

  ==> Convergence Check <==

  Measures of convergence in internal coordinates in au.
  Criteria marked as inactive (o), active & met (*), and active & unmet ( ).
  ---------------------------------------------------------------------------------------------
   Step     Total Energy     Delta E     MAX Force     RMS Force      MAX Disp      RMS Disp   
  ---------------------------------------------------------------------------------------------
    Convergence Criteria    1.00e-06 *    3.00e-04 *             o    1.20e-03 *             o
  ---------------------------------------------------------------------------------------------
      6    -157.83872875   -7.88e-07 *    7.16e-05 *    1.77e-05 o    1.15e-03 *    5.70e-04 o  ~
  ---------------------------------------------------------------------------------------------


  **** Optimization is complete! (in 6 steps) ****

  ==> Optimization Summary <==

  Measures of convergence in internal coordinates in au.
  --------------------------------------------------------------------------------------------------------------- ~
   Step         Total Energy             Delta E       MAX Force       RMS Force        MAX Disp        RMS Disp  ~
  --------------------------------------------------------------------------------------------------------------- ~
      1    -157.832676549525   -157.832676549525      0.01811287      0.00732866      0.02816530      0.01250802  ~
      2    -157.836818612330     -0.004142062805      0.00721801      0.00324463      0.02357439      0.01252108  ~
      3    -157.838322842096     -0.001504229766      0.00169833      0.00098245      0.03808924      0.01251262  ~
      4    -157.838704927627     -0.000382085532      0.00136456      0.00025875      0.01427705      0.00536160  ~
      5    -157.838727963902     -0.000023036275      0.00013522      0.00005562      0.00471297      0.00207117  ~
      6    -157.838728751678     -0.000000787775      0.00007158      0.00001926      0.00115089      0.00057050  ~
  --------------------------------------------------------------------------------------------------------------- ~

	Writing optimization data to binary file.
	Final energy is   -157.8387287516776
	Final (previous) structure:
	Cartesian Geometry (in Angstrom)
	    H    -2.1259769123   0.1803585294   0.0288166697
	    H    -1.9681266149   1.8230859001  -0.6085337616
	    H    -1.6673246834   0.4320228393  -1.6588649483
	    C    -1.5413157873   0.8165347194  -0.6425701920
	    H     0.4868436758   1.4827988310  -0.9066271953
	    H     0.0262271494   1.2449259201   0.7633427330
	    C    -0.0696701551   0.8148576030  -0.2405449803
	    H    -0.1967041209  -1.3223828257  -0.5880794957
	    H     1.3622860095  -0.6426729176  -0.9943988679
	    C     0.5537727445  -0.5949134399  -0.2571448002
	    H     1.5137668403  -2.0295181872   1.0756686674
	    H     0.2935780816  -1.0129139210   1.8549876380
	    H     1.8744105598  -0.3379037395   1.4459572997
	    C     1.0908930321  -1.0211767751   1.1056354095
	Saving final (previous) structure.
			--------------------------
			 OPTKING Finished Execution 
			--------------------------

    Final optimized geometry and variables:
    Molecular point group: c1
    Full point group: C1

    Geometry (in Angstrom), charge = 0, multiplicity = 1:

    H           -2.125976912286     0.180358529432     0.028816669738
    H           -1.968126614891     1.823085900075    -0.608533761578
    H           -1.667324683397     0.432022839290    -1.658864948273
    C           -1.541315787269     0.816534719437    -0.642570191958
    H            0.486843675753     1.482798831002    -0.906627195280
    H            0.026227149405     1.244925920128     0.763342732995
    C           -0.069670155135     0.814857602959    -0.240544980305
    H           -0.196704120937    -1.322382825736    -0.588079495747
    H            1.362286009540    -0.642672917589    -0.994398867937
    C            0.553772744489    -0.594913439883    -0.257144800180
    H            1.513766840255    -2.029518187224     1.075668667355
    H            0.293578081621    -1.012913920951     1.854987637956
    H            1.874410559756    -0.337903739489     1.445957299743
    C            1.090893032053    -1.021176775134     1.105635409519

	Cleaning optimization helper files.

*** Psi4 exiting successfully. Buy a developer a beer!
