    -----------------------------------------------------------------------
          Psi4: An Open-Source Ab Initio Electronic Structure Package
                              Psi4 1.0.0 Driver

                          Git: Rev {master} 6a9a71b 

    J. M. Turney, A. C. Simmonett, R. M. Parrish, E. G. Hohenstein,
    F. A. Evangelista, J. T. Fermann, B. J. Mintz, L. A. Burns, J. J. Wilke,
    M. L. Abrams, N. J. Russ, M. L. Leininger, C. L. Janssen, E. T. Seidl,
    W. D. Allen, H. F. Schaefer, R. A. King, E. F. Valeev, C. D. Sherrill,
    and T. D. Crawford, WIREs Comput. Mol. Sci. 2, 556-565 (2012)
    (doi: 10.1002/wcms.93)

                         Additional Contributions by
    A. E. DePrince, U. Bozkaya, A. Yu. Sokolov, D. G. A. Smith, R. Di Remigio,
    R. M. Richard, J. F. Gonthier, H. R. McAlexander, M. Saitow, and
    B. P. Pritchard
    -----------------------------------------------------------------------


    Psi4 started on: Tue Feb 21 17:59:20 2017

    Process ID:  34346
    PSI4DATADIR: /Users/sternc1/anaconda/share/psi4
    Memory level set to 256.000 MB

  ==> Input File <==

--------------------------------------------------------------------------

memory 1000 mb

molecule butane {
  symmetry C1
  0 1 
  H      1.604   0.760   -8.260
  H      1.745   2.388   -8.880
  H      2.043   1.024   -9.930
  C      2.142   1.395   -8.932
  H      4.169   2.051   -9.210
  H      3.731   1.788   -7.539
  C      3.631   1.416   -8.537
  H      3.561   -0.681   -8.078
  H      4.266   -0.318   -9.635
  C      4.203   -0.012   -8.612
  H      6.005   -1.029   -8.035
  H      5.546   0.269   -6.960
  H      6.250   0.633   -8.516
  C      5.608   -0.037   -7.983
  units Angstrom
}

dih_string = "4 7 10 14 190"
set optking fixed_dihedral = $dih_string

optimize('B3LYP/cc-PVDZ')
--------------------------------------------------------------------------

  Memory set to 1000.000 MiB by Python script.
gradient() will perform analytic gradient computation.

*** tstart() called on lski1497
*** at Tue Feb 21 17:59:21 2017


         ---------------------------------------------------------
                                   SCF
            by Justin Turney, Rob Parrish, and Andy Simmonett
                              RKS Reference
                        1 Threads,   1000 MiB Core
         ---------------------------------------------------------

  ==> Geometry <==

    Molecular point group: c1
    Full point group: C1

    Geometry (in Angstrom), charge = 0, multiplicity = 1:

       Center              X                  Y                   Z               Mass       
    ------------   -----------------  -----------------  -----------------  -----------------
           H         -2.291305884715     0.069847057643     0.253969712791     1.007825032070
           H         -2.150305884715     1.697847057643    -0.366030287209     1.007825032070
           H         -1.852305884715     0.333847057643    -1.416030287209     1.007825032070
           C         -1.753305884715     0.704847057643    -0.418030287209    12.000000000000
           H          0.273694115285     1.360847057643    -0.696030287209     1.007825032070
           H         -0.164305884715     1.097847057643     0.974969712791     1.007825032070
           C         -0.264305884715     0.725847057643    -0.023030287209    12.000000000000
           H         -0.334305884715    -1.371152942357     0.435969712791     1.007825032070
           H          0.370694115285    -1.008152942357    -1.121030287209     1.007825032070
           C          0.307694115285    -0.702152942357    -0.098030287209    12.000000000000
           H          2.109694115285    -1.719152942357     0.478969712791     1.007825032070
           H          1.650694115285    -0.421152942357     1.553969712791     1.007825032070
           H          2.354694115285    -0.057152942357    -0.002030287209     1.007825032070
           C          1.712694115285    -0.727152942357     0.530969712791    12.000000000000

  Running in c1 symmetry.

  Rotational constants: A =      0.76231  B =      0.12483  C =      0.11677 [cm^-1]
  Rotational constants: A =  22853.36211  B =   3742.19549  C =   3500.58472 [MHz]
  Nuclear repulsion =  131.839877261071905

  Charge       = 0
  Multiplicity = 1
  Electrons    = 34
  Nalpha       = 17
  Nbeta        = 17

  ==> Algorithm <==

  SCF Algorithm Type is DF.
  DIIS enabled.
  MOM disabled.
  Fractional occupation disabled.
  Guess Type is SAD.
  Energy threshold   = 1.00e-08
  Density threshold  = 1.00e-08
  Integral threshold = 0.00e+00

  ==> Primary Basis <==

  Basis Set: CC-PVDZ
    Number of shells: 54
    Number of basis function: 106
    Number of Cartesian functions: 110
    Spherical Harmonics?: true
    Max angular momentum: 2

  ==> DFT Potential <==

   => B3LYP Composite Functional <= 

    B3LYP Hybrid-GGA Exchange-Correlation Functional (VWN1-RPA)

    P.J. Stephens et. al., J. Phys. Chem., 98, 11623-11627, 1994

    Points   =           5000
    Deriv    =              1
    GGA      =           TRUE
    Meta     =          FALSE

    X_LRC        =          FALSE
    X_Hybrid     =           TRUE
    X_Alpha      =   2.000000E-01
    X_Omega      =   0.000000E+00
    C_LRC        =          FALSE
    C_Hybrid     =          FALSE
    C_Alpha      =   0.000000E+00
    C_Omega      =   0.000000E+00

   => Exchange Functionals <=

    0.8000    B3_X
    0.2000      HF 

   => Correlation Functionals <=

    0.1900 VWN3RPA_C
    0.8100   LYP_C

   => Molecular Quadrature <=

    Radial Scheme    =       TREUTLER
    Pruning Scheme   =           FLAT
    Nuclear Scheme   =       TREUTLER

    BS radius alpha  =              1
    Pruning alpha    =              1
    Radial Points    =             75
    Spherical Points =            302
    Total Points     =         312720
    Total Blocks     =            274
    Max Points       =           4959
    Max Functions    =            106

  ==> Pre-Iterations <==

   -------------------------------------------------------
    Irrep   Nso     Nmo     Nalpha   Nbeta   Ndocc  Nsocc
   -------------------------------------------------------
     A        106     106       0       0       0       0
   -------------------------------------------------------
    Total     106     106      17      17      17       0
   -------------------------------------------------------

  ==> Integral Setup <==

  ==> DFJK: Density-Fitted J/K Matrices <==

    J tasked:                  Yes
    K tasked:                  Yes
    wK tasked:                  No
    OpenMP threads:              1
    Integrals threads:           1
    Memory (MB):               715
    Algorithm:                Core
    Integral Cache:           NONE
    Schwarz Cutoff:          1E-12
    Fitting Condition:       1E-12

   => Auxiliary Basis Set <=

  Basis Set: 
    Number of shells: 186
    Number of basis function: 510
    Number of Cartesian functions: 574
    Spherical Harmonics?: true
    Max angular momentum: 3

  Minimum eigenvalue in the overlap matrix is 3.7626442485E-03.
  Using Symmetric Orthogonalization.
  SCF Guess: Superposition of Atomic Densities via on-the-fly atomic UHF.

  ==> Iterations <==

                           Total Energy        Delta E     RMS |[F,P]|

   @DF-RKS iter   0:  -159.06530655050773   -1.59065e+02   3.40996e-02 
   @DF-RKS iter   1:  -158.31568061112793    7.49626e-01   4.51761e-03 
   @DF-RKS iter   2:  -158.28193449993344    3.37461e-02   5.18307e-03 DIIS
   @DF-RKS iter   3:  -158.44824764494501   -1.66313e-01   3.52533e-04 DIIS
   @DF-RKS iter   4:  -158.44890951550758   -6.61871e-04   1.29419e-04 DIIS
   @DF-RKS iter   5:  -158.44899475109051   -8.52356e-05   4.27650e-05 DIIS
   @DF-RKS iter   6:  -158.44900489388476   -1.01428e-05   3.41689e-06 DIIS
   @DF-RKS iter   7:  -158.44900496211667   -6.82319e-08   6.27420e-07 DIIS
   @DF-RKS iter   8:  -158.44900496459061   -2.47394e-09   9.51048e-08 DIIS
   @DF-RKS iter   9:  -158.44900496464746   -5.68434e-11   2.77125e-08 DIIS
   @DF-RKS iter  10:  -158.44900496465246   -5.00222e-12   5.99436e-09 DIIS

  ==> Post-Iterations <==

    Orbital Energies (a.u.)
    -----------------------

    Doubly Occupied:                                                      

       1A    -10.170254     2A    -10.170059     3A    -10.163804  
       4A    -10.163696     5A     -0.794346     6A     -0.723791  
       7A     -0.629662     8A     -0.580023     9A     -0.473867  
      10A     -0.426581    11A     -0.417502    12A     -0.410266  
      13A     -0.367180    14A     -0.355137    15A     -0.331786  
      16A     -0.330418    17A     -0.310054  

    Virtual:                                                              

      18A      0.063749    19A      0.086191    20A      0.101943  
      21A      0.108103    22A      0.142187    23A      0.151632  
      24A      0.155014    25A      0.163979    26A      0.172966  
      27A      0.177669    28A      0.228922    29A      0.230576  
      30A      0.241330    31A      0.405909    32A      0.412531  
      33A      0.417046    34A      0.434203    35A      0.452088  
      36A      0.500268    37A      0.508407    38A      0.587250  
      39A      0.610201    40A      0.651622    41A      0.665039  
      42A      0.665933    43A      0.673252    44A      0.681587  
      45A      0.682771    46A      0.687701    47A      0.696371  
      48A      0.708782    49A      0.722190    50A      0.735017  
      51A      0.753064    52A      0.758424    53A      0.889817  
      54A      0.908524    55A      0.970287    56A      1.094418  
      57A      1.205196    58A      1.219042    59A      1.234440  
      60A      1.255441    61A      1.314603    62A      1.336072  
      63A      1.437411    64A      1.438263    65A      1.474391  
      66A      1.493633    67A      1.568426    68A      1.620672  
      69A      1.623208    70A      1.632942    71A      1.644109  
      72A      1.661718    73A      1.678807    74A      1.686156  
      75A      1.711994    76A      1.722315    77A      1.731112  
      78A      1.732697    79A      1.753244    80A      1.764988  
      81A      1.778716    82A      1.782628    83A      1.886725  
      84A      1.962603    85A      1.972749    86A      1.973143  
      87A      1.992088    88A      2.100588    89A      2.101424  
      90A      2.196527    91A      2.245585    92A      2.249763  
      93A      2.280217    94A      2.351306    95A      2.352355  
      96A      2.369406    97A      2.479841    98A      2.497787  
      99A      2.511034   100A      2.511629   101A      2.557122  
     102A      2.577224   103A      2.627422   104A      2.661186  
     105A      2.748643   106A      2.752683  

    Final Occupation by Irrep:
              A 
    DOCC [    17 ]

  Energy converged.

  @DF-RKS Final Energy:  -158.44900496465246

   => Energetics <=

    Nuclear Repulsion Energy =            131.8398772610719050
    One-Electron Energy =                -472.0764425027808784
    Two-Electron Energy =                 202.4664087138048956
    DFT Exchange-Correlation Energy =     -20.6788484367483996
    Empirical Dispersion Energy =           0.0000000000000000
    PCM Polarization Energy =               0.0000000000000000
    EFP Energy =                            0.0000000000000000
    Total Energy =                       -158.4490049646524596


  Saving occupied orbitals to File 180.

*** tstop() called on lski1497 at Tue Feb 21 18:01:26 2017
Module time:
	user time   =     105.49 seconds =       1.76 minutes
	system time =       1.29 seconds =       0.02 minutes
	total time  =        125 seconds =       2.08 minutes
Total time:
	user time   =     105.49 seconds =       1.76 minutes
	system time =       1.29 seconds =       0.02 minutes
	total time  =        125 seconds =       2.08 minutes


Properties will be evaluated at   0.000000,   0.000000,   0.000000 Bohr

Properties computed using the SCF density matrix

  Nuclear Dipole Moment: (a.u.)
     X:    -0.0310      Y:    -0.0155      Z:     0.0907

  Electronic Dipole Moment: (a.u.)
     X:     0.0336      Y:     0.0166      Z:    -0.0980

  Dipole Moment: (a.u.)
     X:     0.0026      Y:     0.0011      Z:    -0.0074     Total:     0.0079

  Dipole Moment: (Debye)
     X:     0.0067      Y:     0.0029      Z:    -0.0187     Total:     0.0201


*** tstart() called on lski1497
*** at Tue Feb 21 18:01:26 2017


         ------------------------------------------------------------
                                   SCF GRAD                          
                          Rob Parrish, Justin Turney,                
                       Andy Simmonett, and Alex Sokolov              
         ------------------------------------------------------------

  ==> Geometry <==

    Molecular point group: c1
    Full point group: C1

    Geometry (in Angstrom), charge = 0, multiplicity = 1:

       Center              X                  Y                   Z               Mass       
    ------------   -----------------  -----------------  -----------------  -----------------
           H         -2.291305884715     0.069847057643     0.253969712791     1.007825032070
           H         -2.150305884715     1.697847057643    -0.366030287209     1.007825032070
           H         -1.852305884715     0.333847057643    -1.416030287209     1.007825032070
           C         -1.753305884715     0.704847057643    -0.418030287209    12.000000000000
           H          0.273694115285     1.360847057643    -0.696030287209     1.007825032070
           H         -0.164305884715     1.097847057643     0.974969712791     1.007825032070
           C         -0.264305884715     0.725847057643    -0.023030287209    12.000000000000
           H         -0.334305884715    -1.371152942357     0.435969712791     1.007825032070
           H          0.370694115285    -1.008152942357    -1.121030287209     1.007825032070
           C          0.307694115285    -0.702152942357    -0.098030287209    12.000000000000
           H          2.109694115285    -1.719152942357     0.478969712791     1.007825032070
           H          1.650694115285    -0.421152942357     1.553969712791     1.007825032070
           H          2.354694115285    -0.057152942357    -0.002030287209     1.007825032070
           C          1.712694115285    -0.727152942357     0.530969712791    12.000000000000

  Nuclear repulsion =  131.839877261071905

  ==> Basis Set <==

  Basis Set: CC-PVDZ
    Number of shells: 54
    Number of basis function: 106
    Number of Cartesian functions: 110
    Spherical Harmonics?: true
    Max angular momentum: 2

  ==> DFJKGrad: Density-Fitted SCF Gradients <==

    Gradient:                    1
    J tasked:                  Yes
    K tasked:                  Yes
    wK tasked:                  No
    OpenMP threads:              1
    Integrals threads:           1
    Memory (MB):               715
    Schwarz Cutoff:          0E+00
    Fitting Condition:       1E-12

   => Auxiliary Basis Set <=

  Basis Set: 
    Number of shells: 186
    Number of basis function: 510
    Number of Cartesian functions: 574
    Spherical Harmonics?: true
    Max angular momentum: 3

  ==> DFT Potential <==

   => B3LYP Composite Functional <= 

    B3LYP Hybrid-GGA Exchange-Correlation Functional (VWN1-RPA)

    P.J. Stephens et. al., J. Phys. Chem., 98, 11623-11627, 1994

    Points   =           5000
    Deriv    =              1
    GGA      =           TRUE
    Meta     =          FALSE

    X_LRC        =          FALSE
    X_Hybrid     =           TRUE
    X_Alpha      =   2.000000E-01
    X_Omega      =   0.000000E+00
    C_LRC        =          FALSE
    C_Hybrid     =          FALSE
    C_Alpha      =   0.000000E+00
    C_Omega      =   0.000000E+00

   => Exchange Functionals <=

    0.8000    B3_X
    0.2000      HF 

   => Correlation Functionals <=

    0.1900 VWN3RPA_C
    0.8100   LYP_C

   => Molecular Quadrature <=

    Radial Scheme    =       TREUTLER
    Pruning Scheme   =           FLAT
    Nuclear Scheme   =       TREUTLER

    BS radius alpha  =              1
    Pruning alpha    =              1
    Radial Points    =             75
    Spherical Points =            302
    Total Points     =         312720
    Total Blocks     =            274
    Max Points       =           4959
    Max Functions    =            106


  -Total Gradient:
     Atom            X                  Y                   Z
    ------   -----------------  -----------------  -----------------
       1        0.014168425320     0.012770578711    -0.012548050919
       2        0.012651738041    -0.018829200213     0.000485067283
       3        0.005553559188     0.007813847676     0.021230276076
       4       -0.029509684211    -0.008685188840    -0.008642275746
       5       -0.013235058242    -0.015445655531     0.011577590044
       6       -0.003805926146    -0.009927134363    -0.021085805910
       7        0.025629812049     0.034028569688     0.013455093118
       8        0.014591896429     0.015813052981    -0.009398747475
       9        0.001583883654     0.009115536621     0.022047228587
      10       -0.023732496120    -0.033236811057    -0.017830295734
      11       -0.012745290657     0.019559959214    -0.000971229862
      12       -0.001919265797    -0.006066488142    -0.022059216543
      13       -0.016039768800    -0.013290897339     0.009071266191
      14        0.026811607747     0.006381770510     0.014658941195


*** tstop() called on lski1497 at Tue Feb 21 18:02:10 2017
Module time:
	user time   =      38.09 seconds =       0.63 minutes
	system time =       0.59 seconds =       0.01 minutes
	total time  =         44 seconds =       0.73 minutes
Total time:
	user time   =     143.60 seconds =       2.39 minutes
	system time =       1.88 seconds =       0.03 minutes
	total time  =        169 seconds =       2.82 minutes

			-----------------------------------------
			 OPTKING 2.0: for geometry optimizations 
			  - R.A. King,  Bethel University        
			-----------------------------------------

	Internal coordinates to be generated automatically.
	Detected frag 1 with atoms:  1 2 3 4 5 6 7 8 9 10 11 12 13 14
	---Fragment 1 Bond Connectivity---
	 1 : 4
	 2 : 4
	 3 : 4
	 4 : 1 2 3 7
	 5 : 7
	 6 : 7
	 7 : 4 5 6 10
	 8 : 10
	 9 : 10
	 10 : 7 8 9 14
	 11 : 14
	 12 : 14
	 13 : 14
	 14 : 10 11 12 13

	Assuming in current code that numbering for constraints corresponds to unified fragment.
	Fixed dihedral atom list: 
	     4     7    10    14
	---Fragment 1 Geometry and Gradient---
	 H          -4.3299406088        0.1319918101        0.4799332032
	 H          -4.0634892240        3.2084659545       -0.6916969992
	 H          -3.5003508364        0.6308795092       -2.6759094387
	 C          -3.3132679493        1.3319679045       -0.7899627581
	 H           0.5172069221        2.5716282477       -1.3153066230
	 H          -0.3104931241        2.0746302747        1.8424257450
	 C          -0.4994657374        1.3716521533       -0.0435209356
	 H          -0.6317465667       -2.5911035474        0.8238633594
	 H           0.7005103570       -1.9051329611       -2.1184402295
	 C           0.5814576106       -1.3268767645       -0.1852503956
	 H           3.9867441020       -3.2487282416        0.9051215831
	 H           3.1193598071       -0.7958637211        2.9365771760
	 H           4.4497270046       -0.1080034087       -0.0038366868
	 C           3.2365228273       -1.3741199178        1.0033873420
	             0.0141684253        0.0127705787       -0.0125480509
	             0.0126517380       -0.0188292002        0.0004850673
	             0.0055535592        0.0078138477        0.0212302761
	            -0.0295096842       -0.0086851888       -0.0086422757
	            -0.0132350582       -0.0154456555        0.0115775900
	            -0.0038059261       -0.0099271344       -0.0210858059
	             0.0256298120        0.0340285697        0.0134550931
	             0.0145918964        0.0158130530       -0.0093987475
	             0.0015838837        0.0091155366        0.0220472286
	            -0.0237324961       -0.0332368111       -0.0178302957
	            -0.0127452907        0.0195599592       -0.0009712299
	            -0.0019192658       -0.0060664881       -0.0220592165
	            -0.0160397688       -0.0132908973        0.0090712662
	             0.0268116077        0.0063817705        0.0146589412

	Previous optimization step data not found.  Starting new optimization.

	---Fragment 1 Intrafragment Coordinates---
	 - Coordinate -           - BOHR/RAD -       - ANG/DEG -
	 R(1,4)           =         2.021436	       1.069698
	 R(2,4)           =         2.023298	       1.070683
	 R(3,4)           =         2.020723	       1.069320
	 R(4,7)           =         2.911397	       1.540645
	 R(5,7)           =         2.022623	       1.070326
	 R(6,7)           =         2.021555	       1.069761
	 R(7,10)          =         2.910419	       1.540128
	 R(8,10)          =         2.021990	       1.069991
	 R(9,10)          =         2.021330	       1.069642
	 R(10,14)         =         2.909375	       1.539575
	 R(11,14)         =         2.021545	       1.069756
	 R(12,14)         =         2.021220	       1.069584
	 R(13,14)         =         2.022230	       1.070118
	 B(1,4,2)         =         1.910870	     109.484805
	 B(1,4,3)         =         1.911121	     109.499161
	 B(1,4,7)         =         1.910399	     109.457783
	 B(2,4,3)         =         1.910042	     109.437340
	 B(2,4,7)         =         1.910564	     109.467262
	 B(3,4,7)         =         1.910803	     109.480971
	 B(4,7,5)         =         1.909937	     109.431343
	 B(4,7,6)         =         1.911630	     109.528316
	 B(4,7,10)        =         1.911154	     109.501062
	 B(5,7,6)         =         1.910605	     109.469614
	 B(5,7,10)        =         1.910047	     109.437654
	 B(6,7,10)        =         1.910425	     109.459295
	 B(7,10,8)        =         1.909829	     109.425144
	 B(7,10,9)        =         1.911020	     109.493379
	 B(7,10,14)       =         1.911440	     109.517473
	 B(8,10,9)        =         1.911107	     109.498384
	 B(8,10,14)       =         1.910819	     109.481864
	 B(9,10,14)       =         1.909584	     109.411105
	 B(10,14,11)      =         1.911205	     109.503967
	 B(10,14,12)      =         1.910508	     109.464048
	 B(10,14,13)      =         1.911166	     109.501738
	 B(11,14,12)      =         1.910600	     109.469327
	 B(11,14,13)      =         1.911061	     109.495732
	 B(12,14,13)      =         1.909258	     109.392450
	 D(1,4,7,5)       =         3.140997	     179.965873
	 D(1,4,7,6)       =        -1.047644	     -60.025575
	 D(1,4,7,10)      =         1.047427	      60.013132
	 D(2,4,7,5)       =        -1.047689	     -60.028143
	 D(2,4,7,6)       =         1.046856	      59.980409
	 D(2,4,7,10)      =        -3.141259	    -179.980883
	 D(3,4,7,5)       =         1.046044	      59.933911
	 D(3,4,7,6)       =         3.140588	     179.942463
	 D(3,4,7,10)      =        -1.047526	     -60.018830
	 D(4,7,10,8)      =        -0.872580	     -49.995150
	 D(4,7,10,9)      =         1.222140	      70.023458
	 D(4,7,10,14)     =        -2.967204	    -170.008269
	 D(5,7,10,8)      =        -2.966083	    -169.944026
	 D(5,7,10,9)      =        -0.871363	     -49.925418
	 D(5,7,10,14)     =         1.222478	      70.042855
	 D(6,7,10,8)      =         1.223228	      70.085776
	 D(6,7,10,9)      =        -2.965238	    -169.895617
	 D(6,7,10,14)     =        -0.871397	     -49.927344
	 D(7,10,14,11)    =         3.141361	     179.986752
	 D(7,10,14,12)    =         1.046733	      59.973408
	 D(7,10,14,13)    =        -1.046227	     -59.944412
	 D(8,10,14,11)    =         1.047343	      60.008338
	 D(8,10,14,12)    =        -1.047285	     -60.005006
	 D(8,10,14,13)    =        -3.140246	    -179.922826
	 D(9,10,14,11)    =        -1.047104	     -59.994632
	 D(9,10,14,12)    =         3.141453	     179.992024
	 D(9,10,14,13)    =         1.048493	      60.074204

	Current energy   :      -158.4490049647

	Generating empirical Hessian (Schlegel '84) for each fragment.
	Adding user-defined constraint: Fragment 1; Coordinate 49:
		Value =    -2.967204; Fixed value    =    -2.967060
		Force =     0.000072; Force constant =     0.500000
	Removing off-diagonal coupling between coordinate 49 and others.
	Taking RFO optimization step.
	Going to follow RFO solution 1.
	Using RFO vector 1.

	Determining step-restricting scale parameter for RS-RFO.
	Maximum step size allowed    0.10000

	 Iter      |step|        alpha        rfo_root  
	------------------------------------------------
	    0     0.25162       1.00000           1
	    1     0.18597       6.65959           1
	    2     0.13863      20.81413           1
	    3     0.11217      40.23079           1
	    4     0.10184      52.94178           1
	    5     0.10005      55.59746           1
	    6     0.10000      55.67917           1
	------------------------------------------------
	Norm of target step-size    0.10000
	Projected energy change by RFO approximation:        -0.0077935902

	Back-transformation to cartesian coordinates...
	Could not converge backtransformation.
	Using first guess instead.

	--- Internal Coordinate Step in ANG or DEG, aJ/ANG or AJ/DEG ---
	 ---------------------------------------------------------------------------
	   Coordinate                Previous        Force       Change         New 
	   ----------                --------       ------       ------       ------
	    1 R(1,4)          =      1.069698     0.186106     0.015038     1.084736
	    2 R(2,4)          =      1.070683     0.182327     0.014722     1.085405
	    3 R(3,4)          =      1.069320     0.189822     0.015319     1.084639
	    4 R(4,7)          =      1.540645     0.023137     0.002128     1.542773
	    5 R(5,7)          =      1.070326     0.190286     0.015348     1.085674
	    6 R(6,7)          =      1.069761     0.193433     0.015590     1.085351
	    7 R(7,10)         =      1.540128     0.020061     0.001920     1.542048
	    8 R(8,10)         =      1.069991     0.192227     0.015499     1.085490
	    9 R(9,10)         =      1.069642     0.194442     0.015666     1.085308
	   10 R(10,14)        =      1.539575     0.027793     0.002546     1.542121
	   11 R(11,14)        =      1.069756     0.188014     0.015159     1.084915
	   12 R(12,14)        =      1.069584     0.187202     0.015124     1.084707
	   13 R(13,14)        =      1.070118     0.185067     0.014954     1.085072
	   14 B(1,4,2)        =    109.484805    -0.000318    -0.402813   109.081991
	   15 B(1,4,3)        =    109.499161    -0.000262    -0.345175   109.153986
	   16 B(1,4,7)        =    109.457783     0.000220     0.274763   109.732546
	   17 B(2,4,3)        =    109.437340    -0.000324    -0.408788   109.028552
	   18 B(2,4,7)        =    109.467262     0.000450     0.580051   110.047314
	   19 B(3,4,7)        =    109.480971     0.000235     0.294018   109.774989
	   20 B(4,7,5)        =    109.431343    -0.000199    -0.205457   109.225885
	   21 B(4,7,6)        =    109.528316    -0.000196    -0.212799   109.315518
	   22 B(4,7,10)       =    109.501062     0.000862     1.033264   110.534326
	   23 B(5,7,6)        =    109.469614     0.000008    -0.076123   109.393491
	   24 B(5,7,10)       =    109.437654    -0.000238    -0.270826   109.166828
	   25 B(6,7,10)       =    109.459295    -0.000238    -0.271885   109.187410
	   26 B(7,10,8)       =    109.425144    -0.000234    -0.267023   109.158121
	   27 B(7,10,9)       =    109.493379    -0.000244    -0.280091   109.213288
	   28 B(7,10,14)      =    109.517473     0.000858     1.028872   110.546345
	   29 B(8,10,9)       =    109.498384     0.000005    -0.080374   109.418010
	   30 B(8,10,14)      =    109.481864    -0.000192    -0.207723   109.274140
	   31 B(9,10,14)      =    109.411105    -0.000193    -0.197166   109.213939
	   32 B(10,14,11)     =    109.503967     0.000448     0.577415   110.081382
	   33 B(10,14,12)     =    109.464048     0.000218     0.273846   109.737895
	   34 B(10,14,13)     =    109.501738     0.000233     0.292139   109.793877
	   35 B(11,14,12)     =    109.469327    -0.000317    -0.400551   109.068776
	   36 B(11,14,13)     =    109.495732    -0.000328    -0.415914   109.079818
	   37 B(12,14,13)     =    109.392450    -0.000256    -0.335970   109.056479
	   38 D(1,4,7,5)      =    179.965873     0.000023     0.147258   180.113131
	   39 D(1,4,7,6)      =    -60.025575    -0.000030    -0.199648   -60.225223
	   40 D(1,4,7,10)     =     60.013132    -0.000003    -0.027936    59.985197
	   41 D(2,4,7,5)      =    -60.028143     0.000027     0.181365   -59.846777
	   42 D(2,4,7,6)      =     59.980409    -0.000026    -0.165541    59.814868
	   43 D(2,4,7,10)     =   -179.980883     0.000001     0.006172  -179.974711
	   44 D(3,4,7,5)      =     59.933911     0.000033     0.220117    60.154027
	   45 D(3,4,7,6)      =    179.942463    -0.000021    -0.126790   179.815673
	   46 D(3,4,7,10)     =    -60.018830     0.000006     0.044923   -59.973907
	   47 D(4,7,10,8)     =    -49.995150     0.000026     0.169662   -49.825488
	   48 D(4,7,10,9)     =     70.023458    -0.000040    -0.259372    69.764086
	   49 D(4,7,10,14)    =   -170.008269    -0.000008    -0.042064  -170.050334
	   50 D(5,7,10,8)     =   -169.944026    -0.000006    -0.044802  -169.988828
	   51 D(5,7,10,9)     =    -49.925418    -0.000072    -0.473836   -50.399254
	   52 D(5,7,10,14)    =     70.042855    -0.000039    -0.256529    69.786326
	   53 D(6,7,10,8)     =     70.085776     0.000058     0.375879    70.461654
	   54 D(6,7,10,9)     =   -169.895617    -0.000007    -0.053155  -169.948772
	   55 D(6,7,10,14)    =    -49.927344     0.000025     0.164152   -49.763191
	   56 D(7,10,14,11)   =    179.986752     0.000002     0.014347   180.001099
	   57 D(7,10,14,12)   =     59.973408    -0.000002    -0.020765    59.952644
	   58 D(7,10,14,13)   =    -59.944412     0.000006     0.042909   -59.901503
	   59 D(8,10,14,11)   =     60.008338    -0.000025    -0.162576    59.845762
	   60 D(8,10,14,12)   =    -60.005006    -0.000030    -0.197688   -60.202694
	   61 D(8,10,14,13)   =   -179.922826    -0.000022    -0.134014  -180.056840
	   62 D(9,10,14,11)   =    -59.994632     0.000027     0.180921   -59.813711
	   63 D(9,10,14,12)   =    179.992024     0.000023     0.145810   180.137834
	   64 D(9,10,14,13)   =     60.074204     0.000031     0.209483    60.283687
	 ---------------------------------------------------------------------------
	 Forces used to impose fixed constraints are not included.
	  Forces zeroed: 49 

  ==> Convergence Check <==

  Measures of convergence in internal coordinates in au.
  Criteria marked as inactive (o), active & met (*), and active & unmet ( ).
  --------------------------------------------------------------------------------------------- ~
   Step     Total Energy     Delta E     MAX Force     RMS Force      MAX Disp      RMS Disp    ~
  --------------------------------------------------------------------------------------------- ~
    Convergence Criteria    1.00e-06 *    3.00e-04 *             o    1.20e-03 *             o  ~
  --------------------------------------------------------------------------------------------- ~
      1    -158.44900496   -1.58e+02      2.36e-02      9.58e-03 o    2.96e-02      1.25e-02 o  ~
  ---------------------------------------------------------------------------------------------

	Writing optimization data to binary file.
	Structure for next step:
	Cartesian Geometry (in Angstrom)
	    H    -2.3178328447   0.0723348949   0.2572748553
	    H    -2.1697099547   1.7180778685  -0.3705515437
	    H    -1.8727403171   0.3376880377  -1.4328863442
	    C    -1.7639973682   0.7126108673  -0.4209325548
	    H     0.2731389321   1.3679952739  -0.7081324193
	    H    -0.1722461212   1.1028896491   0.9861429680
	    C    -0.2727181300   0.7236514278  -0.0258204357
	    H    -0.3344298431  -1.3804913125   0.4470733159
	    H     0.3790034090  -1.0108895425  -1.1321416879
	    C     0.3155214549  -0.7001495832  -0.0942087246
	    H     2.1304772438  -1.7390830000   0.4808063506
	    H     1.6699472623  -0.4275651811   1.5718617415
	    H     2.3813511808  -0.0576492429  -0.0028164612
	    C     1.7239527100  -0.7345613499   0.5329069192
			--------------------------
			 OPTKING Finished Execution 
			--------------------------

    Structure for next step:
    Molecular point group: c1
    Full point group: C1

    Geometry (in Angstrom), charge = 0, multiplicity = 1:

    H           -2.317829476782     0.072304019866     0.257262297049
    H           -2.169706586784     1.718046993497    -0.370564101934
    H           -1.872736949176     0.337657162686    -1.432898902525
    C           -1.763994000353     0.712579992217    -0.420945113118
    H            0.273142299998     1.367964398820    -0.708144977535
    H           -0.172242753290     1.102858774053     0.986130409758
    C           -0.272714762102     0.723620552719    -0.025832993970
    H           -0.334426475226    -1.380522187542     0.447060757609
    H            0.379006776869    -1.010920417515    -1.132154246222
    C            0.315524822753    -0.700180458274    -0.094221282924
    H            2.130480611683    -1.739113875070     0.480793792355
    H            1.669950630214    -0.427596056170     1.571849183194
    H            2.381354548660    -0.057680117956    -0.002829019496
    C            1.723956077835    -0.734592224905     0.532894360972

gradient() will perform analytic gradient computation.

*** tstart() called on lski1497
*** at Tue Feb 21 18:02:10 2017


         ---------------------------------------------------------
                                   SCF
            by Justin Turney, Rob Parrish, and Andy Simmonett
                              RKS Reference
                        1 Threads,   1000 MiB Core
         ---------------------------------------------------------

  ==> Geometry <==

    Molecular point group: c1
    Full point group: C1

    Geometry (in Angstrom), charge = 0, multiplicity = 1:

       Center              X                  Y                   Z               Mass       
    ------------   -----------------  -----------------  -----------------  -----------------
           H         -2.317829476782     0.072304019866     0.257262297049     1.007825032070
           H         -2.169706586784     1.718046993497    -0.370564101934     1.007825032070
           H         -1.872736949176     0.337657162686    -1.432898902525     1.007825032070
           C         -1.763994000353     0.712579992217    -0.420945113118    12.000000000000
           H          0.273142299998     1.367964398820    -0.708144977535     1.007825032070
           H         -0.172242753290     1.102858774053     0.986130409758     1.007825032070
           C         -0.272714762102     0.723620552719    -0.025832993970    12.000000000000
           H         -0.334426475226    -1.380522187542     0.447060757609     1.007825032070
           H          0.379006776869    -1.010920417515    -1.132154246222     1.007825032070
           C          0.315524822753    -0.700180458274    -0.094221282924    12.000000000000
           H          2.130480611683    -1.739113875070     0.480793792355     1.007825032070
           H          1.669950630214    -0.427596056170     1.571849183194     1.007825032070
           H          2.381354548660    -0.057680117956    -0.002829019496     1.007825032070
           C          1.723956077835    -0.734592224905     0.532894360972    12.000000000000

  Running in c1 symmetry.

  Rotational constants: A =      0.75880  B =      0.12275  C =      0.11511 [cm^-1]
  Rotational constants: A =  22748.27689  B =   3679.80515  C =   3450.92592 [MHz]
  Nuclear repulsion =  130.848718643062341

  Charge       = 0
  Multiplicity = 1
  Electrons    = 34
  Nalpha       = 17
  Nbeta        = 17

  ==> Algorithm <==

  SCF Algorithm Type is DF.
  DIIS enabled.
  MOM disabled.
  Fractional occupation disabled.
  Guess Type is READ.
  Energy threshold   = 1.00e-08
  Density threshold  = 1.00e-08
  Integral threshold = 0.00e+00

  ==> Primary Basis <==

  Basis Set: CC-PVDZ
    Number of shells: 54
    Number of basis function: 106
    Number of Cartesian functions: 110
    Spherical Harmonics?: true
    Max angular momentum: 2

  ==> DFT Potential <==

   => B3LYP Composite Functional <= 

    B3LYP Hybrid-GGA Exchange-Correlation Functional (VWN1-RPA)

    P.J. Stephens et. al., J. Phys. Chem., 98, 11623-11627, 1994

    Points   =           5000
    Deriv    =              1
    GGA      =           TRUE
    Meta     =          FALSE

    X_LRC        =          FALSE
    X_Hybrid     =           TRUE
    X_Alpha      =   2.000000E-01
    X_Omega      =   0.000000E+00
    C_LRC        =          FALSE
    C_Hybrid     =          FALSE
    C_Alpha      =   0.000000E+00
    C_Omega      =   0.000000E+00

   => Exchange Functionals <=

    0.8000    B3_X
    0.2000      HF 

   => Correlation Functionals <=

    0.1900 VWN3RPA_C
    0.8100   LYP_C

   => Molecular Quadrature <=

    Radial Scheme    =       TREUTLER
    Pruning Scheme   =           FLAT
    Nuclear Scheme   =       TREUTLER

    BS radius alpha  =              1
    Pruning alpha    =              1
    Radial Points    =             75
    Spherical Points =            302
    Total Points     =         312746
    Total Blocks     =            273
    Max Points       =           4937
    Max Functions    =            106

  ==> Pre-Iterations <==

   -------------------------------------------------------
    Irrep   Nso     Nmo     Nalpha   Nbeta   Ndocc  Nsocc
   -------------------------------------------------------
     A        106     106       0       0       0       0
   -------------------------------------------------------
    Total     106     106      17      17      17       0
   -------------------------------------------------------

  ==> Integral Setup <==

  ==> DFJK: Density-Fitted J/K Matrices <==

    J tasked:                  Yes
    K tasked:                  Yes
    wK tasked:                  No
    OpenMP threads:              1
    Integrals threads:           1
    Memory (MB):               715
    Algorithm:                Core
    Integral Cache:           NONE
    Schwarz Cutoff:          1E-12
    Fitting Condition:       1E-12

   => Auxiliary Basis Set <=

  Basis Set: 
    Number of shells: 186
    Number of basis function: 510
    Number of Cartesian functions: 574
    Spherical Harmonics?: true
    Max angular momentum: 3

  Minimum eigenvalue in the overlap matrix is 3.8362327644E-03.
  Using Symmetric Orthogonalization.
  SCF Guess was Projection but file not found.
  Switching over to SAD guess.

  SCF Guess: Superposition of Atomic Densities via on-the-fly atomic UHF.

  ==> Iterations <==

                           Total Energy        Delta E     RMS |[F,P]|

   @DF-RKS iter   0:  -158.99702647433992   -1.58997e+02   3.32918e-02 
   @DF-RKS iter   1:  -158.32733510960503    6.69691e-01   4.40155e-03 
   @DF-RKS iter   2:  -158.29042885529719    3.69063e-02   5.12252e-03 DIIS
   @DF-RKS iter   3:  -158.45410854842197   -1.63680e-01   3.47372e-04 DIIS
   @DF-RKS iter   4:  -158.45476085188798   -6.52303e-04   1.26323e-04 DIIS
   @DF-RKS iter   5:  -158.45484167063213   -8.08187e-05   4.37802e-05 DIIS
   @DF-RKS iter   6:  -158.45485234847624   -1.06778e-05   3.46214e-06 DIIS
   @DF-RKS iter   7:  -158.45485241899854   -7.05223e-08   6.21261e-07 DIIS
   @DF-RKS iter   8:  -158.45485242144662   -2.44808e-09   9.63304e-08 DIIS
   @DF-RKS iter   9:  -158.45485242150608   -5.94582e-11   2.71659e-08 DIIS
   @DF-RKS iter  10:  -158.45485242151057   -4.49063e-12   4.84995e-09 DIIS

  ==> Post-Iterations <==

    Orbital Energies (a.u.)
    -----------------------

    Doubly Occupied:                                                      

       1A    -10.174945     2A    -10.174775     3A    -10.169377  
       4A    -10.169312     5A     -0.791429     6A     -0.721054  
       7A     -0.627354     8A     -0.575465     9A     -0.470613  
      10A     -0.423727    11A     -0.415653    12A     -0.408791  
      13A     -0.365430    14A     -0.352978    15A     -0.328903  
      16A     -0.328264    17A     -0.313618  

    Virtual:                                                              

      18A      0.061960    19A      0.083646    20A      0.099138  
      21A      0.105760    22A      0.139610    23A      0.147604  
      24A      0.152840    25A      0.159337    26A      0.168278  
      27A      0.173741    28A      0.226016    29A      0.229818  
      30A      0.241508    31A      0.406064    32A      0.409453  
      33A      0.413865    34A      0.430127    35A      0.450065  
      36A      0.503115    37A      0.507592    38A      0.582196  
      39A      0.606041    40A      0.643526    41A      0.655993  
      42A      0.658968    43A      0.665352    44A      0.672940  
      45A      0.675059    46A      0.677677    47A      0.689401  
      48A      0.707389    49A      0.711847    50A      0.730047  
      51A      0.747538    52A      0.747662    53A      0.890763  
      54A      0.902923    55A      0.966818    56A      1.087616  
      57A      1.202109    58A      1.215037    59A      1.229983  
      60A      1.250554    61A      1.302760    62A      1.331785  
      63A      1.428357    64A      1.428983    65A      1.462920  
      66A      1.494223    67A      1.566442    68A      1.608563  
      69A      1.612687    70A      1.622592    71A      1.634714  
      72A      1.652968    73A      1.663320    74A      1.670888  
      75A      1.699353    76A      1.710567    77A      1.716404  
      78A      1.719442    79A      1.737997    80A      1.758344  
      81A      1.766110    82A      1.772469    83A      1.885153  
      84A      1.937191    85A      1.954642    86A      1.966775  
      87A      1.982886    88A      2.090679    89A      2.092541  
      90A      2.171193    91A      2.219737    92A      2.229755  
      93A      2.254040    94A      2.318224    95A      2.326965  
      96A      2.342263    97A      2.450779    98A      2.459721  
      99A      2.467207   100A      2.473031   101A      2.528668  
     102A      2.538103   103A      2.606549   104A      2.628797  
     105A      2.719854   106A      2.722999  

    Final Occupation by Irrep:
              A 
    DOCC [    17 ]

  Energy converged.

  @DF-RKS Final Energy:  -158.45485242151057

   => Energetics <=

    Nuclear Repulsion Energy =            130.8487186430623410
    One-Electron Energy =                -470.1524091229059081
    Two-Electron Energy =                 201.4799815936960954
    DFT Exchange-Correlation Energy =     -20.6311435353630905
    Empirical Dispersion Energy =           0.0000000000000000
    PCM Polarization Energy =               0.0000000000000000
    EFP Energy =                            0.0000000000000000
    Total Energy =                       -158.4548524215105658


  Saving occupied orbitals to File 180.

*** tstop() called on lski1497 at Tue Feb 21 18:04:12 2017
Module time:
	user time   =     106.57 seconds =       1.78 minutes
	system time =       1.32 seconds =       0.02 minutes
	total time  =        122 seconds =       2.03 minutes
Total time:
	user time   =     250.81 seconds =       4.18 minutes
	system time =       3.23 seconds =       0.05 minutes
	total time  =        291 seconds =       4.85 minutes


Properties will be evaluated at   0.000000,   0.000000,   0.000000 Bohr

Properties computed using the SCF density matrix

  Nuclear Dipole Moment: (a.u.)
     X:    -0.0309      Y:    -0.0159      Z:     0.0905

  Electronic Dipole Moment: (a.u.)
     X:     0.0333      Y:     0.0172      Z:    -0.0973

  Dipole Moment: (a.u.)
     X:     0.0024      Y:     0.0012      Z:    -0.0068     Total:     0.0073

  Dipole Moment: (Debye)
     X:     0.0061      Y:     0.0031      Z:    -0.0173     Total:     0.0186


*** tstart() called on lski1497
*** at Tue Feb 21 18:04:12 2017


         ------------------------------------------------------------
                                   SCF GRAD                          
                          Rob Parrish, Justin Turney,                
                       Andy Simmonett, and Alex Sokolov              
         ------------------------------------------------------------

  ==> Geometry <==

    Molecular point group: c1
    Full point group: C1

    Geometry (in Angstrom), charge = 0, multiplicity = 1:

       Center              X                  Y                   Z               Mass       
    ------------   -----------------  -----------------  -----------------  -----------------
           H         -2.317829476782     0.072304019866     0.257262297049     1.007825032070
           H         -2.169706586784     1.718046993497    -0.370564101934     1.007825032070
           H         -1.872736949176     0.337657162686    -1.432898902525     1.007825032070
           C         -1.763994000353     0.712579992217    -0.420945113118    12.000000000000
           H          0.273142299998     1.367964398820    -0.708144977535     1.007825032070
           H         -0.172242753290     1.102858774053     0.986130409758     1.007825032070
           C         -0.272714762102     0.723620552719    -0.025832993970    12.000000000000
           H         -0.334426475226    -1.380522187542     0.447060757609     1.007825032070
           H          0.379006776869    -1.010920417515    -1.132154246222     1.007825032070
           C          0.315524822753    -0.700180458274    -0.094221282924    12.000000000000
           H          2.130480611683    -1.739113875070     0.480793792355     1.007825032070
           H          1.669950630214    -0.427596056170     1.571849183194     1.007825032070
           H          2.381354548660    -0.057680117956    -0.002829019496     1.007825032070
           C          1.723956077835    -0.734592224905     0.532894360972    12.000000000000

  Nuclear repulsion =  130.848718643062341

  ==> Basis Set <==

  Basis Set: CC-PVDZ
    Number of shells: 54
    Number of basis function: 106
    Number of Cartesian functions: 110
    Spherical Harmonics?: true
    Max angular momentum: 2

  ==> DFJKGrad: Density-Fitted SCF Gradients <==

    Gradient:                    1
    J tasked:                  Yes
    K tasked:                  Yes
    wK tasked:                  No
    OpenMP threads:              1
    Integrals threads:           1
    Memory (MB):               715
    Schwarz Cutoff:          0E+00
    Fitting Condition:       1E-12

   => Auxiliary Basis Set <=

  Basis Set: 
    Number of shells: 186
    Number of basis function: 510
    Number of Cartesian functions: 574
    Spherical Harmonics?: true
    Max angular momentum: 3

  ==> DFT Potential <==

   => B3LYP Composite Functional <= 

    B3LYP Hybrid-GGA Exchange-Correlation Functional (VWN1-RPA)

    P.J. Stephens et. al., J. Phys. Chem., 98, 11623-11627, 1994

    Points   =           5000
    Deriv    =              1
    GGA      =           TRUE
    Meta     =          FALSE

    X_LRC        =          FALSE
    X_Hybrid     =           TRUE
    X_Alpha      =   2.000000E-01
    X_Omega      =   0.000000E+00
    C_LRC        =          FALSE
    C_Hybrid     =          FALSE
    C_Alpha      =   0.000000E+00
    C_Omega      =   0.000000E+00

   => Exchange Functionals <=

    0.8000    B3_X
    0.2000      HF 

   => Correlation Functionals <=

    0.1900 VWN3RPA_C
    0.8100   LYP_C

   => Molecular Quadrature <=

    Radial Scheme    =       TREUTLER
    Pruning Scheme   =           FLAT
    Nuclear Scheme   =       TREUTLER

    BS radius alpha  =              1
    Pruning alpha    =              1
    Radial Points    =             75
    Spherical Points =            302
    Total Points     =         312746
    Total Blocks     =            273
    Max Points       =           4937
    Max Functions    =            106


  -Total Gradient:
     Atom            X                  Y                   Z
    ------   -----------------  -----------------  -----------------
       1        0.008338633517     0.006434438565    -0.005851012227
       2        0.007366550120    -0.009148527523     0.000623471288
       3        0.004104183869     0.004059935484     0.010835873079
       4       -0.020260898890    -0.005858455239    -0.005626768933
       5       -0.007657824541    -0.009235825020     0.004313249636
       6       -0.002862183072    -0.006467642759    -0.010471620179
       7        0.017955306182     0.023048809950     0.009270256231
       8        0.007834963969     0.009192811024    -0.003531085080
       9        0.002351782855     0.006320241017     0.011093680651
      10       -0.016696830954    -0.022459978652    -0.012294798027
      11       -0.007387377441     0.009505554889    -0.000908909307
      12       -0.002165854013    -0.003040586628    -0.011504363276
      13       -0.009185699873    -0.006670123543     0.003890623989
      14        0.018268797429     0.004321337291     0.010150928926


*** tstop() called on lski1497 at Tue Feb 21 18:04:55 2017
Module time:
	user time   =      37.87 seconds =       0.63 minutes
	system time =       0.58 seconds =       0.01 minutes
	total time  =         43 seconds =       0.72 minutes
Total time:
	user time   =     288.70 seconds =       4.81 minutes
	system time =       3.81 seconds =       0.06 minutes
	total time  =        334 seconds =       5.57 minutes

			-----------------------------------------
			 OPTKING 2.0: for geometry optimizations 
			  - R.A. King,  Bethel University        
			-----------------------------------------

	Previous internal coordinate definitions found.
	---Fragment 1 Geometry and Gradient---
	 H          -4.3800629338        0.1366347959        0.4861552857
	 H          -4.1001512377        3.2466383011       -0.7002646673
	 H          -3.5389599529        0.6380795643       -2.7077865019
	 C          -3.3334655607        1.3465810331       -0.7954709808
	 H           0.5161641423        2.5850780733       -1.3382000699
	 H          -0.3254916321        2.0841010462        1.8635164058
	 C          -0.5153562128        1.3674446688       -0.0488172838
	 H          -0.6319744498       -2.6088088548        0.8448223966
	 H           0.7162190108       -1.9103627312       -2.1394614655
	 C           0.5962555031       -1.3231493097       -0.1780524206
	 H           4.0260248875       -3.2864489378        0.9085685939
	 H           3.1557493465       -0.8080394417        2.9703644784
	 H           4.5001079223       -0.1089996263       -0.0053460721
	 C           3.2578048522       -1.3881781244        1.0070244000
	             0.0083386335        0.0064344386       -0.0058510122
	             0.0073665501       -0.0091485275        0.0006234713
	             0.0041041839        0.0040599355        0.0108358731
	            -0.0202608989       -0.0058584552       -0.0056267689
	            -0.0076578245       -0.0092358250        0.0043132496
	            -0.0028621831       -0.0064676428       -0.0104716202
	             0.0179553062        0.0230488099        0.0092702562
	             0.0078349640        0.0091928110       -0.0035310851
	             0.0023517829        0.0063202410        0.0110936807
	            -0.0166968310       -0.0224599787       -0.0122947980
	            -0.0073873774        0.0095055549       -0.0009089093
	            -0.0021658540       -0.0030405866       -0.0115043633
	            -0.0091856999       -0.0066701235        0.0038906240
	             0.0182687974        0.0043213373        0.0101509289

	---Fragment 1 Intrafragment Coordinates---
	 - Coordinate -           - BOHR/RAD -       - ANG/DEG -
	 R(1,4)           =         2.049854	       1.084736
	 R(2,4)           =         2.051119	       1.085405
	 R(3,4)           =         2.049671	       1.084639
	 R(4,7)           =         2.915419	       1.542773
	 R(5,7)           =         2.051627	       1.085674
	 R(6,7)           =         2.051016	       1.085351
	 R(7,10)          =         2.914048	       1.542048
	 R(8,10)          =         2.051278	       1.085490
	 R(9,10)          =         2.050935	       1.085308
	 R(10,14)         =         2.914186	       1.542121
	 R(11,14)         =         2.050192	       1.084915
	 R(12,14)         =         2.049800	       1.084707
	 R(13,14)         =         2.050490	       1.085072
	 B(1,4,2)         =         1.903840	     109.081991
	 B(1,4,3)         =         1.905096	     109.153986
	 B(1,4,7)         =         1.915194	     109.732546
	 B(2,4,3)         =         1.902907	     109.028552
	 B(2,4,7)         =         1.920688	     110.047314
	 B(3,4,7)         =         1.915935	     109.774989
	 B(4,7,5)         =         1.906351	     109.225885
	 B(4,7,6)         =         1.907916	     109.315518
	 B(4,7,10)        =         1.929188	     110.534326
	 B(5,7,6)         =         1.909277	     109.393491
	 B(5,7,10)        =         1.905321	     109.166828
	 B(6,7,10)        =         1.905680	     109.187410
	 B(7,10,8)        =         1.905169	     109.158121
	 B(7,10,9)        =         1.906131	     109.213288
	 B(7,10,14)       =         1.929398	     110.546345
	 B(8,10,9)        =         1.909705	     109.418010
	 B(8,10,14)       =         1.907194	     109.274140
	 B(9,10,14)       =         1.906143	     109.213939
	 B(10,14,11)      =         1.921283	     110.081382
	 B(10,14,12)      =         1.915288	     109.737895
	 B(10,14,13)      =         1.916265	     109.793877
	 B(11,14,12)      =         1.903609	     109.068776
	 B(11,14,13)      =         1.903802	     109.079818
	 B(12,14,13)      =         1.903395	     109.056479
	 D(1,4,7,5)       =        -3.139618	    -179.886869
	 D(1,4,7,6)       =        -1.051128	     -60.225223
	 D(1,4,7,10)      =         1.046939	      59.985197
	 D(2,4,7,5)       =        -1.044523	     -59.846777
	 D(2,4,7,6)       =         1.043966	      59.814868
	 D(2,4,7,10)      =        -3.141151	    -179.974711
	 D(3,4,7,5)       =         1.049886	      60.154027
	 D(3,4,7,6)       =         3.138376	     179.815673
	 D(3,4,7,10)      =        -1.046742	     -59.973907
	 D(4,7,10,8)      =        -0.869619	     -49.825488
	 D(4,7,10,9)      =         1.217613	      69.764086
	 D(4,7,10,14)     =        -2.967938	    -170.050334
	 D(5,7,10,8)      =        -2.966865	    -169.988828
	 D(5,7,10,9)      =        -0.879633	     -50.399254
	 D(5,7,10,14)     =         1.218001	      69.786326
	 D(6,7,10,8)      =         1.229788	      70.461654
	 D(6,7,10,9)      =        -2.966166	    -169.948772
	 D(6,7,10,14)     =        -0.868532	     -49.763191
	 D(7,10,14,11)    =        -3.141573	    -179.998901
	 D(7,10,14,12)    =         1.046371	      59.952644
	 D(7,10,14,13)    =        -1.045478	     -59.901503
	 D(8,10,14,11)    =         1.044506	      59.845762
	 D(8,10,14,12)    =        -1.050735	     -60.202694
	 D(8,10,14,13)    =         3.140601	     179.943160
	 D(9,10,14,11)    =        -1.043946	     -59.813711
	 D(9,10,14,12)    =        -3.139187	    -179.862166
	 D(9,10,14,13)    =         1.052149	      60.283687

	Current energy   :      -158.4548524215

	Energy change for the previous step:
		Projected    :        -0.0077935902
		Actual       :        -0.0058474569

	Performing BFGS update.
	Previous computed or guess Hessian on step 1.
	Steps to be used in Hessian update: 1
	Adding user-defined constraint: Fragment 1; Coordinate 49:
		Value =    -2.967938; Fixed value    =    -2.967060
		Force =     0.000461; Force constant =     0.525000
	Removing off-diagonal coupling between coordinate 49 and others.
	Taking RFO optimization step.
	Going to follow RFO solution 1.
	Using RFO vector 1.

	Determining step-restricting scale parameter for RS-RFO.
	Maximum step size allowed    0.10000

	 Iter      |step|        alpha        rfo_root  
	------------------------------------------------
	    0     0.20101       1.00000           1
	    1     0.15246       6.50304           1
	    2     0.12095      17.12880           1
	    3     0.10520      28.31955           1
	    4     0.10045      33.15759           1
	    5     0.10000      33.65447           1
	------------------------------------------------
	Norm of target step-size    0.10000
	Projected energy change by RFO approximation:        -0.0042260575

	Back-transformation to cartesian coordinates...
	Could not converge backtransformation.
	Using first guess instead.

	--- Internal Coordinate Step in ANG or DEG, aJ/ANG or AJ/DEG ---
	 ---------------------------------------------------------------------------
	   Coordinate                Previous        Force       Change         New 
	   ----------                --------       ------       ------       ------
	    1 R(1,4)          =      1.084736     0.096500     0.012412     1.097148
	    2 R(2,4)          =      1.085405     0.092269     0.011517     1.096923
	    3 R(3,4)          =      1.084639     0.098248     0.012582     1.097221
	    4 R(4,7)          =      1.542773    -0.003904    -0.002780     1.539993
	    5 R(5,7)          =      1.085674     0.099220     0.012687     1.098362
	    6 R(6,7)          =      1.085351     0.101236     0.012976     1.098327
	    7 R(7,10)         =      1.542048    -0.000728    -0.001488     1.540560
	    8 R(8,10)         =      1.085490     0.100621     0.012904     1.098393
	    9 R(9,10)         =      1.085308     0.101189     0.012908     1.098217
	   10 R(10,14)        =      1.542121    -0.001164    -0.002351     1.539770
	   11 R(11,14)        =      1.084915     0.094957     0.011820     1.096735
	   12 R(12,14)        =      1.084707     0.096979     0.012460     1.097167
	   13 R(13,14)        =      1.085072     0.095963     0.012318     1.097390
	   14 B(1,4,2)        =    109.081991    -0.000246    -0.659501   108.422490
	   15 B(1,4,3)        =    109.153986    -0.000230    -0.699362   108.454624
	   16 B(1,4,7)        =    109.732546     0.000198     0.585527   110.318073
	   17 B(2,4,3)        =    109.028552    -0.000251    -0.670783   108.357770
	   18 B(2,4,7)        =    110.047314     0.000309     0.774410   110.821723
	   19 B(3,4,7)        =    109.774989     0.000210     0.618283   110.393272
	   20 B(4,7,5)        =    109.225885    -0.000107    -0.116520   109.109365
	   21 B(4,7,6)        =    109.315518    -0.000114    -0.176212   109.139306
	   22 B(4,7,10)       =    110.534326     0.000555     1.277244   111.811569
	   23 B(5,7,6)        =    109.393491    -0.000060    -0.548226   108.845265
	   24 B(5,7,10)       =    109.166828    -0.000139    -0.224652   108.942176
	   25 B(6,7,10)       =    109.187410    -0.000139    -0.241831   108.945579
	   26 B(7,10,8)       =    109.158121    -0.000136    -0.231013   108.927108
	   27 B(7,10,9)       =    109.213288    -0.000143    -0.241484   108.971803
	   28 B(7,10,14)      =    110.546345     0.000551     1.268654   111.814999
	   29 B(8,10,9)       =    109.418010    -0.000063    -0.556025   108.861985
	   30 B(8,10,14)      =    109.274140    -0.000111    -0.165252   109.108889
	   31 B(9,10,14)      =    109.213939    -0.000102    -0.104876   109.109063
	   32 B(10,14,11)     =    110.081382     0.000307     0.764884   110.846267
	   33 B(10,14,12)     =    109.737895     0.000196     0.579269   110.317163
	   34 B(10,14,13)     =    109.793877     0.000208     0.612556   110.406434
	   35 B(11,14,12)     =    109.068776    -0.000244    -0.653415   108.415360
	   36 B(11,14,13)     =    109.079818    -0.000254    -0.682931   108.396888
	   37 B(12,14,13)     =    109.056479    -0.000223    -0.672436   108.384043
	   38 D(1,4,7,5)      =   -179.886869     0.000022     0.402114  -179.484755
	   39 D(1,4,7,6)      =    -60.225223    -0.000026    -0.437348   -60.662572
	   40 D(1,4,7,10)     =     59.985197    -0.000003    -0.046701    59.938496
	   41 D(2,4,7,5)      =    -59.846777     0.000025     0.451266   -59.395511
	   42 D(2,4,7,6)      =     59.814868    -0.000023    -0.388196    59.426673
	   43 D(2,4,7,10)     =   -179.974711     0.000001     0.002452  -179.972260
	   44 D(3,4,7,5)      =     60.154027     0.000028     0.507924    60.661951
	   45 D(3,4,7,6)      =    179.815673    -0.000019    -0.331538   179.484135
	   46 D(3,4,7,10)     =    -59.973907     0.000004     0.059110   -59.914797
	   47 D(4,7,10,8)     =    -49.825488     0.000022     0.364661   -49.460827
	   48 D(4,7,10,9)     =     69.764086    -0.000034    -0.586323    69.177763
	   49 D(4,7,10,14)    =   -170.050334    -0.000005    -0.076136  -170.126470
	   50 D(5,7,10,8)     =   -169.988828    -0.000006    -0.146133  -170.134961
	   51 D(5,7,10,9)     =    -50.399254    -0.000062    -1.097117   -51.496371
	   52 D(5,7,10,14)    =     69.786326    -0.000033    -0.586930    69.199396
	   53 D(6,7,10,8)     =     70.461654     0.000049     0.791392    71.253046
	   54 D(6,7,10,9)     =   -169.948772    -0.000007    -0.159592  -170.108364
	   55 D(6,7,10,14)    =    -49.763191     0.000021     0.350595   -49.412596
	   56 D(7,10,14,11)   =   -179.998901     0.000002     0.019525  -179.979376
	   57 D(7,10,14,12)   =     59.952644    -0.000002    -0.027664    59.924980
	   58 D(7,10,14,13)   =    -59.901503     0.000004     0.053158   -59.848345
	   59 D(8,10,14,11)   =     59.845762    -0.000022    -0.384888    59.460874
	   60 D(8,10,14,12)   =    -60.202694    -0.000026    -0.432078   -60.634771
	   61 D(8,10,14,13)   =    179.943160    -0.000020    -0.351256   179.591904
	   62 D(9,10,14,11)   =    -59.813711     0.000025     0.450181   -59.363530
	   63 D(9,10,14,12)   =   -179.862166     0.000021     0.402991  -179.459175
	   64 D(9,10,14,13)   =     60.283687     0.000027     0.483813    60.767500
	 ---------------------------------------------------------------------------
	 Forces used to impose fixed constraints are not included.
	  Forces zeroed: 49 

  ==> Convergence Check <==

  Measures of convergence in internal coordinates in au.
  Criteria marked as inactive (o), active & met (*), and active & unmet ( ).
  ---------------------------------------------------------------------------------------------
   Step     Total Energy     Delta E     MAX Force     RMS Force      MAX Disp      RMS Disp   
  ---------------------------------------------------------------------------------------------
    Convergence Criteria    1.00e-06 *    3.00e-04 *             o    1.20e-03 *             o
  ---------------------------------------------------------------------------------------------
      2    -158.45485242   -5.85e-03      1.23e-02      5.17e-03 o    2.45e-02      1.25e-02 o  ~
  ---------------------------------------------------------------------------------------------

	Writing optimization data to binary file.
	Structure for next step:
	Cartesian Geometry (in Angstrom)
	    H    -2.3456198852   0.0776021268   0.2558466782
	    H    -2.1865509942   1.7339101092  -0.3757935908
	    H    -1.8960985836   0.3429020281  -1.4463040906
	    C    -1.7712237449   0.7197733760  -0.4234316204
	    H     0.2714664025   1.3738674951  -0.7150391094
	    H    -0.1804581976   1.1077504729   0.9928859981
	    C    -0.2825494659   0.7188285746  -0.0291902036
	    H    -0.3316715737  -1.3884232860   0.4551772209
	    H     0.3848731302  -1.0143520130  -1.1382885394
	    C     0.3245323316  -0.6958082674  -0.0890181073
	    H     2.1491530223  -1.7542532658   0.4820106978
	    H     1.6932905956  -0.4352554419   1.5862265451
	    H     2.4084061237  -0.0609574583   0.0000325925
	    C     1.7322156037  -0.7411578938   0.5332856921
			--------------------------
			 OPTKING Finished Execution 
			--------------------------

    Structure for next step:
    Molecular point group: c1
    Full point group: C1

    Geometry (in Angstrom), charge = 0, multiplicity = 1:

    H           -2.345658227655     0.077562773394     0.255893844904
    H           -2.186589336725     1.733870755761    -0.375746424094
    H           -1.896136926091     0.342862674725    -1.446256923850
    C           -1.771262087418     0.719734022638    -0.423384453659
    H            0.271428060001     1.373828141656    -0.714991942639
    H           -0.180496540085     1.107711119492     0.992933164852
    C           -0.282587808348     0.718789221191    -0.029143036844
    H           -0.331709916218    -1.388462639453     0.455224387678
    H            0.384834787685    -1.014391366404    -1.138241372625
    C            0.324493989096    -0.695847620836    -0.088970940556
    H            2.149114679778    -1.754292619226     0.482057864491
    H            1.693252253107    -0.435294795293     1.586273711826
    H            2.408367781193    -0.060996811694     0.000079759283
    C            1.732177261198    -0.741197247221     0.533332858814

gradient() will perform analytic gradient computation.

*** tstart() called on lski1497
*** at Tue Feb 21 18:04:56 2017


         ---------------------------------------------------------
                                   SCF
            by Justin Turney, Rob Parrish, and Andy Simmonett
                              RKS Reference
                        1 Threads,   1000 MiB Core
         ---------------------------------------------------------

  ==> Geometry <==

    Molecular point group: c1
    Full point group: C1

    Geometry (in Angstrom), charge = 0, multiplicity = 1:

       Center              X                  Y                   Z               Mass       
    ------------   -----------------  -----------------  -----------------  -----------------
           H         -2.345658227655     0.077562773394     0.255893844904     1.007825032070
           H         -2.186589336725     1.733870755761    -0.375746424094     1.007825032070
           H         -1.896136926091     0.342862674725    -1.446256923850     1.007825032070
           C         -1.771262087418     0.719734022638    -0.423384453659    12.000000000000
           H          0.271428060001     1.373828141656    -0.714991942639     1.007825032070
           H         -0.180496540085     1.107711119492     0.992933164852     1.007825032070
           C         -0.282587808348     0.718789221191    -0.029143036844    12.000000000000
           H         -0.331709916218    -1.388462639453     0.455224387678     1.007825032070
           H          0.384834787685    -1.014391366404    -1.138241372625     1.007825032070
           C          0.324493989096    -0.695847620836    -0.088970940556    12.000000000000
           H          2.149114679778    -1.754292619226     0.482057864491     1.007825032070
           H          1.693252253107    -0.435294795293     1.586273711826     1.007825032070
           H          2.408367781193    -0.060996811694     0.000079759283     1.007825032070
           C          1.732177261198    -0.741197247221     0.533332858814    12.000000000000

  Running in c1 symmetry.

  Rotational constants: A =      0.76091  B =      0.12104  C =      0.11379 [cm^-1]
  Rotational constants: A =  22811.55024  B =   3628.54856  C =   3411.43290 [MHz]
  Nuclear repulsion =  130.149269239139045

  Charge       = 0
  Multiplicity = 1
  Electrons    = 34
  Nalpha       = 17
  Nbeta        = 17

  ==> Algorithm <==

  SCF Algorithm Type is DF.
  DIIS enabled.
  MOM disabled.
  Fractional occupation disabled.
  Guess Type is READ.
  Energy threshold   = 1.00e-08
  Density threshold  = 1.00e-08
  Integral threshold = 0.00e+00

  ==> Primary Basis <==

  Basis Set: CC-PVDZ
    Number of shells: 54
    Number of basis function: 106
    Number of Cartesian functions: 110
    Spherical Harmonics?: true
    Max angular momentum: 2

  ==> DFT Potential <==

   => B3LYP Composite Functional <= 

    B3LYP Hybrid-GGA Exchange-Correlation Functional (VWN1-RPA)

    P.J. Stephens et. al., J. Phys. Chem., 98, 11623-11627, 1994

    Points   =           5000
    Deriv    =              1
    GGA      =           TRUE
    Meta     =          FALSE

    X_LRC        =          FALSE
    X_Hybrid     =           TRUE
    X_Alpha      =   2.000000E-01
    X_Omega      =   0.000000E+00
    C_LRC        =          FALSE
    C_Hybrid     =          FALSE
    C_Alpha      =   0.000000E+00
    C_Omega      =   0.000000E+00

   => Exchange Functionals <=

    0.8000    B3_X
    0.2000      HF 

   => Correlation Functionals <=

    0.1900 VWN3RPA_C
    0.8100   LYP_C

   => Molecular Quadrature <=

    Radial Scheme    =       TREUTLER
    Pruning Scheme   =           FLAT
    Nuclear Scheme   =       TREUTLER

    BS radius alpha  =              1
    Pruning alpha    =              1
    Radial Points    =             75
    Spherical Points =            302
    Total Points     =         312766
    Total Blocks     =            277
    Max Points       =           4898
    Max Functions    =            106

  ==> Pre-Iterations <==

   -------------------------------------------------------
    Irrep   Nso     Nmo     Nalpha   Nbeta   Ndocc  Nsocc
   -------------------------------------------------------
     A        106     106       0       0       0       0
   -------------------------------------------------------
    Total     106     106      17      17      17       0
   -------------------------------------------------------

  ==> Integral Setup <==

  ==> DFJK: Density-Fitted J/K Matrices <==

    J tasked:                  Yes
    K tasked:                  Yes
    wK tasked:                  No
    OpenMP threads:              1
    Integrals threads:           1
    Memory (MB):               715
    Algorithm:                Core
    Integral Cache:           NONE
    Schwarz Cutoff:          1E-12
    Fitting Condition:       1E-12

   => Auxiliary Basis Set <=

  Basis Set: 
    Number of shells: 186
    Number of basis function: 510
    Number of Cartesian functions: 574
    Spherical Harmonics?: true
    Max angular momentum: 3

  Minimum eigenvalue in the overlap matrix is 3.8682960454E-03.
  Using Symmetric Orthogonalization.
  SCF Guess was Projection but file not found.
  Switching over to SAD guess.

  SCF Guess: Superposition of Atomic Densities via on-the-fly atomic UHF.

  ==> Iterations <==

                           Total Energy        Delta E     RMS |[F,P]|

   @DF-RKS iter   0:  -158.95386363991219   -1.58954e+02   3.27694e-02 
   @DF-RKS iter   1:  -158.33430807421985    6.19556e-01   4.31441e-03 
   @DF-RKS iter   2:  -158.29439394421689    3.99141e-02   5.08740e-03 DIIS
   @DF-RKS iter   3:  -158.45681600033203   -1.62422e-01   3.44784e-04 DIIS
   @DF-RKS iter   4:  -158.45746831259200   -6.52312e-04   1.22561e-04 DIIS
   @DF-RKS iter   5:  -158.45754375367241   -7.54411e-05   4.46549e-05 DIIS
   @DF-RKS iter   6:  -158.45755488571777   -1.11320e-05   3.50637e-06 DIIS
   @DF-RKS iter   7:  -158.45755495835564   -7.26379e-08   6.15758e-07 DIIS
   @DF-RKS iter   8:  -158.45755496077726   -2.42161e-09   9.73915e-08 DIIS
   @DF-RKS iter   9:  -158.45755496083819   -6.09361e-11   2.72532e-08 DIIS
   @DF-RKS iter  10:  -158.45755496084371   -5.51381e-12   4.66181e-09 DIIS

  ==> Post-Iterations <==

    Orbital Energies (a.u.)
    -----------------------

    Doubly Occupied:                                                      

       1A    -10.178583     2A    -10.178421     3A    -10.173734  
       4A    -10.173707     5A     -0.789980     6A     -0.719714  
       7A     -0.626223     8A     -0.572068     9A     -0.467688  
      10A     -0.421795    11A     -0.415101    12A     -0.407439  
      13A     -0.364434    14A     -0.350610    15A     -0.327677  
      16A     -0.325368    17A     -0.317328  

    Virtual:                                                              

      18A      0.060793    19A      0.081567    20A      0.096785  
      21A      0.103555    22A      0.137733    23A      0.143554  
      24A      0.151212    25A      0.155436    26A      0.163739  
      27A      0.170335    28A      0.224524    29A      0.230984  
      30A      0.244151    31A      0.405501    32A      0.406118  
      33A      0.412133    34A      0.425796    35A      0.449026  
      36A      0.506328    37A      0.507446    38A      0.580393  
      39A      0.604805    40A      0.636757    41A      0.648392  
      42A      0.652541    43A      0.658575    44A      0.664288  
      45A      0.669252    46A      0.672617    47A      0.683296  
      48A      0.703601    49A      0.705806    50A      0.727309  
      51A      0.740560    52A      0.743398    53A      0.893096  
      54A      0.898693    55A      0.964166    56A      1.081303  
      57A      1.199797    58A      1.212036    59A      1.226211  
      60A      1.247030    61A      1.291246    62A      1.327997  
      63A      1.423524    64A      1.424245    65A      1.451391  
      66A      1.493324    67A      1.566942    68A      1.600428  
      69A      1.604900    70A      1.616703    71A      1.629734  
      72A      1.645110    73A      1.651475    74A      1.658822  
      75A      1.690961    76A      1.703723    77A      1.703833  
      78A      1.712419    79A      1.727158    80A      1.750207  
      81A      1.755790    82A      1.771292    83A      1.883616  
      84A      1.916800    85A      1.934537    86A      1.961224  
      87A      1.983370    88A      2.086231    89A      2.091453  
      90A      2.150367    91A      2.198561    92A      2.216407  
      93A      2.232304    94A      2.290517    95A      2.303934  
      96A      2.320671    97A      2.425430    98A      2.431718  
      99A      2.431886   100A      2.453683   101A      2.506877  
     102A      2.511092   103A      2.601616   104A      2.603760  
     105A      2.702308   106A      2.704723  

    Final Occupation by Irrep:
              A 
    DOCC [    17 ]

  Energy converged.

  @DF-RKS Final Energy:  -158.45755496084371

   => Energetics <=

    Nuclear Repulsion Energy =            130.1492692391390449
    One-Electron Energy =                -468.7868423834590885
    Two-Electron Energy =                 200.7762257090192861
    DFT Exchange-Correlation Energy =     -20.5962075255429298
    Empirical Dispersion Energy =           0.0000000000000000
    PCM Polarization Energy =               0.0000000000000000
    EFP Energy =                            0.0000000000000000
    Total Energy =                       -158.4575549608437086


  Saving occupied orbitals to File 180.

*** tstop() called on lski1497 at Tue Feb 21 18:06:58 2017
Module time:
	user time   =     105.17 seconds =       1.75 minutes
	system time =       1.30 seconds =       0.02 minutes
	total time  =        122 seconds =       2.03 minutes
Total time:
	user time   =     394.49 seconds =       6.57 minutes
	system time =       5.13 seconds =       0.09 minutes
	total time  =        457 seconds =       7.62 minutes


Properties will be evaluated at   0.000000,   0.000000,   0.000000 Bohr

Properties computed using the SCF density matrix

  Nuclear Dipole Moment: (a.u.)
     X:    -0.0315      Y:    -0.0165      Z:     0.0911

  Electronic Dipole Moment: (a.u.)
     X:     0.0336      Y:     0.0177      Z:    -0.0971

  Dipole Moment: (a.u.)
     X:     0.0021      Y:     0.0012      Z:    -0.0060     Total:     0.0064

  Dipole Moment: (Debye)
     X:     0.0053      Y:     0.0031      Z:    -0.0152     Total:     0.0164


*** tstart() called on lski1497
*** at Tue Feb 21 18:06:58 2017


         ------------------------------------------------------------
                                   SCF GRAD                          
                          Rob Parrish, Justin Turney,                
                       Andy Simmonett, and Alex Sokolov              
         ------------------------------------------------------------

  ==> Geometry <==

    Molecular point group: c1
    Full point group: C1

    Geometry (in Angstrom), charge = 0, multiplicity = 1:

       Center              X                  Y                   Z               Mass       
    ------------   -----------------  -----------------  -----------------  -----------------
           H         -2.345658227655     0.077562773394     0.255893844904     1.007825032070
           H         -2.186589336725     1.733870755761    -0.375746424094     1.007825032070
           H         -1.896136926091     0.342862674725    -1.446256923850     1.007825032070
           C         -1.771262087418     0.719734022638    -0.423384453659    12.000000000000
           H          0.271428060001     1.373828141656    -0.714991942639     1.007825032070
           H         -0.180496540085     1.107711119492     0.992933164852     1.007825032070
           C         -0.282587808348     0.718789221191    -0.029143036844    12.000000000000
           H         -0.331709916218    -1.388462639453     0.455224387678     1.007825032070
           H          0.384834787685    -1.014391366404    -1.138241372625     1.007825032070
           C          0.324493989096    -0.695847620836    -0.088970940556    12.000000000000
           H          2.149114679778    -1.754292619226     0.482057864491     1.007825032070
           H          1.693252253107    -0.435294795293     1.586273711826     1.007825032070
           H          2.408367781193    -0.060996811694     0.000079759283     1.007825032070
           C          1.732177261198    -0.741197247221     0.533332858814    12.000000000000

  Nuclear repulsion =  130.149269239139045

  ==> Basis Set <==

  Basis Set: CC-PVDZ
    Number of shells: 54
    Number of basis function: 106
    Number of Cartesian functions: 110
    Spherical Harmonics?: true
    Max angular momentum: 2

  ==> DFJKGrad: Density-Fitted SCF Gradients <==

    Gradient:                    1
    J tasked:                  Yes
    K tasked:                  Yes
    wK tasked:                  No
    OpenMP threads:              1
    Integrals threads:           1
    Memory (MB):               715
    Schwarz Cutoff:          0E+00
    Fitting Condition:       1E-12

   => Auxiliary Basis Set <=

  Basis Set: 
    Number of shells: 186
    Number of basis function: 510
    Number of Cartesian functions: 574
    Spherical Harmonics?: true
    Max angular momentum: 3

  ==> DFT Potential <==

   => B3LYP Composite Functional <= 

    B3LYP Hybrid-GGA Exchange-Correlation Functional (VWN1-RPA)

    P.J. Stephens et. al., J. Phys. Chem., 98, 11623-11627, 1994

    Points   =           5000
    Deriv    =              1
    GGA      =           TRUE
    Meta     =          FALSE

    X_LRC        =          FALSE
    X_Hybrid     =           TRUE
    X_Alpha      =   2.000000E-01
    X_Omega      =   0.000000E+00
    C_LRC        =          FALSE
    C_Hybrid     =          FALSE
    C_Alpha      =   0.000000E+00
    C_Omega      =   0.000000E+00

   => Exchange Functionals <=

    0.8000    B3_X
    0.2000      HF 

   => Correlation Functionals <=

    0.1900 VWN3RPA_C
    0.8100   LYP_C

   => Molecular Quadrature <=

    Radial Scheme    =       TREUTLER
    Pruning Scheme   =           FLAT
    Nuclear Scheme   =       TREUTLER

    BS radius alpha  =              1
    Pruning alpha    =              1
    Radial Points    =             75
    Spherical Points =            302
    Total Points     =         312766
    Total Blocks     =            277
    Max Points       =           4898
    Max Functions    =            106


[...]
           C          1.737875368365    -0.740327862219     0.532599623818    12.000000000000

  Nuclear repulsion =  129.925444593863745

  ==> Basis Set <==

  Basis Set: CC-PVDZ
    Number of shells: 54
    Number of basis function: 106
    Number of Cartesian functions: 110
    Spherical Harmonics?: true
    Max angular momentum: 2

  ==> DFJKGrad: Density-Fitted SCF Gradients <==

    Gradient:                    1
    J tasked:                  Yes
    K tasked:                  Yes
    wK tasked:                  No
    OpenMP threads:              1
    Integrals threads:           1
    Memory (MB):               715
    Schwarz Cutoff:          0E+00
    Fitting Condition:       1E-12

   => Auxiliary Basis Set <=

  Basis Set: 
    Number of shells: 186
    Number of basis function: 510
    Number of Cartesian functions: 574
    Spherical Harmonics?: true
    Max angular momentum: 3

  ==> DFT Potential <==

   => B3LYP Composite Functional <= 

    B3LYP Hybrid-GGA Exchange-Correlation Functional (VWN1-RPA)

    P.J. Stephens et. al., J. Phys. Chem., 98, 11623-11627, 1994

    Points   =           5000
    Deriv    =              1
    GGA      =           TRUE
    Meta     =          FALSE

    X_LRC        =          FALSE
    X_Hybrid     =           TRUE
    X_Alpha      =   2.000000E-01
    X_Omega      =   0.000000E+00
    C_LRC        =          FALSE
    C_Hybrid     =          FALSE
    C_Alpha      =   0.000000E+00
    C_Omega      =   0.000000E+00

   => Exchange Functionals <=

    0.8000    B3_X
    0.2000      HF 

   => Correlation Functionals <=

    0.1900 VWN3RPA_C
    0.8100   LYP_C

   => Molecular Quadrature <=

    Radial Scheme    =       TREUTLER
    Pruning Scheme   =           FLAT
    Nuclear Scheme   =       TREUTLER

    BS radius alpha  =              1
    Pruning alpha    =              1
    Radial Points    =             75
    Spherical Points =            302
    Total Points     =         312788
    Total Blocks     =            277
    Max Points       =           4800
    Max Functions    =            106


  -Total Gradient:
     Atom            X                  Y                   Z
    ------   -----------------  -----------------  -----------------
       1       -0.000039690464    -0.000020093310     0.000028293699
       2       -0.000035073131     0.000053658886     0.000000136682
       3       -0.000020888093    -0.000016001033    -0.000046924598
       4       -0.000269393935    -0.000228318810     0.001329104741
       5        0.000010335428    -0.000010447546    -0.000039528406
       6        0.000014070562    -0.000031310649    -0.000015698913
       7        0.000239009306     0.000250205218    -0.001296774084
       8       -0.000004835632     0.000036316728    -0.000009633840
       9        0.000014318835     0.000023732543    -0.000031979386
      10        0.000630291885     0.000228308220    -0.001162359110
      11        0.000034077614    -0.000055918139     0.000003295214
      12        0.000010369366     0.000004694116     0.000051635065
      13        0.000040503656     0.000025957053    -0.000014648206
      14       -0.000619904582    -0.000259027865     0.001196063223


*** tstop() called on lski1497 at Tue Feb 21 18:15:42 2017
Module time:
	user time   =      37.76 seconds =       0.63 minutes
	system time =       0.55 seconds =       0.01 minutes
	total time  =         41 seconds =       0.68 minutes
Total time:
	user time   =     865.60 seconds =      14.43 minutes
	system time =      11.37 seconds =       0.19 minutes
	total time  =        981 seconds =      16.35 minutes

			-----------------------------------------
			 OPTKING 2.0: for geometry optimizations 
			  - R.A. King,  Bethel University        
			-----------------------------------------

	Previous internal coordinate definitions found.
	---Fragment 1 Geometry and Gradient---
	 H          -4.4827718757        0.1672755616        0.4791828699
	 H          -4.1516690005        3.2835935498       -0.7441886503
	 H          -3.6342915189        0.6272527525       -2.7396028258
	 C          -3.3548363652        1.3601510895       -0.8066334715
	 H           0.5159898534        2.6327675196       -1.3050759633
	 H          -0.3603195827        2.1086186247        1.8693891846
	 C          -0.5597341041        1.3402462478       -0.0646151427
	 H          -0.6053688106       -2.6394383420        0.8588875263
	 H           0.7012206546       -1.9637354464       -2.1337906156
	 C           0.6371781606       -1.2976909288       -0.1541872995
	 H           4.0990358852       -3.3125203345        0.8929396599
	 H           3.2451861365       -0.8474670621        3.0171377586
	 H           4.5930197279       -0.1002770715        0.0309755704
	 C           3.2841084993       -1.3990169081        1.0064674275
	            -0.0000396905       -0.0000200933        0.0000282937
	            -0.0000350731        0.0000536589        0.0000001367
	            -0.0000208881       -0.0000160010       -0.0000469246
	            -0.0002693939       -0.0002283188        0.0013291047
	             0.0000103354       -0.0000104475       -0.0000395284
	             0.0000140706       -0.0000313106       -0.0000156989
	             0.0002390093        0.0002502052       -0.0012967741
	            -0.0000048356        0.0000363167       -0.0000096338
	             0.0000143188        0.0000237325       -0.0000319794
	             0.0006302919        0.0002283082       -0.0011623591
	             0.0000340776       -0.0000559181        0.0000032952
	             0.0000103694        0.0000046941        0.0000516351
	             0.0000405037        0.0000259571       -0.0000146482
	            -0.0006199046       -0.0002590279        0.0011960632

	---Fragment 1 Intrafragment Coordinates---
	 - Coordinate -           - BOHR/RAD -       - ANG/DEG -
	 R(1,4)           =         2.085309	       1.103498
	 R(2,4)           =         2.082900	       1.102223
	 R(3,4)           =         2.086050	       1.103890
	 R(4,7)           =         2.891986	       1.530373
	 R(5,7)           =         2.089626	       1.105782
	 R(6,7)           =         2.090582	       1.106289
	 R(7,10)          =         2.898161	       1.533641
	 R(8,10)          =         2.090581	       1.106288
	 R(9,10)          =         2.089628	       1.105784
	 R(10,14)         =         2.891994	       1.530377
	 R(11,14)         =         2.082904	       1.102226
	 R(12,14)         =         2.085310	       1.103498
	 R(13,14)         =         2.086039	       1.103884
	 B(1,4,2)         =         1.878462	     107.627934
	 B(1,4,3)         =         1.873312	     107.332853
	 B(1,4,7)         =         1.939741	     111.138951
	 B(2,4,3)         =         1.876503	     107.515704
	 B(2,4,7)         =         1.948091	     111.617400
	 B(3,4,7)         =         1.944222	     111.395687
	 B(4,7,5)         =         1.918753	     109.936457
	 B(4,7,6)         =         1.903947	     109.088146
	 B(4,7,10)        =         1.979576	     113.421337
	 B(5,7,6)         =         1.847019	     105.826420
	 B(5,7,10)        =         1.909275	     109.393385
	 B(6,7,10)        =         1.900472	     108.889049
	 B(7,10,8)        =         1.900475	     108.889191
	 B(7,10,9)        =         1.909278	     109.393585
	 B(7,10,14)       =         1.979566	     113.420804
	 B(8,10,9)        =         1.847018	     105.826338
	 B(8,10,14)       =         1.903946	     109.088058
	 B(9,10,14)       =         1.918760	     109.936844
	 B(10,14,11)      =         1.948089	     111.617273
	 B(10,14,12)      =         1.939727	     111.138184
	 B(10,14,13)      =         1.944218	     111.395500
	 B(11,14,12)      =         1.878466	     107.628156
	 B(11,14,13)      =         1.876508	     107.516006
	 B(12,14,13)      =         1.873323	     107.333482
	 D(1,4,7,5)       =        -3.083762	    -176.686535
	 D(1,4,7,6)       =        -1.065695	     -61.059813
	 D(1,4,7,10)      =         1.055744	      60.489650
	 D(2,4,7,5)       =        -0.986514	     -56.523090
	 D(2,4,7,6)       =         1.031553	      59.103633
	 D(2,4,7,10)      =        -3.130194	    -179.346904
	 D(3,4,7,5)       =         1.111309	      63.673298
	 D(3,4,7,6)       =         3.129376	     179.300021
	 D(3,4,7,10)      =        -1.032371	     -59.150516
	 D(4,7,10,8)      =        -0.847878	     -48.579805
	 D(4,7,10,9)      =         1.163027	      66.636517
	 D(4,7,10,14)     =        -2.971253	    -170.240240
	 D(5,7,10,8)      =        -2.996779	    -171.702770
	 D(5,7,10,9)      =        -0.985875	     -56.486449
	 D(5,7,10,14)     =         1.163031	      66.636794
	 D(6,7,10,8)      =         1.275504	      73.080998
	 D(6,7,10,9)      =        -2.996777	    -171.702680
	 D(6,7,10,14)     =        -0.847871	     -48.579437
	 D(7,10,14,11)    =        -3.130211	    -179.347873
	 D(7,10,14,12)    =         1.055732	      60.489008
	 D(7,10,14,13)    =        -1.032385	     -59.151316
	 D(8,10,14,11)    =         1.031540	      59.102904
	 D(8,10,14,12)    =        -1.065702	     -61.060215
	 D(8,10,14,13)    =         3.129366	     179.299461
	 D(9,10,14,11)    =        -0.986528	     -56.523887
	 D(9,10,14,12)    =        -3.083770	    -176.687006
	 D(9,10,14,13)    =         1.111298	      63.672670

	Current energy   :      -158.4585633421

	Energy change for the previous step:
		Projected    :        -0.0000109684
		Actual       :        -0.0000071836

	Performing BFGS update.
	Previous computed or guess Hessian on step 1.
	Steps to be used in Hessian update: 5 4
	Adding user-defined constraint: Fragment 1; Coordinate 49:
		Value =    -2.971253; Fixed value    =    -2.967060
		Force =     0.002620; Force constant =     0.625000
	Removing off-diagonal coupling between coordinate 49 and others.
	Taking RFO optimization step.
	Going to follow RFO solution 1.
	Using RFO vector 1.
	Norm of target step-size    0.00298
	Projected energy change by RFO approximation:         0.0000000746

	Back-transformation to cartesian coordinates...
	Successfully converged to displaced geometry.

	--- Internal Coordinate Step in ANG or DEG, aJ/ANG or AJ/DEG ---
	 ---------------------------------------------------------------------------
	   Coordinate                Previous        Force       Change         New 
	   ----------                --------       ------       ------       ------
	    1 R(1,4)          =      1.103498    -0.000423    -0.000070     1.103428
	    2 R(2,4)          =      1.102223    -0.000514    -0.000086     1.102137
	    3 R(3,4)          =      1.103890    -0.000427    -0.000071     1.103820
	    4 R(4,7)          =      1.530373    -0.000134    -0.000022     1.530351
	    5 R(5,7)          =      1.105782    -0.000178    -0.000024     1.105758
	    6 R(6,7)          =      1.106289     0.000200     0.000040     1.106328
	    7 R(7,10)         =      1.533641    -0.000301    -0.000062     1.533579
	    8 R(8,10)         =      1.106288     0.000204     0.000040     1.106328
	    9 R(9,10)         =      1.105784    -0.000185    -0.000026     1.105758
	   10 R(10,14)        =      1.530377    -0.000146    -0.000025     1.530353
	   11 R(11,14)        =      1.102226    -0.000527    -0.000088     1.102138
	   12 R(12,14)        =      1.103498    -0.000427    -0.000071     1.103428
	   13 R(13,14)        =      1.103884    -0.000398    -0.000066     1.103818
	   14 B(1,4,2)        =    107.627934     0.000001     0.007639   107.635573
	   15 B(1,4,3)        =    107.332853     0.000001     0.003379   107.336232
	   16 B(1,4,7)        =    111.138951    -0.000001    -0.004533   111.134418
	   17 B(2,4,3)        =    107.515704     0.000001     0.004288   107.519992
	   18 B(2,4,7)        =    111.617400    -0.000001    -0.002748   111.614652
	   19 B(3,4,7)        =    111.395687    -0.000001    -0.007070   111.388617
	   20 B(4,7,5)        =    109.936457     0.000002     0.008405   109.944861
	   21 B(4,7,6)        =    109.088146    -0.000003    -0.019260   109.068886
	   22 B(4,7,10)       =    113.421337    -0.000000     0.003022   113.424360
	   23 B(5,7,6)        =    105.826420    -0.000001    -0.015413   105.811007
	   24 B(5,7,10)       =    109.393385     0.000001     0.015729   109.409113
	   25 B(6,7,10)       =    108.889049     0.000001     0.006012   108.895061
	   26 B(7,10,8)       =    108.889191     0.000001     0.005968   108.895159
	   27 B(7,10,9)       =    109.393585     0.000001     0.015497   109.409082
	   28 B(7,10,14)      =    113.420804    -0.000000     0.003407   113.424211
	   29 B(8,10,9)       =    105.826338    -0.000001    -0.015344   105.810993
	   30 B(8,10,14)      =    109.088058    -0.000003    -0.019143   109.068914
	   31 B(9,10,14)      =    109.936844     0.000002     0.008092   109.944936
	   32 B(10,14,11)     =    111.617273    -0.000001    -0.002685   111.614587
	   33 B(10,14,12)     =    111.138184    -0.000001    -0.003955   111.134229
	   34 B(10,14,13)     =    111.395500    -0.000001    -0.006918   111.388582
	   35 B(11,14,12)     =    107.628156     0.000001     0.007439   107.635595
	   36 B(11,14,13)     =    107.516006     0.000001     0.004057   107.520063
	   37 B(12,14,13)     =    107.333482     0.000001     0.002965   107.336447
	   38 D(1,4,7,5)      =   -176.686535     0.000000    -0.015569  -176.702104
	   39 D(1,4,7,6)      =    -61.059813    -0.000000    -0.040337   -61.100150
	   40 D(1,4,7,10)     =     60.489650    -0.000000    -0.044490    60.445160
	   41 D(2,4,7,5)      =    -56.523090     0.000000    -0.010815   -56.533905
	   42 D(2,4,7,6)      =     59.103633    -0.000000    -0.035584    59.068049
	   43 D(2,4,7,10)     =   -179.346904    -0.000000    -0.039737  -179.386641
	   44 D(3,4,7,5)      =     63.673298     0.000000    -0.012082    63.661217
	   45 D(3,4,7,6)      =    179.300021    -0.000000    -0.036850   179.263171
	   46 D(3,4,7,10)     =    -59.150516    -0.000000    -0.041003   -59.191519
	   47 D(4,7,10,8)     =    -48.579805     0.000001    -0.012845   -48.592650
	   48 D(4,7,10,9)     =     66.636517     0.000001    -0.019413    66.617103
	   49 D(4,7,10,14)    =   -170.240240     0.000001     0.005059  -170.235181
	   50 D(5,7,10,8)     =   -171.702770    -0.000000    -0.037625  -171.740395
	   51 D(5,7,10,9)     =    -56.486449    -0.000000    -0.044194   -56.530643
	   52 D(5,7,10,14)    =     66.636794     0.000001    -0.019721    66.617073
	   53 D(6,7,10,8)     =     73.080998    -0.000000    -0.031125    73.049873
	   54 D(6,7,10,9)     =   -171.702680    -0.000000    -0.037693  -171.740374
	   55 D(6,7,10,14)    =    -48.579437     0.000001    -0.013221   -48.592658
	   56 D(7,10,14,11)   =   -179.347873    -0.000000    -0.038445  -179.386318
	   57 D(7,10,14,12)   =     60.489008    -0.000000    -0.043380    60.445628
	   58 D(7,10,14,13)   =    -59.151316    -0.000000    -0.039858   -59.191173
	   59 D(8,10,14,11)   =     59.102904    -0.000000    -0.034579    59.068325
	   60 D(8,10,14,12)   =    -61.060215    -0.000000    -0.039514   -61.099729
	   61 D(8,10,14,13)   =    179.299461    -0.000000    -0.035992   179.263469
	   62 D(9,10,14,11)   =    -56.523887     0.000000    -0.009785   -56.533672
	   63 D(9,10,14,12)   =   -176.687006     0.000000    -0.014721  -176.701726
	   64 D(9,10,14,13)   =     63.672670     0.000000    -0.011198    63.661472
	 ---------------------------------------------------------------------------
	 Forces used to impose fixed constraints are not included.
	  Forces zeroed: 49 

  ==> Convergence Check <==

  Measures of convergence in internal coordinates in au.
  Criteria marked as inactive (o), active & met (*), and active & unmet ( ).
  ---------------------------------------------------------------------------------------------
   Step     Total Energy     Delta E     MAX Force     RMS Force      MAX Disp      RMS Disp   
  ---------------------------------------------------------------------------------------------
    Convergence Criteria    1.00e-06 *    3.00e-04 *             o    1.20e-03 *             o
  ---------------------------------------------------------------------------------------------
      6    -158.45856334   -7.18e-06      6.40e-05 *    2.43e-05 o    7.76e-04 *    3.72e-04 o  ~
  ---------------------------------------------------------------------------------------------


  **** Optimization is complete! (in 6 steps) ****

  ==> Optimization Summary <==

  Measures of convergence in internal coordinates in au.
  --------------------------------------------------------------------------------------------------------------- ~
   Step         Total Energy             Delta E       MAX Force       RMS Force        MAX Disp        RMS Disp  ~
  --------------------------------------------------------------------------------------------------------------- ~
      1    -158.449004964652   -158.449004964652      0.02360093      0.00958172      0.02960503      0.01250285  ~
      2    -158.454852421511     -0.005847456858      0.01228780      0.00517210      0.02452199      0.01250691  ~
      3    -158.457554960844     -0.002702539333      0.00394539      0.00191842      0.03826644      0.01251200  ~
      4    -158.458372582232     -0.000817621389      0.00148264      0.00058019      0.04083743      0.01251742  ~
      5    -158.458556158516     -0.000183576284      0.00057174      0.00014224      0.00798943      0.00281479  ~
      6    -158.458563342126     -0.000007183610      0.00007081      0.00002589      0.00077650      0.00037205  ~
  --------------------------------------------------------------------------------------------------------------- ~

	Writing optimization data to binary file.
	Final energy is   -158.4585633421260
	Final (previous) structure:
	Cartesian Geometry (in Angstrom)
	    H    -2.3721807079   0.0885184147   0.2535726535
	    H    -2.1969686127   1.7376028688  -0.3938076726
	    H    -1.9231842412   0.3319278606  -1.4497353760
	    C    -1.7753029430   0.7197609568  -0.4268520488
	    H     0.2730500703   1.3932005669  -0.6906164552
	    H    -0.1906729110   1.1158329178   0.9892381505
	    C    -0.2961985308   0.7092277682  -0.0341928608
	    H    -0.3203473774  -1.3967306141   0.4545037036
	    H     0.3710699886  -1.0391640419  -1.1291533617
	    C     0.3371801604  -0.6867084633  -0.0815924047
	    H     2.1691163676  -1.7529102640   0.4725233167
	    H     1.7172785411  -0.4484602543   1.5966005370
	    H     2.4305213586  -0.0530643408   0.0163915659
	    C     1.7378753684  -0.7403278622   0.5325996238
	Saving final (previous) structure.
			--------------------------
			 OPTKING Finished Execution 
			--------------------------

    Final optimized geometry and variables:
    Molecular point group: c1
    Full point group: C1

    Geometry (in Angstrom), charge = 0, multiplicity = 1:

    H           -2.372180707934     0.088518414738     0.253572653517
    H           -2.196968612658     1.737602868811    -0.393807672637
    H           -1.923184241196     0.331927860630    -1.449735376024
    C           -1.775302943018     0.719760956797    -0.426852048804
    H            0.273050070285     1.393200566893    -0.690616455239
    H           -0.190672910976     1.115832917804     0.989238150471
    C           -0.296198530762     0.709227768227    -0.034192860825
    H           -0.320347377381    -1.396730614073     0.454503703641
    H            0.371069988587    -1.039164041925    -1.129153361671
    C            0.337180160412    -0.686708463317    -0.081592404732
    H            2.169116367645    -1.752910264005     0.472523316689
    H            1.717278541064    -0.448460254281     1.596600537026
    H            2.430521358586    -0.053064340802     0.016391565896
    C            1.737875368365    -0.740327862219     0.532599623818

	Cleaning optimization helper files.

*** Psi4 exiting successfully. Buy a developer a beer!
