    -----------------------------------------------------------------------
          Psi4: An Open-Source Ab Initio Electronic Structure Package
                              Psi4 1.0.0 Driver

                          Git: Rev {master} 6a9a71b 

    J. M. Turney, A. C. Simmonett, R. M. Parrish, E. G. Hohenstein,
    F. A. Evangelista, J. T. Fermann, B. J. Mintz, L. A. Burns, J. J. Wilke,
    M. L. Abrams, N. J. Russ, M. L. Leininger, C. L. Janssen, E. T. Seidl,
    W. D. Allen, H. F. Schaefer, R. A. King, E. F. Valeev, C. D. Sherrill,
    and T. D. Crawford, WIREs Comput. Mol. Sci. 2, 556-565 (2012)
    (doi: 10.1002/wcms.93)

                         Additional Contributions by
    A. E. DePrince, U. Bozkaya, A. Yu. Sokolov, D. G. A. Smith, R. Di Remigio,
    R. M. Richard, J. F. Gonthier, H. R. McAlexander, M. Saitow, and
    B. P. Pritchard
    -----------------------------------------------------------------------


    Psi4 started on: Tue Feb 21 18:00:22 2017

    Process ID:  34356
    PSI4DATADIR: /Users/sternc1/anaconda/share/psi4
    Memory level set to 256.000 MB

  ==> Input File <==

--------------------------------------------------------------------------

memory 1000 mb

molecule butane {
  symmetry C1
  0 1 
  H      1.604   0.760   -8.260
  H      1.745   2.388   -8.880
  H      2.043   1.024   -9.930
  C      2.142   1.395   -8.932
  H      4.169   2.051   -9.210
  H      3.731   1.788   -7.539
  C      3.631   1.416   -8.537
  H      3.482   -0.705   -8.233
  H      4.429   -0.253   -9.629
  C      4.203   -0.012   -8.612
  H      5.885   -1.088   -7.820
  H      5.263   0.145   -6.750
  H      6.210   0.597   -8.147
  C      5.488   -0.096   -7.768
  units Angstrom
}

dih_string = "4 7 10 14 200"
set optking fixed_dihedral = $dih_string

optimize('B3LYP/cc-PVDZ')
--------------------------------------------------------------------------

  Memory set to 1000.000 MiB by Python script.
gradient() will perform analytic gradient computation.

*** tstart() called on lski1497
*** at Tue Feb 21 18:00:24 2017


         ---------------------------------------------------------
                                   SCF
            by Justin Turney, Rob Parrish, and Andy Simmonett
                              RKS Reference
                        1 Threads,   1000 MiB Core
         ---------------------------------------------------------

  ==> Geometry <==

    Molecular point group: c1
    Full point group: C1

    Geometry (in Angstrom), charge = 0, multiplicity = 1:

       Center              X                  Y                   Z               Mass       
    ------------   -----------------  -----------------  -----------------  -----------------
           H         -2.260282064669     0.085126320548     0.198354277962     1.007825032070
           H         -2.119282064669     1.713126320548    -0.421645722038     1.007825032070
           H         -1.821282064669     0.349126320548    -1.471645722038     1.007825032070
           C         -1.722282064669     0.720126320548    -0.473645722038    12.000000000000
           H          0.304717935331     1.376126320548    -0.751645722038     1.007825032070
           H         -0.133282064669     1.113126320548     0.919354277962     1.007825032070
           C         -0.233282064669     0.741126320548    -0.078645722038    12.000000000000
           H         -0.382282064669    -1.379873679452     0.225354277962     1.007825032070
           H          0.564717935331    -0.927873679452    -1.170645722038     1.007825032070
           C          0.338717935331    -0.686873679452    -0.153645722038    12.000000000000
           H          2.020717935331    -1.762873679452     0.638354277962     1.007825032070
           H          1.398717935331    -0.529873679452     1.708354277962     1.007825032070
           H          2.345717935331    -0.077873679452     0.311354277962     1.007825032070
           C          1.623717935331    -0.770873679452     0.690354277962    12.000000000000

  Running in c1 symmetry.

  Rotational constants: A =      0.74156  B =      0.12541  C =      0.11797 [cm^-1]
  Rotational constants: A =  22231.39392  B =   3759.66439  C =   3536.62028 [MHz]
  Nuclear repulsion =  131.906513445390488

  Charge       = 0
  Multiplicity = 1
  Electrons    = 34
  Nalpha       = 17
  Nbeta        = 17

  ==> Algorithm <==

  SCF Algorithm Type is DF.
  DIIS enabled.
  MOM disabled.
  Fractional occupation disabled.
  Guess Type is SAD.
  Energy threshold   = 1.00e-08
  Density threshold  = 1.00e-08
  Integral threshold = 0.00e+00

  ==> Primary Basis <==

  Basis Set: CC-PVDZ
    Number of shells: 54
    Number of basis function: 106
    Number of Cartesian functions: 110
    Spherical Harmonics?: true
    Max angular momentum: 2

  ==> DFT Potential <==

   => B3LYP Composite Functional <= 

    B3LYP Hybrid-GGA Exchange-Correlation Functional (VWN1-RPA)

    P.J. Stephens et. al., J. Phys. Chem., 98, 11623-11627, 1994

    Points   =           5000
    Deriv    =              1
    GGA      =           TRUE
    Meta     =          FALSE

    X_LRC        =          FALSE
    X_Hybrid     =           TRUE
    X_Alpha      =   2.000000E-01
    X_Omega      =   0.000000E+00
    C_LRC        =          FALSE
    C_Hybrid     =          FALSE
    C_Alpha      =   0.000000E+00
    C_Omega      =   0.000000E+00

   => Exchange Functionals <=

    0.8000    B3_X
    0.2000      HF 

   => Correlation Functionals <=

    0.1900 VWN3RPA_C
    0.8100   LYP_C

   => Molecular Quadrature <=

    Radial Scheme    =       TREUTLER
    Pruning Scheme   =           FLAT
    Nuclear Scheme   =       TREUTLER

    BS radius alpha  =              1
    Pruning alpha    =              1
    Radial Points    =             75
    Spherical Points =            302
    Total Points     =         312740
    Total Blocks     =            269
    Max Points       =           4783
    Max Functions    =            106

  ==> Pre-Iterations <==

   -------------------------------------------------------
    Irrep   Nso     Nmo     Nalpha   Nbeta   Ndocc  Nsocc
   -------------------------------------------------------
     A        106     106       0       0       0       0
   -------------------------------------------------------
    Total     106     106      17      17      17       0
   -------------------------------------------------------

  ==> Integral Setup <==

  ==> DFJK: Density-Fitted J/K Matrices <==

    J tasked:                  Yes
    K tasked:                  Yes
    wK tasked:                  No
    OpenMP threads:              1
    Integrals threads:           1
    Memory (MB):               715
    Algorithm:                Core
    Integral Cache:           NONE
    Schwarz Cutoff:          1E-12
    Fitting Condition:       1E-12

   => Auxiliary Basis Set <=

  Basis Set: 
    Number of shells: 186
    Number of basis function: 510
    Number of Cartesian functions: 574
    Spherical Harmonics?: true
    Max angular momentum: 3

  Minimum eigenvalue in the overlap matrix is 3.8771356494E-03.
  Using Symmetric Orthogonalization.
  SCF Guess: Superposition of Atomic Densities via on-the-fly atomic UHF.

  ==> Iterations <==

                           Total Energy        Delta E     RMS |[F,P]|

   @DF-RKS iter   0:  -159.06545183425331   -1.59065e+02   3.40955e-02 
   @DF-RKS iter   1:  -158.31373446874855    7.51717e-01   4.53165e-03 
   @DF-RKS iter   2:  -158.27942789571969    3.43066e-02   5.20576e-03 DIIS
   @DF-RKS iter   3:  -158.44714803887146   -1.67720e-01   3.53339e-04 DIIS
   @DF-RKS iter   4:  -158.44781483026023   -6.66791e-04   1.28637e-04 DIIS
   @DF-RKS iter   5:  -158.44789880740504   -8.39771e-05   4.32104e-05 DIIS
   @DF-RKS iter   6:  -158.44790915045385   -1.03430e-05   3.67969e-06 DIIS
   @DF-RKS iter   7:  -158.44790922978854   -7.93347e-08   7.32843e-07 DIIS
   @DF-RKS iter   8:  -158.44790923320005   -3.41151e-09   1.25269e-07 DIIS
   @DF-RKS iter   9:  -158.44790923329987   -9.98170e-11   3.08304e-08 DIIS
   @DF-RKS iter  10:  -158.44790923330629   -6.42331e-12   5.74088e-09 DIIS

  ==> Post-Iterations <==

    Orbital Energies (a.u.)
    -----------------------

    Doubly Occupied:                                                      

       1A    -10.169912     2A    -10.169671     3A    -10.163941  
       4A    -10.163881     5A     -0.794398     6A     -0.723652  
       7A     -0.629882     8A     -0.579943     9A     -0.473236  
      10A     -0.426181    11A     -0.421449    12A     -0.407320  
      13A     -0.366806    14A     -0.356436    15A     -0.330527  
      16A     -0.330259    17A     -0.309751  

    Virtual:                                                              

      18A      0.063928    19A      0.086908    20A      0.102427  
      21A      0.108538    22A      0.142860    23A      0.150481  
      24A      0.154861    25A      0.163937    26A      0.170242  
      27A      0.170811    28A      0.228831    29A      0.239823  
      30A      0.241779    31A      0.405778    32A      0.413707  
      33A      0.423183    34A      0.433953    35A      0.455129  
      36A      0.499319    37A      0.509217    38A      0.586110  
      39A      0.607090    40A      0.647865    41A      0.665753  
      42A      0.666570    43A      0.671124    44A      0.680331  
      45A      0.681750    46A      0.686259    47A      0.694674  
      48A      0.705736    49A      0.717274    50A      0.737021  
      51A      0.754126    52A      0.754237    53A      0.885900  
      54A      0.902126    55A      0.972769    56A      1.101970  
      57A      1.182735    58A      1.209541    59A      1.235749  
      60A      1.277570    61A      1.298312    62A      1.339482  
      63A      1.436185    64A      1.439647    65A      1.487737  
      66A      1.491316    67A      1.561802    68A      1.609857  
      69A      1.611236    70A      1.633380    71A      1.648772  
      72A      1.668930    73A      1.677812    74A      1.687834  
      75A      1.703520    76A      1.727853    77A      1.730322  
      78A      1.736175    79A      1.756919    80A      1.763686  
      81A      1.789298    82A      1.792117    83A      1.897136  
      84A      1.950250    85A      1.967461    86A      1.983304  
      87A      1.999968    88A      2.081534    89A      2.092468  
      90A      2.203158    91A      2.238776    92A      2.249203  
      93A      2.279073    94A      2.336689    95A      2.348399  
      96A      2.366255    97A      2.500702    98A      2.503529  
      99A      2.508917   100A      2.512821   101A      2.555384  
     102A      2.583397   103A      2.620160   104A      2.657810  
     105A      2.737292   106A      2.751738  

    Final Occupation by Irrep:
              A 
    DOCC [    17 ]

  Energy converged.

  @DF-RKS Final Energy:  -158.44790923330629

   => Energetics <=

    Nuclear Repulsion Energy =            131.9065134453904875
    One-Electron Energy =                -472.2094194564606369
    Two-Electron Energy =                 202.5345384481677513
    DFT Exchange-Correlation Energy =     -20.6795416704038857
    Empirical Dispersion Energy =           0.0000000000000000
    PCM Polarization Energy =               0.0000000000000000
    EFP Energy =                            0.0000000000000000
    Total Energy =                       -158.4479092333062908


  Saving occupied orbitals to File 180.

*** tstop() called on lski1497 at Tue Feb 21 18:02:26 2017
Module time:
	user time   =     101.49 seconds =       1.69 minutes
	system time =       1.23 seconds =       0.02 minutes
	total time  =        122 seconds =       2.03 minutes
Total time:
	user time   =     101.49 seconds =       1.69 minutes
	system time =       1.23 seconds =       0.02 minutes
	total time  =        122 seconds =       2.03 minutes


Properties will be evaluated at   0.000000,   0.000000,   0.000000 Bohr

Properties computed using the SCF density matrix

  Nuclear Dipole Moment: (a.u.)
     X:    -0.0767      Y:    -0.0391      Z:     0.1739

  Electronic Dipole Moment: (a.u.)
     X:     0.0826      Y:     0.0416      Z:    -0.1874

  Dipole Moment: (a.u.)
     X:     0.0059      Y:     0.0025      Z:    -0.0135     Total:     0.0149

  Dipole Moment: (Debye)
     X:     0.0150      Y:     0.0063      Z:    -0.0342     Total:     0.0379


*** tstart() called on lski1497
*** at Tue Feb 21 18:02:26 2017


         ------------------------------------------------------------
                                   SCF GRAD                          
                          Rob Parrish, Justin Turney,                
                       Andy Simmonett, and Alex Sokolov              
         ------------------------------------------------------------

  ==> Geometry <==

    Molecular point group: c1
    Full point group: C1

    Geometry (in Angstrom), charge = 0, multiplicity = 1:

       Center              X                  Y                   Z               Mass       
    ------------   -----------------  -----------------  -----------------  -----------------
           H         -2.260282064669     0.085126320548     0.198354277962     1.007825032070
           H         -2.119282064669     1.713126320548    -0.421645722038     1.007825032070
           H         -1.821282064669     0.349126320548    -1.471645722038     1.007825032070
           C         -1.722282064669     0.720126320548    -0.473645722038    12.000000000000
           H          0.304717935331     1.376126320548    -0.751645722038     1.007825032070
           H         -0.133282064669     1.113126320548     0.919354277962     1.007825032070
           C         -0.233282064669     0.741126320548    -0.078645722038    12.000000000000
           H         -0.382282064669    -1.379873679452     0.225354277962     1.007825032070
           H          0.564717935331    -0.927873679452    -1.170645722038     1.007825032070
           C          0.338717935331    -0.686873679452    -0.153645722038    12.000000000000
           H          2.020717935331    -1.762873679452     0.638354277962     1.007825032070
           H          1.398717935331    -0.529873679452     1.708354277962     1.007825032070
           H          2.345717935331    -0.077873679452     0.311354277962     1.007825032070
           C          1.623717935331    -0.770873679452     0.690354277962    12.000000000000

  Nuclear repulsion =  131.906513445390488

  ==> Basis Set <==

  Basis Set: CC-PVDZ
    Number of shells: 54
    Number of basis function: 106
    Number of Cartesian functions: 110
    Spherical Harmonics?: true
    Max angular momentum: 2

  ==> DFJKGrad: Density-Fitted SCF Gradients <==

    Gradient:                    1
    J tasked:                  Yes
    K tasked:                  Yes
    wK tasked:                  No
    OpenMP threads:              1
    Integrals threads:           1
    Memory (MB):               715
    Schwarz Cutoff:          0E+00
    Fitting Condition:       1E-12

   => Auxiliary Basis Set <=

  Basis Set: 
    Number of shells: 186
    Number of basis function: 510
    Number of Cartesian functions: 574
    Spherical Harmonics?: true
    Max angular momentum: 3

  ==> DFT Potential <==

   => B3LYP Composite Functional <= 

    B3LYP Hybrid-GGA Exchange-Correlation Functional (VWN1-RPA)

    P.J. Stephens et. al., J. Phys. Chem., 98, 11623-11627, 1994

    Points   =           5000
    Deriv    =              1
    GGA      =           TRUE
    Meta     =          FALSE

    X_LRC        =          FALSE
    X_Hybrid     =           TRUE
    X_Alpha      =   2.000000E-01
    X_Omega      =   0.000000E+00
    C_LRC        =          FALSE
    C_Hybrid     =          FALSE
    C_Alpha      =   0.000000E+00
    C_Omega      =   0.000000E+00

   => Exchange Functionals <=

    0.8000    B3_X
    0.2000      HF 

   => Correlation Functionals <=

    0.1900 VWN3RPA_C
    0.8100   LYP_C

   => Molecular Quadrature <=

    Radial Scheme    =       TREUTLER
    Pruning Scheme   =           FLAT
    Nuclear Scheme   =       TREUTLER

    BS radius alpha  =              1
    Pruning alpha    =              1
    Radial Points    =             75
    Spherical Points =            302
    Total Points     =         312740
    Total Blocks     =            269
    Max Points       =           4783
    Max Functions    =            106


  -Total Gradient:
     Atom            X                  Y                   Z
    ------   -----------------  -----------------  -----------------
       1        0.014047100891     0.012740535222    -0.012629600928
       2        0.012687933923    -0.018906735404     0.000611670936
       3        0.005582644098     0.007889126046     0.021292240362
       4       -0.029585281009    -0.009145654061    -0.008124422429
       5       -0.013135638831    -0.015797803366     0.011083193719
       6       -0.003220862622    -0.009940214467    -0.020950558586
       7        0.025377267943     0.032669750044     0.013980332400
       8        0.015801629174     0.016456060079    -0.006369981935
       9       -0.001840688851     0.008230215156     0.022552551757
      10       -0.021309047268    -0.030978685857    -0.022706245592
      11       -0.012461542238     0.019818437702    -0.001677010791
      12        0.001703332229    -0.004555644278    -0.021992119153
      13       -0.017368306624    -0.013757114678     0.005403801063
      14        0.023726242892     0.005280267192     0.019515814213


*** tstop() called on lski1497 at Tue Feb 21 18:03:11 2017
Module time:
	user time   =      40.01 seconds =       0.67 minutes
	system time =       0.63 seconds =       0.01 minutes
	total time  =         45 seconds =       0.75 minutes
Total time:
	user time   =     141.52 seconds =       2.36 minutes
	system time =       1.86 seconds =       0.03 minutes
	total time  =        167 seconds =       2.78 minutes

			-----------------------------------------
			 OPTKING 2.0: for geometry optimizations 
			  - R.A. King,  Bethel University        
			-----------------------------------------

	Internal coordinates to be generated automatically.
	Detected frag 1 with atoms:  1 2 3 4 5 6 7 8 9 10 11 12 13 14
	---Fragment 1 Bond Connectivity---
	 1 : 4
	 2 : 4
	 3 : 4
	 4 : 1 2 3 7
	 5 : 7
	 6 : 7
	 7 : 4 5 6 10
	 8 : 10
	 9 : 10
	 10 : 7 8 9 14
	 11 : 14
	 12 : 14
	 13 : 14
	 14 : 10 11 12 13

	Assuming in current code that numbering for constraints corresponds to unified fragment.
	Fixed dihedral atom list: 
	     4     7    10    14
	---Fragment 1 Geometry and Gradient---
	 H          -4.2713140853        0.1608654325        0.3748352626
	 H          -4.0048627006        3.2373395769       -0.7967949398
	 H          -3.4417243130        0.6597531316       -2.7810073793
	 C          -3.2546414258        1.3608415269       -0.8950606987
	 H           0.5758334456        2.6005018701       -1.4204045636
	 H          -0.2518666007        2.1035038971        1.7373278044
	 C          -0.4408392139        1.4005257757       -0.1486188762
	 H          -0.7224084077       -2.6075833521        0.4258578682
	 H           1.0671622401       -1.7534271401       -2.2121998133
	 C           0.6400841341       -1.2980031421       -0.2903483361
	 H           3.8186034896       -3.3313484610        1.2063147611
	 H           2.6431938349       -1.0013161392        3.2283217233
	 H           4.4327644828       -0.1471599271        0.5883743157
	 C           3.0683822148       -1.4567401372        1.3045805200
	             0.0140471009        0.0127405352       -0.0126296009
	             0.0126879339       -0.0189067354        0.0006116709
	             0.0055826441        0.0078891260        0.0212922404
	            -0.0295852810       -0.0091456541       -0.0081244224
	            -0.0131356388       -0.0157978034        0.0110831937
	            -0.0032208626       -0.0099402145       -0.0209505586
	             0.0253772679        0.0326697500        0.0139803324
	             0.0158016292        0.0164560601       -0.0063699819
	            -0.0018406889        0.0082302152        0.0225525518
	            -0.0213090473       -0.0309786859       -0.0227062456
	            -0.0124615422        0.0198184377       -0.0016770108
	             0.0017033322       -0.0045556443       -0.0219921192
	            -0.0173683066       -0.0137571147        0.0054038011
	             0.0237262429        0.0052802672        0.0195158142

	Previous optimization step data not found.  Starting new optimization.

	---Fragment 1 Intrafragment Coordinates---
	 - Coordinate -           - BOHR/RAD -       - ANG/DEG -
	 R(1,4)           =         2.021436	       1.069698
	 R(2,4)           =         2.023298	       1.070683
	 R(3,4)           =         2.020723	       1.069320
	 R(4,7)           =         2.911397	       1.540645
	 R(5,7)           =         2.022623	       1.070326
	 R(6,7)           =         2.021555	       1.069761
	 R(7,10)          =         2.910419	       1.540128
	 R(8,10)          =         2.020974	       1.069454
	 R(9,10)          =         2.020723	       1.069320
	 R(10,14)         =         2.909575	       1.539681
	 R(11,14)         =         2.021545	       1.069756
	 R(12,14)         =         2.022122	       1.070061
	 R(13,14)         =         2.022249	       1.070128
	 B(1,4,2)         =         1.910870	     109.484805
	 B(1,4,3)         =         1.911121	     109.499161
	 B(1,4,7)         =         1.910399	     109.457783
	 B(2,4,3)         =         1.910042	     109.437340
	 B(2,4,7)         =         1.910564	     109.467262
	 B(3,4,7)         =         1.910803	     109.480971
	 B(4,7,5)         =         1.909937	     109.431343
	 B(4,7,6)         =         1.911630	     109.528316
	 B(4,7,10)        =         1.911154	     109.501062
	 B(5,7,6)         =         1.910605	     109.469614
	 B(5,7,10)        =         1.910047	     109.437654
	 B(6,7,10)        =         1.910425	     109.459295
	 B(7,10,8)        =         1.910463	     109.461456
	 B(7,10,9)        =         1.911105	     109.498225
	 B(7,10,14)       =         1.911187	     109.502926
	 B(8,10,9)        =         1.910800	     109.480778
	 B(8,10,14)       =         1.910327	     109.453676
	 B(9,10,14)       =         1.909918	     109.430254
	 B(10,14,11)      =         1.910992	     109.491796
	 B(10,14,12)      =         1.911045	     109.494792
	 B(10,14,13)      =         1.910932	     109.488316
	 B(11,14,12)      =         1.910416	     109.458755
	 B(11,14,13)      =         1.910191	     109.445858
	 B(12,14,13)      =         1.910224	     109.447783
	 D(1,4,7,5)       =         3.140997	     179.965873
	 D(1,4,7,6)       =        -1.047644	     -60.025575
	 D(1,4,7,10)      =         1.047427	      60.013132
	 D(2,4,7,5)       =        -1.047689	     -60.028143
	 D(2,4,7,6)       =         1.046856	      59.980409
	 D(2,4,7,10)      =        -3.141259	    -179.980883
	 D(3,4,7,5)       =         1.046044	      59.933911
	 D(3,4,7,6)       =         3.140588	     179.942463
	 D(3,4,7,10)      =        -1.047526	     -60.018830
	 D(4,7,10,8)      =        -0.698260	     -40.007367
	 D(4,7,10,9)      =         1.396523	      80.014897
	 D(4,7,10,14)     =        -2.792515	    -159.999312
	 D(5,7,10,8)      =        -2.791763	    -159.956243
	 D(5,7,10,9)      =        -0.696979	     -39.933978
	 D(5,7,10,14)     =         1.397168	      80.051812
	 D(6,7,10,8)      =         1.397547	      80.073559
	 D(6,7,10,9)      =        -2.790854	    -159.904177
	 D(6,7,10,14)     =        -0.696707	     -39.918386
	 D(7,10,14,11)    =         3.141322	     179.984465
	 D(7,10,14,12)    =         1.046721	      59.972681
	 D(7,10,14,13)    =        -1.047608	     -60.023524
	 D(8,10,14,11)    =         1.046984	      59.987758
	 D(8,10,14,12)    =        -1.047617	     -60.024025
	 D(8,10,14,13)    =         3.141240	     179.979769
	 D(9,10,14,11)    =        -1.046991	     -59.988148
	 D(9,10,14,12)    =         3.141593	     180.000000
	 D(9,10,14,13)    =         1.047265	      60.003862

	Current energy   :      -158.4479092333

	Generating empirical Hessian (Schlegel '84) for each fragment.
	Adding user-defined constraint: Fragment 1; Coordinate 49:
		Value =    -2.792515; Fixed value    =    -2.792527
		Force =    -0.000006; Force constant =     0.500000
	Removing off-diagonal coupling between coordinate 49 and others.
	Taking RFO optimization step.
	Going to follow RFO solution 1.
	Using RFO vector 1.

	Determining step-restricting scale parameter for RS-RFO.
	Maximum step size allowed    0.10000

	 Iter      |step|        alpha        rfo_root  
	------------------------------------------------
	    0     0.25841       1.00000           1
	    1     0.19212       5.93587           1
	    2     0.14259      19.17645           1
	    3     0.11408      38.58075           1
	    4     0.10237      52.49806           1
	    5     0.10009      55.86682           1
	    6     0.10000      56.00059           1
	------------------------------------------------
	Norm of target step-size    0.10000
	Projected energy change by RFO approximation:        -0.0076808609

	Back-transformation to cartesian coordinates...
	Could not converge backtransformation.
	Using first guess instead.

	--- Internal Coordinate Step in ANG or DEG, aJ/ANG or AJ/DEG ---
	 ---------------------------------------------------------------------------
	   Coordinate                Previous        Force       Change         New 
	   ----------                --------       ------       ------       ------
	    1 R(1,4)          =      1.069698     0.185876     0.014955     1.084652
	    2 R(2,4)          =      1.070683     0.182982     0.014708     1.085391
	    3 R(3,4)          =      1.069320     0.190534     0.015301     1.084621
	    4 R(4,7)          =      1.540645     0.023346     0.002139     1.542784
	    5 R(5,7)          =      1.070326     0.189036     0.015176     1.085502
	    6 R(6,7)          =      1.069761     0.191981     0.015404     1.085165
	    7 R(7,10)         =      1.540128     0.037606     0.003498     1.543625
	    8 R(8,10)         =      1.069454     0.194215     0.015576     1.085029
	    9 R(9,10)         =      1.069320     0.195206     0.015646     1.084967
	   10 R(10,14)        =      1.539681     0.027653     0.002524     1.542205
	   11 R(11,14)        =      1.069756     0.188841     0.015156     1.084912
	   12 R(12,14)        =      1.070061     0.183769     0.014793     1.084854
	   13 R(13,14)        =      1.070128     0.185712     0.014933     1.085061
	   14 B(1,4,2)        =    109.484805    -0.000313    -0.393742   109.091063
	   15 B(1,4,3)        =    109.499161    -0.000257    -0.337136   109.162026
	   16 B(1,4,7)        =    109.457783     0.000204     0.252324   109.710107
	   17 B(2,4,3)        =    109.437340    -0.000328    -0.410755   109.026586
	   18 B(2,4,7)        =    109.467262     0.000457     0.585668   110.052930
	   19 B(3,4,7)        =    109.480971     0.000238     0.295912   109.776884
	   20 B(4,7,5)        =    109.431343    -0.000225    -0.235387   109.195956
	   21 B(4,7,6)        =    109.528316    -0.000211    -0.237778   109.290539
	   22 B(4,7,10)       =    109.501062     0.000887     1.056638   110.557701
	   23 B(5,7,6)        =    109.469614     0.000007    -0.080254   109.389359
	   24 B(5,7,10)       =    109.437654    -0.000227    -0.250854   109.186801
	   25 B(6,7,10)       =    109.459295    -0.000230    -0.256337   109.202958
	   26 B(7,10,8)       =    109.461456    -0.000232    -0.259228   109.202228
	   27 B(7,10,9)       =    109.498225    -0.000233    -0.259424   109.238801
	   28 B(7,10,14)      =    109.502926     0.000888     1.057806   110.560732
	   29 B(8,10,9)       =    109.480778     0.000006    -0.081079   109.399698
	   30 B(8,10,14)      =    109.453676    -0.000205    -0.228208   109.225469
	   31 B(9,10,14)      =    109.430254    -0.000224    -0.233681   109.196573
	   32 B(10,14,11)     =    109.491796     0.000456     0.583725   110.075521
	   33 B(10,14,12)     =    109.494792     0.000198     0.245045   109.739838
	   34 B(10,14,13)     =    109.488316     0.000240     0.299282   109.787597
	   35 B(11,14,12)     =    109.458755    -0.000310    -0.389351   109.069404
	   36 B(11,14,13)     =    109.445858    -0.000330    -0.413419   109.032439
	   37 B(12,14,13)     =    109.447783    -0.000255    -0.333982   109.113801
	   38 D(1,4,7,5)      =    179.965873     0.000026     0.171807   180.137679
	   39 D(1,4,7,6)      =    -60.025575    -0.000033    -0.213121   -60.238696
	   40 D(1,4,7,10)     =     60.013132    -0.000003    -0.023534    59.989599
	   41 D(2,4,7,5)      =    -60.028143     0.000031     0.206512   -59.821631
	   42 D(2,4,7,6)      =     59.980409    -0.000028    -0.178415    59.801994
	   43 D(2,4,7,10)     =   -179.980883     0.000002     0.011172  -179.969711
	   44 D(3,4,7,5)      =     59.933911     0.000037     0.247541    60.181452
	   45 D(3,4,7,6)      =    179.942463    -0.000023    -0.137386   179.805077
	   46 D(3,4,7,10)     =    -60.018830     0.000008     0.052201   -59.966629
	   47 D(4,7,10,8)     =    -40.007367     0.000019     0.129267   -39.878100
	   48 D(4,7,10,9)     =     80.014897    -0.000044    -0.284028    79.730869
	   49 D(4,7,10,14)    =   -159.999312    -0.000015    -0.080511  -160.079823
	   50 D(5,7,10,8)     =   -159.956243    -0.000010    -0.075424  -160.031666
	   51 D(5,7,10,9)     =    -39.933978    -0.000074    -0.488719   -40.422697
	   52 D(5,7,10,14)    =     80.051812    -0.000044    -0.285202    79.766610
	   53 D(6,7,10,8)     =     80.073559     0.000052     0.329062    80.402620
	   54 D(6,7,10,9)     =   -159.904177    -0.000011    -0.084234  -159.988411
	   55 D(6,7,10,14)    =    -39.918386     0.000018     0.119283   -39.799103
	   56 D(7,10,14,11)   =    179.984465     0.000003     0.015535   180.000000
	   57 D(7,10,14,12)   =     59.972681    -0.000002    -0.019801    59.952880
	   58 D(7,10,14,13)   =    -60.023524     0.000008     0.054401   -59.969123
	   59 D(8,10,14,11)   =     59.987758    -0.000028    -0.175896    59.811863
	   60 D(8,10,14,12)   =    -60.024025    -0.000033    -0.210899   -60.234924
	   61 D(8,10,14,13)   =    179.979769    -0.000023    -0.136697   179.843072
	   62 D(9,10,14,11)   =    -59.988148     0.000031     0.202412   -59.785736
	   63 D(9,10,14,12)   =    180.000000     0.000026     0.167477   180.167477
	   64 D(9,10,14,13)   =     60.003862     0.000036     0.241611    60.245474
	 ---------------------------------------------------------------------------
	 Forces used to impose fixed constraints are not included.
	  Forces zeroed: 49 

  ==> Convergence Check <==

  Measures of convergence in internal coordinates in au.
  Criteria marked as inactive (o), active & met (*), and active & unmet ( ).
  --------------------------------------------------------------------------------------------- ~
   Step     Total Energy     Delta E     MAX Force     RMS Force      MAX Disp      RMS Disp    ~
  --------------------------------------------------------------------------------------------- ~
    Convergence Criteria    1.00e-06 *    3.00e-04 *             o    1.20e-03 *             o  ~
  --------------------------------------------------------------------------------------------- ~
      1    -158.44790923   -1.58e+02      2.37e-02      9.61e-03 o    2.96e-02      1.25e-02 o  ~
  ---------------------------------------------------------------------------------------------

	Writing optimization data to binary file.
	Structure for next step:
	Cartesian Geometry (in Angstrom)
	    H    -2.2874456476   0.0895491069   0.2007476717
	    H    -2.1385752929   1.7346622305  -0.4286058216
	    H    -1.8415573591   0.3532164255  -1.4894727802
	    C    -1.7332478763   0.7289974157  -0.4778105919
	    H     0.3037735842   1.3834651048  -0.7641505100
	    H    -0.1426736084   1.1199091233   0.9297342112
	    C    -0.2422110914   0.7396322689  -0.0817325613
	    H    -0.3826320338  -1.3914051554   0.2357193258
	    H     0.5754107330  -0.9300287358  -1.1805322767
	    C     0.3465473409  -0.6857398583  -0.1484968790
	    H     2.0426986626  -1.7835115182   0.6402029413
	    H     1.4162697287  -0.5392502969   1.7275883007
	    H     2.3728876833  -0.0785688003   0.3141473243
	    C     1.6358062715  -0.7791588231   0.6926215374
			--------------------------
			 OPTKING Finished Execution 
			--------------------------

    Structure for next step:
    Molecular point group: c1
    Full point group: C1

    Geometry (in Angstrom), charge = 0, multiplicity = 1:

    H           -2.287449982394     0.089506385850     0.200716557766
    H           -2.138579627663     1.734619509390    -0.428636935539
    H           -1.841561693933     0.353173704471    -1.489503894057
    C           -1.733252211109     0.728954694646    -0.477841705825
    H            0.303769249352     1.383422383725    -0.764181623912
    H           -0.142677943158     1.119866402241     0.929703097327
    C           -0.242215426192     0.739589547854    -0.081763675232
    H           -0.382636368559    -1.391447876422     0.235688211896
    H            0.575406398165    -0.930071456895    -1.180563390637
    C            0.346543006050    -0.685782579369    -0.148527992846
    H            2.042694327757    -1.783554239254     0.640171827386
    H            1.416265393865    -0.539293017943     1.727557186773
    H            2.372883348480    -0.078611521374     0.314116210364
    C            1.635801936725    -0.779201544199     0.692590423527

gradient() will perform analytic gradient computation.

*** tstart() called on lski1497
*** at Tue Feb 21 18:03:12 2017


         ---------------------------------------------------------
                                   SCF
            by Justin Turney, Rob Parrish, and Andy Simmonett
                              RKS Reference
                        1 Threads,   1000 MiB Core
         ---------------------------------------------------------

  ==> Geometry <==

    Molecular point group: c1
    Full point group: C1

    Geometry (in Angstrom), charge = 0, multiplicity = 1:

       Center              X                  Y                   Z               Mass       
    ------------   -----------------  -----------------  -----------------  -----------------
           H         -2.287449982394     0.089506385850     0.200716557766     1.007825032070
           H         -2.138579627663     1.734619509390    -0.428636935539     1.007825032070
           H         -1.841561693933     0.353173704471    -1.489503894057     1.007825032070
           C         -1.733252211109     0.728954694646    -0.477841705825    12.000000000000
           H          0.303769249352     1.383422383725    -0.764181623912     1.007825032070
           H         -0.142677943158     1.119866402241     0.929703097327     1.007825032070
           C         -0.242215426192     0.739589547854    -0.081763675232    12.000000000000
           H         -0.382636368559    -1.391447876422     0.235688211896     1.007825032070
           H          0.575406398165    -0.930071456895    -1.180563390637     1.007825032070
           C          0.346543006050    -0.685782579369    -0.148527992846    12.000000000000
           H          2.042694327757    -1.783554239254     0.640171827386     1.007825032070
           H          1.416265393865    -0.539293017943     1.727557186773     1.007825032070
           H          2.372883348480    -0.078611521374     0.314116210364     1.007825032070
           C          1.635801936725    -0.779201544199     0.692590423527    12.000000000000

  Running in c1 symmetry.

  Rotational constants: A =      0.73840  B =      0.12319  C =      0.11615 [cm^-1]
  Rotational constants: A =  22136.59947  B =   3693.08585  C =   3482.23773 [MHz]
  Nuclear repulsion =  130.877815224677107

  Charge       = 0
  Multiplicity = 1
  Electrons    = 34
  Nalpha       = 17
  Nbeta        = 17

  ==> Algorithm <==

  SCF Algorithm Type is DF.
  DIIS enabled.
  MOM disabled.
  Fractional occupation disabled.
  Guess Type is READ.
  Energy threshold   = 1.00e-08
  Density threshold  = 1.00e-08
  Integral threshold = 0.00e+00

  ==> Primary Basis <==

  Basis Set: CC-PVDZ
    Number of shells: 54
    Number of basis function: 106
    Number of Cartesian functions: 110
    Spherical Harmonics?: true
    Max angular momentum: 2

  ==> DFT Potential <==

   => B3LYP Composite Functional <= 

    B3LYP Hybrid-GGA Exchange-Correlation Functional (VWN1-RPA)

    P.J. Stephens et. al., J. Phys. Chem., 98, 11623-11627, 1994

    Points   =           5000
    Deriv    =              1
    GGA      =           TRUE
    Meta     =          FALSE

    X_LRC        =          FALSE
    X_Hybrid     =           TRUE
    X_Alpha      =   2.000000E-01
    X_Omega      =   0.000000E+00
    C_LRC        =          FALSE
    C_Hybrid     =          FALSE
    C_Alpha      =   0.000000E+00
    C_Omega      =   0.000000E+00

   => Exchange Functionals <=

    0.8000    B3_X
    0.2000      HF 

   => Correlation Functionals <=

    0.1900 VWN3RPA_C
    0.8100   LYP_C

   => Molecular Quadrature <=

    Radial Scheme    =       TREUTLER
    Pruning Scheme   =           FLAT
    Nuclear Scheme   =       TREUTLER

    BS radius alpha  =              1
    Pruning alpha    =              1
    Radial Points    =             75
    Spherical Points =            302
    Total Points     =         312760
    Total Blocks     =            268
    Max Points       =           4995
    Max Functions    =            106

  ==> Pre-Iterations <==

   -------------------------------------------------------
    Irrep   Nso     Nmo     Nalpha   Nbeta   Ndocc  Nsocc
   -------------------------------------------------------
     A        106     106       0       0       0       0
   -------------------------------------------------------
    Total     106     106      17      17      17       0
   -------------------------------------------------------

  ==> Integral Setup <==

  ==> DFJK: Density-Fitted J/K Matrices <==

    J tasked:                  Yes
    K tasked:                  Yes
    wK tasked:                  No
    OpenMP threads:              1
    Integrals threads:           1
    Memory (MB):               715
    Algorithm:                Core
    Integral Cache:           NONE
    Schwarz Cutoff:          1E-12
    Fitting Condition:       1E-12

   => Auxiliary Basis Set <=

  Basis Set: 
    Number of shells: 186
    Number of basis function: 510
    Number of Cartesian functions: 574
    Spherical Harmonics?: true
    Max angular momentum: 3

  Minimum eigenvalue in the overlap matrix is 3.9496664344E-03.
  Using Symmetric Orthogonalization.
  SCF Guess was Projection but file not found.
  Switching over to SAD guess.

  SCF Guess: Superposition of Atomic Densities via on-the-fly atomic UHF.

  ==> Iterations <==

                           Total Energy        Delta E     RMS |[F,P]|

   @DF-RKS iter   0:  -158.99604893694917   -1.58996e+02   3.32751e-02 
   @DF-RKS iter   1:  -158.32556261026119    6.70486e-01   4.41290e-03 
   @DF-RKS iter   2:  -158.28830715465034    3.72555e-02   5.13953e-03 DIIS
   @DF-RKS iter   3:  -158.45303757805718   -1.64730e-01   3.47843e-04 DIIS
   @DF-RKS iter   4:  -158.45369370617468   -6.56128e-04   1.25406e-04 DIIS
   @DF-RKS iter   5:  -158.45377312350749   -7.94173e-05   4.41536e-05 DIIS
   @DF-RKS iter   6:  -158.45378397306814   -1.08496e-05   3.70640e-06 DIIS
   @DF-RKS iter   7:  -158.45378405407692   -8.10088e-08   7.23649e-07 DIIS
   @DF-RKS iter   8:  -158.45378405743190   -3.35498e-09   1.27858e-07 DIIS
   @DF-RKS iter   9:  -158.45378405753715   -1.05246e-10   3.11264e-08 DIIS
   @DF-RKS iter  10:  -158.45378405754386   -6.70752e-12   5.09483e-09 DIIS

  ==> Post-Iterations <==

    Orbital Energies (a.u.)
    -----------------------

    Doubly Occupied:                                                      

       1A    -10.174689     2A    -10.174505     3A    -10.169483  
       4A    -10.169442     5A     -0.791245     6A     -0.720983  
       7A     -0.627483     8A     -0.575425     9A     -0.469882  
      10A     -0.423333    11A     -0.419531    12A     -0.405860  
      13A     -0.365007    14A     -0.354333    15A     -0.328002  
      16A     -0.327752    17A     -0.313283  

    Virtual:                                                              

      18A      0.062097    19A      0.084349    20A      0.099683  
      21A      0.106221    22A      0.140316    23A      0.146404  
      24A      0.152436    25A      0.159252    26A      0.165767  
      27A      0.167485    28A      0.225965    29A      0.238600  
      30A      0.241702    31A      0.405680    32A      0.410785  
      33A      0.419542    34A      0.429686    35A      0.453942  
      36A      0.501663    37A      0.508244    38A      0.581350  
      39A      0.602505    40A      0.640104    41A      0.657445  
      42A      0.659303    43A      0.663384    44A      0.671893  
      45A      0.674617    46A      0.677382    47A      0.687621  
      48A      0.703954    49A      0.707408    50A      0.730654  
      51A      0.743222    52A      0.748523    53A      0.886834  
      54A      0.897043    55A      0.969264    56A      1.094656  
      57A      1.181855    58A      1.205151    59A      1.231306  
      60A      1.271188    61A      1.286623    62A      1.334324  
      63A      1.427165    64A      1.430276    65A      1.475587  
      66A      1.492362    67A      1.558357    68A      1.597203  
      69A      1.602100    70A      1.621909    71A      1.639944  
      72A      1.660178    73A      1.664644    74A      1.672732  
      75A      1.689321    76A      1.714685    77A      1.715477  
      78A      1.725239    79A      1.750007    80A      1.751466  
      81A      1.774441    82A      1.779374    83A      1.892712  
      84A      1.928905    85A      1.951467    86A      1.972050  
      87A      1.990325    88A      2.074150    89A      2.081801  
      90A      2.177578    91A      2.212375    92A      2.229137  
      93A      2.253249    94A      2.315058    95A      2.315189  
      96A      2.337088    97A      2.462050    98A      2.465206  
      99A      2.473613   100A      2.475493   101A      2.526844  
     102A      2.543846   103A      2.599667   104A      2.625577  
     105A      2.707698   106A      2.721701  

    Final Occupation by Irrep:
              A 
    DOCC [    17 ]

  Energy converged.

  @DF-RKS Final Energy:  -158.45378405754386

   => Energetics <=

    Nuclear Repulsion Energy =            130.8778152246771072
    One-Electron Energy =                -470.2111023893253900
    Two-Electron Energy =                 201.5110280595223458
    DFT Exchange-Correlation Energy =     -20.6315249524179443
    Empirical Dispersion Energy =           0.0000000000000000
    PCM Polarization Energy =               0.0000000000000000
    EFP Energy =                            0.0000000000000000
    Total Energy =                       -158.4537840575438565


  Saving occupied orbitals to File 180.

*** tstop() called on lski1497 at Tue Feb 21 18:05:12 2017
Module time:
	user time   =     104.97 seconds =       1.75 minutes
	system time =       1.25 seconds =       0.02 minutes
	total time  =        120 seconds =       2.00 minutes
Total time:
	user time   =     247.17 seconds =       4.12 minutes
	system time =       3.14 seconds =       0.05 minutes
	total time  =        288 seconds =       4.80 minutes


Properties will be evaluated at   0.000000,   0.000000,   0.000000 Bohr

Properties computed using the SCF density matrix

  Nuclear Dipole Moment: (a.u.)
     X:    -0.0768      Y:    -0.0397      Z:     0.1735

  Electronic Dipole Moment: (a.u.)
     X:     0.0822      Y:     0.0423      Z:    -0.1858

  Dipole Moment: (a.u.)
     X:     0.0054      Y:     0.0025      Z:    -0.0123     Total:     0.0137

  Dipole Moment: (Debye)
     X:     0.0138      Y:     0.0064      Z:    -0.0312     Total:     0.0348


*** tstart() called on lski1497
*** at Tue Feb 21 18:05:12 2017


         ------------------------------------------------------------
                                   SCF GRAD                          
                          Rob Parrish, Justin Turney,                
                       Andy Simmonett, and Alex Sokolov              
         ------------------------------------------------------------

  ==> Geometry <==

    Molecular point group: c1
    Full point group: C1

    Geometry (in Angstrom), charge = 0, multiplicity = 1:

       Center              X                  Y                   Z               Mass       
    ------------   -----------------  -----------------  -----------------  -----------------
           H         -2.287449982394     0.089506385850     0.200716557766     1.007825032070
           H         -2.138579627663     1.734619509390    -0.428636935539     1.007825032070
           H         -1.841561693933     0.353173704471    -1.489503894057     1.007825032070
           C         -1.733252211109     0.728954694646    -0.477841705825    12.000000000000
           H          0.303769249352     1.383422383725    -0.764181623912     1.007825032070
           H         -0.142677943158     1.119866402241     0.929703097327     1.007825032070
           C         -0.242215426192     0.739589547854    -0.081763675232    12.000000000000
           H         -0.382636368559    -1.391447876422     0.235688211896     1.007825032070
           H          0.575406398165    -0.930071456895    -1.180563390637     1.007825032070
           C          0.346543006050    -0.685782579369    -0.148527992846    12.000000000000
           H          2.042694327757    -1.783554239254     0.640171827386     1.007825032070
           H          1.416265393865    -0.539293017943     1.727557186773     1.007825032070
           H          2.372883348480    -0.078611521374     0.314116210364     1.007825032070
           C          1.635801936725    -0.779201544199     0.692590423527    12.000000000000

  Nuclear repulsion =  130.877815224677107

  ==> Basis Set <==

  Basis Set: CC-PVDZ
    Number of shells: 54
    Number of basis function: 106
    Number of Cartesian functions: 110
    Spherical Harmonics?: true
    Max angular momentum: 2

  ==> DFJKGrad: Density-Fitted SCF Gradients <==

    Gradient:                    1
    J tasked:                  Yes
    K tasked:                  Yes
    wK tasked:                  No
    OpenMP threads:              1
    Integrals threads:           1
    Memory (MB):               715
    Schwarz Cutoff:          0E+00
    Fitting Condition:       1E-12

   => Auxiliary Basis Set <=

  Basis Set: 
    Number of shells: 186
    Number of basis function: 510
    Number of Cartesian functions: 574
    Spherical Harmonics?: true
    Max angular momentum: 3

  ==> DFT Potential <==

   => B3LYP Composite Functional <= 

    B3LYP Hybrid-GGA Exchange-Correlation Functional (VWN1-RPA)

    P.J. Stephens et. al., J. Phys. Chem., 98, 11623-11627, 1994

    Points   =           5000
    Deriv    =              1
    GGA      =           TRUE
    Meta     =          FALSE

    X_LRC        =          FALSE
    X_Hybrid     =           TRUE
    X_Alpha      =   2.000000E-01
    X_Omega      =   0.000000E+00
    C_LRC        =          FALSE
    C_Hybrid     =          FALSE
    C_Alpha      =   0.000000E+00
    C_Omega      =   0.000000E+00

   => Exchange Functionals <=

    0.8000    B3_X
    0.2000      HF 

   => Correlation Functionals <=

    0.1900 VWN3RPA_C
    0.8100   LYP_C

   => Molecular Quadrature <=

    Radial Scheme    =       TREUTLER
    Pruning Scheme   =           FLAT
    Nuclear Scheme   =       TREUTLER

    BS radius alpha  =              1
    Pruning alpha    =              1
    Radial Points    =             75
    Spherical Points =            302
    Total Points     =         312760
    Total Blocks     =            268
    Max Points       =           4995
    Max Functions    =            106


  -Total Gradient:
     Atom            X                  Y                   Z
    ------   -----------------  -----------------  -----------------
       1        0.008296997508     0.006432311072    -0.005942732516
       2        0.007384247184    -0.009233793794     0.000740163347
       3        0.004142420125     0.004143568202     0.010894989733
       4       -0.020400985162    -0.006173761540    -0.005120298798
       5       -0.007687083446    -0.009551253834     0.003881070363
       6       -0.002358985036    -0.006459485958    -0.010501234925
       7        0.017661533973     0.022400502837     0.009650039210
       8        0.008188401548     0.009462825692    -0.002072878642
       9        0.000767526803     0.006025007554     0.011704477067
      10       -0.014862738229    -0.021111391685    -0.015679049391
      11       -0.007196815365     0.009705321276    -0.001394941360
      12       -0.000233350893    -0.002253008421    -0.011712993443
      13       -0.009748513734    -0.006919885552     0.001831109221
      14        0.016052763631     0.003535889897     0.013710476903


*** tstop() called on lski1497 at Tue Feb 21 18:05:57 2017
Module time:
	user time   =      37.68 seconds =       0.63 minutes
	system time =       0.60 seconds =       0.01 minutes
	total time  =         45 seconds =       0.75 minutes
Total time:
	user time   =     284.88 seconds =       4.75 minutes
	system time =       3.74 seconds =       0.06 minutes
	total time  =        333 seconds =       5.55 minutes

			-----------------------------------------
			 OPTKING 2.0: for geometry optimizations 
			  - R.A. King,  Bethel University        
			-----------------------------------------

	Previous internal coordinate definitions found.
	---Fragment 1 Geometry and Gradient---
	 H          -4.3226540094        0.1691425564        0.3792993245
	 H          -4.0413298097        3.2779558175       -0.8100064186
	 H          -3.4800472583        0.6674015788       -2.8147544336
	 C          -3.2753719982        1.3775247362       -0.9029899589
	 H           0.5740406889        2.6142894313       -1.4440939850
	 H          -0.2696222378        2.1162408057        1.7568842388
	 C          -0.4577208207        1.3976216962       -0.1545109538
	 H          -0.7230779451       -2.6294554146        0.4453861732
	 H           1.0873605076       -1.7575803375       -2.2309414908
	 C           0.6548713747       -1.2959412617       -0.2806772295
	 H           3.8601328527       -3.3704290553        1.2097494317
	 H           2.6763537259       -1.0191161093        3.2646099619
	 H           4.4840996739       -0.1485542463        0.5935936115
	 C           3.0912176681       -1.4724775209        1.3088062227
	             0.0082969975        0.0064323111       -0.0059427325
	             0.0073842472       -0.0092337938        0.0007401633
	             0.0041424201        0.0041435682        0.0108949897
	            -0.0204009852       -0.0061737615       -0.0051202988
	            -0.0076870834       -0.0095512538        0.0038810704
	            -0.0023589850       -0.0064594860       -0.0105012349
	             0.0176615340        0.0224005028        0.0096500392
	             0.0081884015        0.0094628257       -0.0020728786
	             0.0007675268        0.0060250076        0.0117044771
	            -0.0148627382       -0.0211113917       -0.0156790494
	            -0.0071968154        0.0097053213       -0.0013949414
	            -0.0002333509       -0.0022530084       -0.0117129934
	            -0.0097485137       -0.0069198856        0.0018311092
	             0.0160527636        0.0035358899        0.0137104769

	---Fragment 1 Intrafragment Coordinates---
	 - Coordinate -           - BOHR/RAD -       - ANG/DEG -
	 R(1,4)           =         2.049696	       1.084652
	 R(2,4)           =         2.051091	       1.085391
	 R(3,4)           =         2.049637	       1.084621
	 R(4,7)           =         2.915439	       1.542784
	 R(5,7)           =         2.051301	       1.085502
	 R(6,7)           =         2.050665	       1.085165
	 R(7,10)          =         2.917029	       1.543625
	 R(8,10)          =         2.050408	       1.085029
	 R(9,10)          =         2.050290	       1.084967
	 R(10,14)         =         2.914345	       1.542205
	 R(11,14)         =         2.050186	       1.084912
	 R(12,14)         =         2.050077	       1.084854
	 R(13,14)         =         2.050469	       1.085061
	 B(1,4,2)         =         1.903998	     109.091063
	 B(1,4,3)         =         1.905237	     109.162026
	 B(1,4,7)         =         1.914803	     109.710107
	 B(2,4,3)         =         1.902873	     109.026586
	 B(2,4,7)         =         1.920786	     110.052930
	 B(3,4,7)         =         1.915968	     109.776884
	 B(4,7,5)         =         1.905829	     109.195956
	 B(4,7,6)         =         1.907480	     109.290539
	 B(4,7,10)        =         1.929596	     110.557701
	 B(5,7,6)         =         1.909204	     109.389359
	 B(5,7,10)        =         1.905669	     109.186801
	 B(6,7,10)        =         1.905951	     109.202958
	 B(7,10,8)        =         1.905938	     109.202228
	 B(7,10,9)        =         1.906577	     109.238801
	 B(7,10,14)       =         1.929649	     110.560732
	 B(8,10,9)        =         1.909385	     109.399698
	 B(8,10,14)       =         1.906344	     109.225469
	 B(9,10,14)       =         1.905840	     109.196573
	 B(10,14,11)      =         1.921180	     110.075521
	 B(10,14,12)      =         1.915321	     109.739838
	 B(10,14,13)      =         1.916155	     109.787597
	 B(11,14,12)      =         1.903620	     109.069404
	 B(11,14,13)      =         1.902975	     109.032439
	 B(12,14,13)      =         1.904395	     109.113801
	 D(1,4,7,5)       =        -3.139190	    -179.862321
	 D(1,4,7,6)       =        -1.051364	     -60.238696
	 D(1,4,7,10)      =         1.047016	      59.989599
	 D(2,4,7,5)       =        -1.044084	     -59.821631
	 D(2,4,7,6)       =         1.043742	      59.801994
	 D(2,4,7,10)      =        -3.141064	    -179.969711
	 D(3,4,7,5)       =         1.050364	      60.181452
	 D(3,4,7,6)       =         3.138191	     179.805077
	 D(3,4,7,10)      =        -1.046615	     -59.966629
	 D(4,7,10,8)      =        -0.696004	     -39.878100
	 D(4,7,10,9)      =         1.391566	      79.730869
	 D(4,7,10,14)     =        -2.793920	    -160.079823
	 D(5,7,10,8)      =        -2.793079	    -160.031666
	 D(5,7,10,9)      =        -0.705509	     -40.422697
	 D(5,7,10,14)     =         1.392190	      79.766610
	 D(6,7,10,8)      =         1.403290	      80.402620
	 D(6,7,10,9)      =        -2.792325	    -159.988411
	 D(6,7,10,14)     =        -0.694625	     -39.799103
	 D(7,10,14,11)    =         3.141593	     180.000000
	 D(7,10,14,12)    =         1.046375	      59.952880
	 D(7,10,14,13)    =        -1.046659	     -59.969123
	 D(8,10,14,11)    =         1.043914	      59.811863
	 D(8,10,14,12)    =        -1.051298	     -60.234924
	 D(8,10,14,13)    =         3.138854	     179.843072
	 D(9,10,14,11)    =        -1.043458	     -59.785736
	 D(9,10,14,12)    =        -3.138670	    -179.832523
	 D(9,10,14,13)    =         1.051482	      60.245474

	Current energy   :      -158.4537840575

	Energy change for the previous step:
		Projected    :        -0.0076808609
		Actual       :        -0.0058748242

	Performing BFGS update.
	Previous computed or guess Hessian on step 1.
	Steps to be used in Hessian update: 1
	Adding user-defined constraint: Fragment 1; Coordinate 49:
		Value =    -2.793920; Fixed value    =    -2.792530
		Force =     0.000730; Force constant =     0.525000
	Removing off-diagonal coupling between coordinate 49 and others.
	Taking RFO optimization step.
	Going to follow RFO solution 1.
	Using RFO vector 1.

	Determining step-restricting scale parameter for RS-RFO.
	Maximum step size allowed    0.10000

	 Iter      |step|        alpha        rfo_root  
	------------------------------------------------
	    0     0.21473       1.00000           1
	    1     0.16298       5.24207           1
	    2     0.12710      14.73947           1
	    3     0.10786      26.57402           1
	    4     0.10096      33.21907           1
	    5     0.10002      34.26314           1
	    6     0.10000      34.28230           1
	------------------------------------------------
	Norm of target step-size    0.10000
	Projected energy change by RFO approximation:        -0.0046706429

	Back-transformation to cartesian coordinates...
	Successfully converged to displaced geometry.

	--- Internal Coordinate Step in ANG or DEG, aJ/ANG or AJ/DEG ---
	 ---------------------------------------------------------------------------
	   Coordinate                Previous        Force       Change         New 
	   ----------                --------       ------       ------       ------
	    1 R(1,4)          =      1.084652     0.096790     0.012243     1.096895
	    2 R(2,4)          =      1.085391     0.092931     0.011496     1.096887
	    3 R(3,4)          =      1.084621     0.098962     0.012473     1.097094
	    4 R(4,7)          =      1.542784    -0.003670    -0.002759     1.540025
	    5 R(5,7)          =      1.085502     0.098636     0.012476     1.097978
	    6 R(6,7)          =      1.085165     0.101068     0.012873     1.098038
	    7 R(7,10)         =      1.543625     0.008988    -0.000235     1.543391
	    8 R(8,10)         =      1.085029     0.102083     0.012981     1.098010
	    9 R(9,10)         =      1.084967     0.101575     0.012804     1.097771
	   10 R(10,14)        =      1.542205    -0.001159    -0.002370     1.539834
	   11 R(11,14)        =      1.084912     0.095706     0.011806     1.096718
	   12 R(12,14)        =      1.084854     0.095770     0.012127     1.096981
	   13 R(13,14)        =      1.085061     0.096634     0.012210     1.097271
	   14 B(1,4,2)        =    109.091063    -0.000242    -0.653600   108.437463
	   15 B(1,4,3)        =    109.162026    -0.000228    -0.691731   108.470295
	   16 B(1,4,7)        =    109.710107     0.000188     0.568871   110.278978
	   17 B(2,4,3)        =    109.026586    -0.000254    -0.683845   108.342741
	   18 B(2,4,7)        =    110.052930     0.000313     0.774358   110.827288
	   19 B(3,4,7)        =    109.776884     0.000214     0.634925   110.411808
	   20 B(4,7,5)        =    109.195956    -0.000121    -0.133719   109.062237
	   21 B(4,7,6)        =    109.290539    -0.000126    -0.220290   109.070248
	   22 B(4,7,10)       =    110.557701     0.000567     1.283431   111.841132
	   23 B(5,7,6)        =    109.389359    -0.000063    -0.556162   108.833197
	   24 B(5,7,10)       =    109.186801    -0.000129    -0.185792   109.001008
	   25 B(6,7,10)       =    109.202958    -0.000133    -0.218290   108.984668
	   26 B(7,10,8)       =    109.202228    -0.000134    -0.220823   108.981405
	   27 B(7,10,9)       =    109.238801    -0.000133    -0.201806   109.036995
	   28 B(7,10,14)      =    110.560732     0.000567     1.281631   111.842363
	   29 B(8,10,9)       =    109.399698    -0.000064    -0.559213   108.840485
	   30 B(8,10,14)      =    109.225469    -0.000121    -0.200373   109.025096
	   31 B(9,10,14)      =    109.196573    -0.000120    -0.130178   109.066395
	   32 B(10,14,11)     =    110.075521     0.000311     0.766193   110.841714
	   33 B(10,14,12)     =    109.739838     0.000183     0.552840   110.292678
	   34 B(10,14,13)     =    109.787597     0.000215     0.635051   110.422648
	   35 B(11,14,12)     =    109.069404    -0.000239    -0.643175   108.426229
	   36 B(11,14,13)     =    109.032439    -0.000255    -0.685160   108.347279
	   37 B(12,14,13)     =    109.113801    -0.000225    -0.677378   108.436423
	   38 D(1,4,7,5)      =   -179.862321     0.000024     0.450425  -179.411895
	   39 D(1,4,7,6)      =    -60.238696    -0.000027    -0.433593   -60.672289
	   40 D(1,4,7,10)     =     59.989599    -0.000002    -0.039239    59.950360
	   41 D(2,4,7,5)      =    -59.821631     0.000028     0.495748   -59.325883
	   42 D(2,4,7,6)      =     59.801994    -0.000024    -0.388270    59.413724
	   43 D(2,4,7,10)     =   -179.969711     0.000001     0.006084  -179.963628
	   44 D(3,4,7,5)      =     60.181452     0.000032     0.547066    60.728518
	   45 D(3,4,7,6)      =    179.805077    -0.000020    -0.336952   179.468124
	   46 D(3,4,7,10)     =    -59.966629     0.000005     0.057402   -59.909227
	   47 D(4,7,10,8)     =    -39.878100     0.000017     0.273236   -39.604863
	   48 D(4,7,10,9)     =     79.730869    -0.000037    -0.653781    79.077088
	   49 D(4,7,10,14)    =   -160.079823    -0.000010    -0.139580  -160.219404
	   50 D(5,7,10,8)     =   -160.031666    -0.000010    -0.246576  -160.278242
	   51 D(5,7,10,9)     =    -40.422697    -0.000065    -1.173593   -41.596290
	   52 D(5,7,10,14)    =     79.766610    -0.000037    -0.659392    79.107218
	   53 D(6,7,10,8)     =     80.402620     0.000043     0.664975    81.067596
	   54 D(6,7,10,9)     =   -159.988411    -0.000012    -0.262042  -160.250453
	   55 D(6,7,10,14)    =    -39.799103     0.000016     0.252158   -39.546945
	   56 D(7,10,14,11)   =    180.000000     0.000002     0.015410   180.015410
	   57 D(7,10,14,12)   =     59.952880    -0.000002    -0.027737    59.925144
	   58 D(7,10,14,13)   =    -59.969123     0.000005     0.061101   -59.908022
	   59 D(8,10,14,11)   =     59.811863    -0.000024    -0.385552    59.426310
	   60 D(8,10,14,12)   =    -60.234924    -0.000027    -0.429032   -60.663956
	   61 D(8,10,14,13)   =    179.843072    -0.000020    -0.340194   179.502879
	   62 D(9,10,14,11)   =    -59.785736     0.000027     0.487551   -59.298185
	   63 D(9,10,14,12)   =   -179.832523     0.000024     0.444072  -179.388451
	   64 D(9,10,14,13)   =     60.245474     0.000031     0.532910    60.778383
	 ---------------------------------------------------------------------------
	 Forces used to impose fixed constraints are not included.
	  Forces zeroed: 49 

  ==> Convergence Check <==

  Measures of convergence in internal coordinates in au.
  Criteria marked as inactive (o), active & met (*), and active & unmet ( ).
  ---------------------------------------------------------------------------------------------
   Step     Total Energy     Delta E     MAX Force     RMS Force      MAX Disp      RMS Disp   
  ---------------------------------------------------------------------------------------------
    Convergence Criteria    1.00e-06 *    3.00e-04 *             o    1.20e-03 *             o
  ---------------------------------------------------------------------------------------------
      2    -158.45378406   -5.87e-03      1.24e-02      5.20e-03 o    2.45e-02      1.25e-02 o  ~
  ---------------------------------------------------------------------------------------------

	Writing optimization data to binary file.
	Structure for next step:
	Cartesian Geometry (in Angstrom)
	    H    -2.3166292337   0.0856726958   0.1950018213
	    H    -2.1631710683   1.7399027497  -0.4432502055
	    H    -1.8644916398   0.3459122332  -1.5070985279
	    C    -1.7436292323   0.7273038690  -0.4855561412
	    H     0.2961299072   1.3892228060  -0.7735950008
	    H    -0.1596525916   1.1276233150   0.9332897146
	    C    -0.2560379436   0.7338634753  -0.0871765747
	    H    -0.3728546826  -1.4026651768   0.2470294042
	    H     0.5881786021  -0.9331015424  -1.1830608810
	    C     0.3586738007  -0.6808574918  -0.1396047478
	    H     2.0709605161  -1.7873069443   0.6474193770
	    H     1.4394009335  -0.5384769297   1.7466281524
	    H     2.3998188671  -0.0694319071   0.3231458568
	    C     1.6482941728  -0.7764907592   0.6963520496
			--------------------------
			 OPTKING Finished Execution 
			--------------------------

    Structure for next step:
    Molecular point group: c1
    Full point group: C1

    Geometry (in Angstrom), charge = 0, multiplicity = 1:

    H           -2.316709385946     0.085623681044     0.195085564108
    H           -2.163251220490     1.739853734922    -0.443166462638
    H           -1.864571792051     0.345863218444    -1.507014785079
    C           -1.743709384465     0.727254854202    -0.485472398312
    H            0.296049754970     1.389173791201    -0.773511257999
    H           -0.159732743847     1.127574300231     0.933373457463
    C           -0.256118095779     0.733814460577    -0.087092831831
    H           -0.372934834846    -1.402714191591     0.247113147070
    H            0.588098449876    -0.933150557153    -1.182977138174
    C            0.358593648453    -0.680906506574    -0.139521004999
    H            2.070880363882    -1.787355959084     0.647503119850
    H            1.439320781336    -0.538525944458     1.746711895254
    H            2.399738714887    -0.069480921843     0.323229599632
    C            1.648214020593    -0.776539773941     0.696435792488

gradient() will perform analytic gradient computation.

*** tstart() called on lski1497
*** at Tue Feb 21 18:05:58 2017


         ---------------------------------------------------------
                                   SCF
            by Justin Turney, Rob Parrish, and Andy Simmonett
                              RKS Reference
                        1 Threads,   1000 MiB Core
         ---------------------------------------------------------

  ==> Geometry <==

    Molecular point group: c1
    Full point group: C1

    Geometry (in Angstrom), charge = 0, multiplicity = 1:

       Center              X                  Y                   Z               Mass       
    ------------   -----------------  -----------------  -----------------  -----------------
           H         -2.316709385946     0.085623681044     0.195085564108     1.007825032070
           H         -2.163251220490     1.739853734922    -0.443166462638     1.007825032070
           H         -1.864571792051     0.345863218444    -1.507014785079     1.007825032070
           C         -1.743709384465     0.727254854202    -0.485472398312    12.000000000000
           H          0.296049754970     1.389173791201    -0.773511257999     1.007825032070
           H         -0.159732743847     1.127574300231     0.933373457463     1.007825032070
           C         -0.256118095779     0.733814460577    -0.087092831831    12.000000000000
           H         -0.372934834846    -1.402714191591     0.247113147070     1.007825032070
           H          0.588098449876    -0.933150557153    -1.182977138174     1.007825032070
           C          0.358593648453    -0.680906506574    -0.139521004999    12.000000000000
           H          2.070880363882    -1.787355959084     0.647503119850     1.007825032070
           H          1.439320781336    -0.538525944458     1.746711895254     1.007825032070
           H          2.399738714887    -0.069480921843     0.323229599632     1.007825032070
           C          1.648214020593    -0.776539773941     0.696435792488    12.000000000000

  Running in c1 symmetry.

  Rotational constants: A =      0.74080  B =      0.12137  C =      0.11471 [cm^-1]
  Rotational constants: A =  22208.53482  B =   3638.64338  C =   3438.78839 [MHz]
  Nuclear repulsion =  130.150211078044350

  Charge       = 0
  Multiplicity = 1
  Electrons    = 34
  Nalpha       = 17
  Nbeta        = 17

  ==> Algorithm <==

  SCF Algorithm Type is DF.
  DIIS enabled.
  MOM disabled.
  Fractional occupation disabled.
  Guess Type is READ.
  Energy threshold   = 1.00e-08
  Density threshold  = 1.00e-08
  Integral threshold = 0.00e+00

  ==> Primary Basis <==

  Basis Set: CC-PVDZ
    Number of shells: 54
    Number of basis function: 106
    Number of Cartesian functions: 110
    Spherical Harmonics?: true
    Max angular momentum: 2

  ==> DFT Potential <==

   => B3LYP Composite Functional <= 

    B3LYP Hybrid-GGA Exchange-Correlation Functional (VWN1-RPA)

    P.J. Stephens et. al., J. Phys. Chem., 98, 11623-11627, 1994

    Points   =           5000
    Deriv    =              1
    GGA      =           TRUE
    Meta     =          FALSE

    X_LRC        =          FALSE
    X_Hybrid     =           TRUE
    X_Alpha      =   2.000000E-01
    X_Omega      =   0.000000E+00
    C_LRC        =          FALSE
    C_Hybrid     =          FALSE
    C_Alpha      =   0.000000E+00
    C_Omega      =   0.000000E+00

   => Exchange Functionals <=

    0.8000    B3_X
    0.2000      HF 

   => Correlation Functionals <=

    0.1900 VWN3RPA_C
    0.8100   LYP_C

   => Molecular Quadrature <=

    Radial Scheme    =       TREUTLER
    Pruning Scheme   =           FLAT
    Nuclear Scheme   =       TREUTLER

    BS radius alpha  =              1
    Pruning alpha    =              1
    Radial Points    =             75
    Spherical Points =            302
    Total Points     =         312772
    Total Blocks     =            267
    Max Points       =           4955
    Max Functions    =            106

  ==> Pre-Iterations <==

   -------------------------------------------------------
    Irrep   Nso     Nmo     Nalpha   Nbeta   Ndocc  Nsocc
   -------------------------------------------------------
     A        106     106       0       0       0       0
   -------------------------------------------------------
    Total     106     106      17      17      17       0
   -------------------------------------------------------

  ==> Integral Setup <==

  ==> DFJK: Density-Fitted J/K Matrices <==

    J tasked:                  Yes
    K tasked:                  Yes
    wK tasked:                  No
    OpenMP threads:              1
    Integrals threads:           1
    Memory (MB):               715
    Algorithm:                Core
    Integral Cache:           NONE
    Schwarz Cutoff:          1E-12
    Fitting Condition:       1E-12

   => Auxiliary Basis Set <=

  Basis Set: 
    Number of shells: 186
    Number of basis function: 510
    Number of Cartesian functions: 574
    Spherical Harmonics?: true
    Max angular momentum: 3

  Minimum eigenvalue in the overlap matrix is 3.9768143639E-03.
  Using Symmetric Orthogonalization.
  SCF Guess was Projection but file not found.
  Switching over to SAD guess.

  SCF Guess: Superposition of Atomic Densities via on-the-fly atomic UHF.

  ==> Iterations <==

                           Total Energy        Delta E     RMS |[F,P]|

   @DF-RKS iter   0:  -158.95290721369756   -1.58953e+02   3.27510e-02 
   @DF-RKS iter   1:  -158.33314538834031    6.19762e-01   4.31503e-03 
   @DF-RKS iter   2:  -158.29334996842812    3.97954e-02   5.08798e-03 DIIS
   @DF-RKS iter   3:  -158.45577967934233   -1.62430e-01   3.44970e-04 DIIS
   @DF-RKS iter   4:  -158.45643431117651   -6.54632e-04   1.21474e-04 DIIS
   @DF-RKS iter   5:  -158.45650819773795   -7.38866e-05   4.48840e-05 DIIS
   @DF-RKS iter   6:  -158.45651943494448   -1.12372e-05   3.72163e-06 DIIS
   @DF-RKS iter   7:  -158.45651951694791   -8.20034e-08   7.12845e-07 DIIS
   @DF-RKS iter   8:  -158.45651952022351   -3.27560e-09   1.30006e-07 DIIS
   @DF-RKS iter   9:  -158.45651952033370   -1.10191e-10   3.15677e-08 DIIS
   @DF-RKS iter  10:  -158.45651952034055   -6.84963e-12   5.07152e-09 DIIS

  ==> Post-Iterations <==

    Orbital Energies (a.u.)
    -----------------------

    Doubly Occupied:                                                      

       1A    -10.178404     2A    -10.178244     3A    -10.173774  
       4A    -10.173756     5A     -0.789607     6A     -0.719701  
       7A     -0.626268     8A     -0.572089     9A     -0.466907  
      10A     -0.421413    11A     -0.418512    12A     -0.404840  
      13A     -0.363992    14A     -0.352155    15A     -0.327071  
      16A     -0.324449    17A     -0.316981  

    Virtual:                                                              

      18A      0.060883    19A      0.082262    20A      0.097366  
      21A      0.104031    22A      0.138482    23A      0.142369  
      24A      0.150509    25A      0.155242    26A      0.161699  
      27A      0.164772    28A      0.224536    29A      0.239234  
      30A      0.244132    31A      0.405464    32A      0.407246  
      33A      0.417061    34A      0.425272    35A      0.453514  
      36A      0.504414    37A      0.507966    38A      0.579863  
      39A      0.600795    40A      0.633762    41A      0.650321  
      42A      0.652504    43A      0.657327    44A      0.663342  
      45A      0.669323    46A      0.672536    47A      0.681594  
      48A      0.699939    49A      0.702724    50A      0.726727  
      51A      0.735921    52A      0.744377    53A      0.889108  
      54A      0.893344    55A      0.966584    56A      1.087907  
      57A      1.182248    58A      1.201142    59A      1.227730  
      60A      1.266063    61A      1.275646    62A      1.329664  
      63A      1.422292    64A      1.425419    65A      1.463537  
      66A      1.491927    67A      1.557581    68A      1.588193  
      69A      1.596143    70A      1.614934    71A      1.635472  
      72A      1.653706    73A      1.654555    74A      1.660095  
      75A      1.680658    76A      1.702344    77A      1.707859  
      78A      1.718334    79A      1.739514    80A      1.750438  
      81A      1.762738    82A      1.770434    83A      1.888132  
      84A      1.910374    85A      1.934485    86A      1.963319  
      87A      1.990115    88A      2.074189    89A      2.077934  
      90A      2.156534    91A      2.190506    92A      2.215687  
      93A      2.232074    94A      2.287281    95A      2.297231  
      96A      2.313066    97A      2.427068    98A      2.430240  
      99A      2.452831   100A      2.457715   101A      2.507818  
     102A      2.513769   103A      2.595055   104A      2.600727  
     105A      2.689319   106A      2.703422  

    Final Occupation by Irrep:
              A 
    DOCC [    17 ]

  Energy converged.

  @DF-RKS Final Energy:  -158.45651952034055

   => Energetics <=

    Nuclear Repulsion Energy =            130.1502110780443502
    One-Electron Energy =                -468.7898817822667752
    Two-Electron Energy =                 200.7796202876111238
    DFT Exchange-Correlation Energy =     -20.5964691037292198
    Empirical Dispersion Energy =           0.0000000000000000
    PCM Polarization Energy =               0.0000000000000000
    EFP Energy =                            0.0000000000000000
    Total Energy =                       -158.4565195203405494


  Saving occupied orbitals to File 180.

*** tstop() called on lski1497 at Tue Feb 21 18:07:57 2017
Module time:
	user time   =     105.37 seconds =       1.76 minutes
	system time =       1.30 seconds =       0.02 minutes
	total time  =        119 seconds =       1.98 minutes
Total time:
	user time   =     390.93 seconds =       6.52 minutes
	system time =       5.07 seconds =       0.08 minutes
	total time  =        453 seconds =       7.55 minutes


Properties will be evaluated at   0.000000,   0.000000,   0.000000 Bohr

Properties computed using the SCF density matrix

  Nuclear Dipole Moment: (a.u.)
     X:    -0.0779      Y:    -0.0404      Z:     0.1747

  Electronic Dipole Moment: (a.u.)
     X:     0.0827      Y:     0.0429      Z:    -0.1855

  Dipole Moment: (a.u.)
     X:     0.0048      Y:     0.0024      Z:    -0.0108     Total:     0.0120

  Dipole Moment: (Debye)
     X:     0.0122      Y:     0.0061      Z:    -0.0274     Total:     0.0306


*** tstart() called on lski1497
*** at Tue Feb 21 18:07:57 2017


         ------------------------------------------------------------
                                   SCF GRAD                          
                          Rob Parrish, Justin Turney,                
                       Andy Simmonett, and Alex Sokolov              
         ------------------------------------------------------------

  ==> Geometry <==

    Molecular point group: c1
    Full point group: C1

    Geometry (in Angstrom), charge = 0, multiplicity = 1:

       Center              X                  Y                   Z               Mass       
    ------------   -----------------  -----------------  -----------------  -----------------
           H         -2.316709385946     0.085623681044     0.195085564108     1.007825032070
           H         -2.163251220490     1.739853734922    -0.443166462638     1.007825032070
           H         -1.864571792051     0.345863218444    -1.507014785079     1.007825032070
           C         -1.743709384465     0.727254854202    -0.485472398312    12.000000000000
           H          0.296049754970     1.389173791201    -0.773511257999     1.007825032070
           H         -0.159732743847     1.127574300231     0.933373457463     1.007825032070
           C         -0.256118095779     0.733814460577    -0.087092831831    12.000000000000
           H         -0.372934834846    -1.402714191591     0.247113147070     1.007825032070
           H          0.588098449876    -0.933150557153    -1.182977138174     1.007825032070
           C          0.358593648453    -0.680906506574    -0.139521004999    12.000000000000
           H          2.070880363882    -1.787355959084     0.647503119850     1.007825032070
           H          1.439320781336    -0.538525944458     1.746711895254     1.007825032070
           H          2.399738714887    -0.069480921843     0.323229599632     1.007825032070
           C          1.648214020593    -0.776539773941     0.696435792488    12.000000000000

  Nuclear repulsion =  130.150211078044350

  ==> Basis Set <==

  Basis Set: CC-PVDZ
    Number of shells: 54
    Number of basis function: 106
    Number of Cartesian functions: 110
    Spherical Harmonics?: true
    Max angular momentum: 2

  ==> DFJKGrad: Density-Fitted SCF Gradients <==

    Gradient:                    1
    J tasked:                  Yes
    K tasked:                  Yes
    wK tasked:                  No
    OpenMP threads:              1
    Integrals threads:           1
    Memory (MB):               715
    Schwarz Cutoff:          0E+00
    Fitting Condition:       1E-12

   => Auxiliary Basis Set <=

  Basis Set: 
    Number of shells: 186
    Number of basis function: 510
    Number of Cartesian functions: 574
    Spherical Harmonics?: true
    Max angular momentum: 3

  ==> DFT Potential <==

   => B3LYP Composite Functional <= 

    B3LYP Hybrid-GGA Exchange-Correlation Functional (VWN1-RPA)

    P.J. Stephens et. al., J. Phys. Chem., 98, 11623-11627, 1994

    Points   =           5000
    Deriv    =              1
    GGA      =           TRUE
    Meta     =          FALSE

    X_LRC        =          FALSE
    X_Hybrid     =           TRUE
    X_Alpha      =   2.000000E-01
    X_Omega      =   0.000000E+00
    C_LRC        =          FALSE
    C_Hybrid     =          FALSE
    C_Alpha      =   0.000000E+00
    C_Omega      =   0.000000E+00

   => Exchange Functionals <=

    0.8000    B3_X
    0.2000      HF 

   => Correlation Functionals <=

    0.1900 VWN3RPA_C
    0.8100   LYP_C

   => Molecular Quadrature <=

    Radial Scheme    =       TREUTLER
    Pruning Scheme   =           FLAT
    Nuclear Scheme   =       TREUTLER

    BS radius alpha  =              1
    Pruning alpha    =              1
    Radial Points    =             75
    Spherical Points =            302
    Total Points     =         312772
    Total Blocks     =            267
    Max Points       =           4955
[...]
    Spherical Harmonics?: true
    Max angular momentum: 2

  ==> DFJKGrad: Density-Fitted SCF Gradients <==

    Gradient:                    1
    J tasked:                  Yes
    K tasked:                  Yes
    wK tasked:                  No
    OpenMP threads:              1
    Integrals threads:           1
    Memory (MB):               715
    Schwarz Cutoff:          0E+00
    Fitting Condition:       1E-12

   => Auxiliary Basis Set <=

  Basis Set: 
    Number of shells: 186
    Number of basis function: 510
    Number of Cartesian functions: 574
    Spherical Harmonics?: true
    Max angular momentum: 3

  ==> DFT Potential <==

   => B3LYP Composite Functional <= 

    B3LYP Hybrid-GGA Exchange-Correlation Functional (VWN1-RPA)

    P.J. Stephens et. al., J. Phys. Chem., 98, 11623-11627, 1994

    Points   =           5000
    Deriv    =              1
    GGA      =           TRUE
    Meta     =          FALSE

    X_LRC        =          FALSE
    X_Hybrid     =           TRUE
    X_Alpha      =   2.000000E-01
    X_Omega      =   0.000000E+00
    C_LRC        =          FALSE
    C_Hybrid     =          FALSE
    C_Alpha      =   0.000000E+00
    C_Omega      =   0.000000E+00

   => Exchange Functionals <=

    0.8000    B3_X
    0.2000      HF 

   => Correlation Functionals <=

    0.1900 VWN3RPA_C
    0.8100   LYP_C

   => Molecular Quadrature <=

    Radial Scheme    =       TREUTLER
    Pruning Scheme   =           FLAT
    Nuclear Scheme   =       TREUTLER

    BS radius alpha  =              1
    Pruning alpha    =              1
    Radial Points    =             75
    Spherical Points =            302
    Total Points     =         312790
    Total Blocks     =            267
    Max Points       =           4842
    Max Functions    =            106


  -Total Gradient:
     Atom            X                  Y                   Z
    ------   -----------------  -----------------  -----------------
       1       -0.000010472530    -0.000001152686     0.000010167245
       2       -0.000007123746     0.000013290645    -0.000001490199
       3       -0.000010051662    -0.000005092723    -0.000008070887
       4       -0.000606582691    -0.000358531115     0.002389597984
       5       -0.000006554130    -0.000002578138    -0.000021500927
       6        0.000009307739    -0.000010843640    -0.000019224021
       7        0.000333168389     0.000280177903    -0.002507143776
       8        0.000005726092     0.000018750971    -0.000013967645
       9        0.000019453573     0.000008804353    -0.000007846889
      10        0.001622436621     0.000731087843    -0.001819425221
      11        0.000008151014    -0.000013444373    -0.000000825755
      12       -0.000000692805    -0.000004552706     0.000013461277
      13        0.000010906207     0.000005341061     0.000004330557
      14       -0.001365180474    -0.000659967778     0.001976424311


*** tstop() called on lski1497 at Tue Feb 21 18:22:04 2017
Module time:
	user time   =      39.36 seconds =       0.66 minutes
	system time =       0.62 seconds =       0.01 minutes
	total time  =         45 seconds =       0.75 minutes
Total time:
	user time   =    1151.67 seconds =      19.19 minutes
	system time =      15.50 seconds =       0.26 minutes
	total time  =       1300 seconds =      21.67 minutes

			-----------------------------------------
			 OPTKING 2.0: for geometry optimizations 
			  - R.A. King,  Bethel University        
			-----------------------------------------

	Previous internal coordinate definitions found.
	---Fragment 1 Geometry and Gradient---
	 H          -4.4304311838        0.2002624992        0.3697239900
	 H          -4.0991663259        3.3028389939       -0.8907808874
	 H          -3.5769618724        0.6233710828       -2.8528112704
	 C          -3.3016707998        1.3789994944       -0.9277999769
	 H           0.5724450518        2.6707188674       -1.3982981132
	 H          -0.3363789611        2.1351727858        1.7625893068
	 C          -0.5090984414        1.3684934041       -0.1747411406
	 H          -0.6800699557       -2.6606913221        0.4868690738
	 H           1.0651303381       -1.8240652230       -2.2257525285
	 C           0.6989320135       -1.2703457730       -0.2453678063
	 H           3.9628298586       -3.3733293790        1.1924803120
	 H           2.7612674158       -1.0632248308        3.3242093613
	 H           4.5692793881       -0.1103494180        0.6567585445
	 C           3.1279671522       -1.4688077140        1.3122161461
	            -0.0000104725       -0.0000011527        0.0000101672
	            -0.0000071237        0.0000132906       -0.0000014902
	            -0.0000100517       -0.0000050927       -0.0000080709
	            -0.0006065827       -0.0003585311        0.0023895980
	            -0.0000065541       -0.0000025781       -0.0000215009
	             0.0000093077       -0.0000108436       -0.0000192240
	             0.0003331684        0.0002801779       -0.0025071438
	             0.0000057261        0.0000187510       -0.0000139676
	             0.0000194536        0.0000088044       -0.0000078469
	             0.0016224366        0.0007310878       -0.0018194252
	             0.0000081510       -0.0000134444       -0.0000008258
	            -0.0000006928       -0.0000045527        0.0000134613
	             0.0000109062        0.0000053411        0.0000043306
	            -0.0013651805       -0.0006599678        0.0019764243

	---Fragment 1 Intrafragment Coordinates---
	 - Coordinate -           - BOHR/RAD -       - ANG/DEG -
	 R(1,4)           =         2.084967	       1.103317
	 R(2,4)           =         2.082913	       1.102230
	 R(3,4)           =         2.086247	       1.103995
	 R(4,7)           =         2.892347	       1.530564
	 R(5,7)           =         2.088688	       1.105286
	 R(6,7)           =         2.090665	       1.106332
	 R(7,10)          =         2.903067	       1.536237
	 R(8,10)          =         2.090664	       1.106332
	 R(9,10)          =         2.088691	       1.105288
	 R(10,14)         =         2.892346	       1.530564
	 R(11,14)         =         2.082915	       1.102231
	 R(12,14)         =         2.084966	       1.103316
	 R(13,14)         =         2.086244	       1.103993
	 B(1,4,2)         =         1.879509	     107.687945
	 B(1,4,3)         =         1.873416	     107.338838
	 B(1,4,7)         =         1.937587	     111.015570
	 B(2,4,3)         =         1.875920	     107.482274
	 B(2,4,7)         =         1.948078	     111.616668
	 B(3,4,7)         =         1.945856	     111.489334
	 B(4,7,5)         =         1.923208	     110.191690
	 B(4,7,6)         =         1.896209	     108.644766
	 B(4,7,10)        =         1.980934	     113.499135
	 B(5,7,6)         =         1.845669	     105.749037
	 B(5,7,10)        =         1.914521	     109.693966
	 B(6,7,10)        =         1.898114	     108.753940
	 B(7,10,8)        =         1.898112	     108.753802
	 B(7,10,9)        =         1.914523	     109.694070
	 B(7,10,14)       =         1.980934	     113.499139
	 B(8,10,9)        =         1.845668	     105.748970
	 B(8,10,14)       =         1.896208	     108.644694
	 B(9,10,14)       =         1.923211	     110.191846
	 B(10,14,11)      =         1.948076	     111.616538
	 B(10,14,12)      =         1.937584	     111.015383
	 B(10,14,13)      =         1.945854	     111.489241
	 B(11,14,12)      =         1.879511	     107.688037
	 B(11,14,13)      =         1.875922	     107.482385
	 B(12,14,13)      =         1.873420	     107.339074
	 D(1,4,7,5)       =        -3.065577	    -175.644644
	 D(1,4,7,6)       =        -1.051062	     -60.221397
	 D(1,4,7,10)      =         1.062727	      60.889765
	 D(2,4,7,5)       =        -0.968477	     -55.489630
	 D(2,4,7,6)       =         1.046039	      59.933618
	 D(2,4,7,10)      =        -3.123358	    -178.955220
	 D(3,4,7,5)       =         1.129716	      64.727976
	 D(3,4,7,6)       =        -3.138953	    -179.848777
	 D(3,4,7,10)      =        -1.025165	     -58.737615
	 D(4,7,10,8)      =        -0.686915	     -39.357310
	 D(4,7,10,9)      =         1.323925	      75.855338
	 D(4,7,10,14)     =        -2.799630	    -160.406983
	 D(5,7,10,8)      =        -2.846540	    -163.094703
	 D(5,7,10,9)      =        -0.835700	     -47.882055
	 D(5,7,10,14)     =         1.323930	      75.855625
	 D(6,7,10,8)      =         1.425804	      81.692549
	 D(6,7,10,9)      =        -2.846541	    -163.094804
	 D(6,7,10,14)     =        -0.686911	     -39.357124
	 D(7,10,14,11)    =        -3.123373	    -178.956119
	 D(7,10,14,12)    =         1.062713	      60.888966
	 D(7,10,14,13)    =        -1.025181	     -58.738525
	 D(8,10,14,11)    =         1.046027	      59.932942
	 D(8,10,14,12)    =        -1.051072	     -60.221973
	 D(8,10,14,13)    =        -3.138965	    -179.849464
	 D(9,10,14,11)    =        -0.968488	     -55.490269
	 D(9,10,14,12)    =        -3.065587	    -175.645184
	 D(9,10,14,13)    =         1.129705	      64.727325

	Current energy   :      -158.4576500788

	Energy change for the previous step:
		Projected    :        -0.0000002968
		Actual       :         0.0000005015

	Performing BFGS update.
	Previous computed or guess Hessian on step 1.
	Steps to be used in Hessian update: 7 6
	Adding user-defined constraint: Fragment 1; Coordinate 49:
		Value =    -2.799630; Fixed value    =    -2.792530
		Force =     0.004792; Force constant =     0.675000
	Removing off-diagonal coupling between coordinate 49 and others.
	Taking RFO optimization step.
	Going to follow RFO solution 1.
	Rejecting RFO root 1 because normalization gives large value.
	Using RFO vector 2.
	Norm of target step-size    0.00178
	Projected energy change by RFO approximation:         0.0000001815

	Back-transformation to cartesian coordinates...
	Successfully converged to displaced geometry.

	--- Internal Coordinate Step in ANG or DEG, aJ/ANG or AJ/DEG ---
	 ---------------------------------------------------------------------------
	   Coordinate                Previous        Force       Change         New 
	   ----------                --------       ------       ------       ------
	    1 R(1,4)          =      1.103317    -0.000111    -0.000023     1.103295
	    2 R(2,4)          =      1.102230    -0.000118    -0.000022     1.102208
	    3 R(3,4)          =      1.103995    -0.000090    -0.000017     1.103978
	    4 R(4,7)          =      1.530564     0.000079     0.000032     1.530596
	    5 R(5,7)          =      1.105286    -0.000058    -0.000012     1.105275
	    6 R(6,7)          =      1.106332     0.000172     0.000036     1.106368
	    7 R(7,10)         =      1.536237    -0.000335    -0.000079     1.536157
	    8 R(8,10)         =      1.106332     0.000173     0.000036     1.106368
	    9 R(9,10)         =      1.105288    -0.000066    -0.000013     1.105275
	   10 R(10,14)        =      1.530564     0.000081     0.000032     1.530596
	   11 R(11,14)        =      1.102231    -0.000123    -0.000023     1.102208
	   12 R(12,14)        =      1.103316    -0.000107    -0.000022     1.103295
	   13 R(13,14)        =      1.103993    -0.000082    -0.000015     1.103978
	   14 B(1,4,2)        =    107.687945     0.000000     0.004049   107.691994
	   15 B(1,4,3)        =    107.338838     0.000000     0.002113   107.340951
	   16 B(1,4,7)        =    111.015570    -0.000000    -0.001057   111.014513
	   17 B(2,4,3)        =    107.482274     0.000000     0.001581   107.483855
	   18 B(2,4,7)        =    111.616668    -0.000000    -0.000167   111.616502
	   19 B(3,4,7)        =    111.489334    -0.000001    -0.006038   111.483296
	   20 B(4,7,5)        =    110.191690     0.000005     0.015059   110.206749
	   21 B(4,7,6)        =    108.644766    -0.000004    -0.012249   108.632517
	   22 B(4,7,10)       =    113.499135    -0.000001    -0.004127   113.495007
	   23 B(5,7,6)        =    105.749037    -0.000000    -0.003383   105.745654
	   24 B(5,7,10)       =    109.693966     0.000000     0.000362   109.694327
	   25 B(6,7,10)       =    108.753940     0.000001     0.004080   108.758020
	   26 B(7,10,8)       =    108.753802     0.000001     0.004271   108.758073
	   27 B(7,10,9)       =    109.694070     0.000000     0.000174   109.694244
	   28 B(7,10,14)      =    113.499139    -0.000001    -0.004094   113.495046
	   29 B(8,10,9)       =    105.748970    -0.000000    -0.003335   105.745635
	   30 B(8,10,14)      =    108.644694    -0.000004    -0.012141   108.632553
	   31 B(9,10,14)      =    110.191846     0.000005     0.014877   110.206723
	   32 B(10,14,11)     =    111.616538    -0.000000    -0.000054   111.616484
	   33 B(10,14,12)     =    111.015383    -0.000000    -0.000896   111.014486
	   34 B(10,14,13)     =    111.489241    -0.000001    -0.005900   111.483342
	   35 B(11,14,12)     =    107.688037     0.000000     0.003949   107.691986
	   36 B(11,14,13)     =    107.482385     0.000000     0.001472   107.483857
	   37 B(12,14,13)     =    107.339074     0.000000     0.001882   107.340956
	   38 D(1,4,7,5)      =   -175.644644     0.000000    -0.014761  -175.659405
	   39 D(1,4,7,6)      =    -60.221397     0.000000    -0.017511   -60.238908
	   40 D(1,4,7,10)     =     60.889765    -0.000001    -0.023740    60.866025
	   41 D(2,4,7,5)      =    -55.489630     0.000000    -0.010453   -55.500083
	   42 D(2,4,7,6)      =     59.933618     0.000000    -0.013203    59.920415
	   43 D(2,4,7,10)     =   -178.955220    -0.000001    -0.019432  -178.974652
	   44 D(3,4,7,5)      =     64.727976     0.000000    -0.012703    64.715273
	   45 D(3,4,7,6)      =   -179.848777     0.000000    -0.015454  -179.864230
	   46 D(3,4,7,10)     =    -58.737615    -0.000001    -0.021682   -58.759297
	   47 D(4,7,10,8)     =    -39.357310     0.000001    -0.013060   -39.370370
	   48 D(4,7,10,9)     =     75.855338     0.000001    -0.014572    75.840765
	   49 D(4,7,10,14)    =   -160.406983     0.000003     0.002055  -160.404927
	   50 D(5,7,10,8)     =   -163.094703    -0.000000    -0.030046  -163.124748
	   51 D(5,7,10,9)     =    -47.882055    -0.000000    -0.031558   -47.913613
	   52 D(5,7,10,14)    =     75.855625     0.000001    -0.014930    75.840695
	   53 D(6,7,10,8)     =     81.692549    -0.000000    -0.028472    81.664077
	   54 D(6,7,10,9)     =   -163.094804    -0.000000    -0.029984  -163.124787
	   55 D(6,7,10,14)    =    -39.357124     0.000001    -0.013356   -39.370479
	   56 D(7,10,14,11)   =   -178.956119    -0.000001    -0.017970  -178.974088
	   57 D(7,10,14,12)   =     60.888966    -0.000001    -0.022337    60.866630
	   58 D(7,10,14,13)   =    -58.738525    -0.000001    -0.020186   -58.758711
	   59 D(8,10,14,11)   =     59.932942     0.000000    -0.012083    59.920859
	   60 D(8,10,14,12)   =    -60.221973     0.000000    -0.016450   -60.238423
	   61 D(8,10,14,13)   =   -179.849464     0.000000    -0.014300  -179.863764
	   62 D(9,10,14,11)   =    -55.490269     0.000000    -0.009352   -55.499621
	   63 D(9,10,14,12)   =   -175.645184     0.000000    -0.013719  -175.658903
	   64 D(9,10,14,13)   =     64.727325     0.000000    -0.011568    64.715756
	 ---------------------------------------------------------------------------
	 Forces used to impose fixed constraints are not included.
	  Forces zeroed: 49 

  ==> Convergence Check <==

  Measures of convergence in internal coordinates in au.
  Criteria marked as inactive (o), active & met (*), and active & unmet ( ).
  ---------------------------------------------------------------------------------------------
   Step     Total Energy     Delta E     MAX Force     RMS Force      MAX Disp      RMS Disp   
  ---------------------------------------------------------------------------------------------
    Convergence Criteria    1.00e-06 *    3.00e-04 *             o    1.20e-03 *             o
  ---------------------------------------------------------------------------------------------
      8    -158.45765008    5.01e-07 *    6.64e-05 *    2.68e-05 o    5.51e-04 *    2.22e-04 o  ~
  ---------------------------------------------------------------------------------------------


  **** Optimization is complete! (in 8 steps) ****

  ==> Optimization Summary <==

  Measures of convergence in internal coordinates in au.
  --------------------------------------------------------------------------------------------------------------- ~
   Step         Total Energy             Delta E       MAX Force       RMS Force        MAX Disp        RMS Disp  ~
  --------------------------------------------------------------------------------------------------------------- ~
      1    -158.447909233306   -158.447909233306      0.02369377      0.00961261      0.02956718      0.01250341  ~
      2    -158.453784057544     -0.005874824238      0.01239061      0.00520315      0.02453056      0.01252273  ~
      3    -158.456519520341     -0.002735462797      0.00403890      0.00196087      0.04097242      0.01251025  ~
      4    -158.457375091848     -0.000855571508      0.00164127      0.00062690      0.04716364      0.01252188  ~
      5    -158.457617966685     -0.000242874837      0.00069806      0.00018262      0.02661978      0.01200316  ~
      6    -158.457652282568     -0.000034315883      0.00014168      0.00004308      0.00348046      0.00158709  ~
      7    -158.457650580313      0.000001702255      0.00008065      0.00002099      0.00167501      0.00081700  ~
      8    -158.457650078834      0.000000501479      0.00014425      0.00003230      0.00055078      0.00022241  ~
  --------------------------------------------------------------------------------------------------------------- ~

	Writing optimization data to binary file.
	Final energy is   -158.4576500788339
	Final (previous) structure:
	Cartesian Geometry (in Angstrom)
	    H    -2.3444832067   0.1059743503   0.1956495090
	    H    -2.1691853939   1.7477871192  -0.4713809435
	    H    -1.8928466989   0.3298737695  -1.5096427047
	    C    -1.7471689375   0.7297351031  -0.4909706019
	    H     0.3029248746   1.4132835552  -0.7399474923
	    H    -0.1780040797   1.1298847747   0.9327220893
	    C    -0.2694032921   0.7241755195  -0.0924690290
	    H    -0.3598775208  -1.4079772067   0.2576400174
	    H     0.5636426991  -0.9652537430  -1.1778175101
	    C     0.3698588919  -0.6722380301  -0.1298430508
	    H     2.0970392427  -1.7850890244   0.6310334028
	    H     1.4611997833  -0.5626343481   1.7590958306
	    H     2.4179585119  -0.0583943970   0.3475416533
	    C     1.6552489262  -0.7772595661   0.6943948773
	Saving final (previous) structure.
			--------------------------
			 OPTKING Finished Execution 
			--------------------------

    Final optimized geometry and variables:
    Molecular point group: c1
    Full point group: C1

    Geometry (in Angstrom), charge = 0, multiplicity = 1:

    H           -2.344483206684     0.105974350293     0.195649508979
    H           -2.169185393885     1.747787119189    -0.471380943466
    H           -1.892846698889     0.329873769509    -1.509642704680
    C           -1.747168937532     0.729735103105    -0.490970601920
    H            0.302924874606     1.413283555198    -0.739947492295
    H           -0.178004079654     1.129884774667     0.932722089258
    C           -0.269403292142     0.724175519541    -0.092469029009
    H           -0.359877520778    -1.407977206733     0.257640017398
    H            0.563642699075    -0.965253742989    -1.177817510063
    C            0.369858891873    -0.672238030098    -0.129843050801
    H            2.097039242680    -1.785089024428     0.631033402792
    H            1.461199783259    -0.562634348077     1.759095830567
    H            2.417958511875    -0.058394396980     0.347541653276
    C            1.655248926167    -0.777259566062     0.694394877282

	Cleaning optimization helper files.

*** Psi4 exiting successfully. Buy a developer a beer!
