    -----------------------------------------------------------------------
          Psi4: An Open-Source Ab Initio Electronic Structure Package
                              Psi4 1.0.0 Driver

                          Git: Rev {master} 6a9a71b 

    J. M. Turney, A. C. Simmonett, R. M. Parrish, E. G. Hohenstein,
    F. A. Evangelista, J. T. Fermann, B. J. Mintz, L. A. Burns, J. J. Wilke,
    M. L. Abrams, N. J. Russ, M. L. Leininger, C. L. Janssen, E. T. Seidl,
    W. D. Allen, H. F. Schaefer, R. A. King, E. F. Valeev, C. D. Sherrill,
    and T. D. Crawford, WIREs Comput. Mol. Sci. 2, 556-565 (2012)
    (doi: 10.1002/wcms.93)

                         Additional Contributions by
    A. E. DePrince, U. Bozkaya, A. Yu. Sokolov, D. G. A. Smith, R. Di Remigio,
    R. M. Richard, J. F. Gonthier, H. R. McAlexander, M. Saitow, and
    B. P. Pritchard
    -----------------------------------------------------------------------


    Psi4 started on: Thu Feb 16 16:40:21 2017

    Process ID:   2394
    PSI4DATADIR: /Users/sternc1/anaconda/share/psi4
    Memory level set to 256.000 MB

  ==> Input File <==

--------------------------------------------------------------------------

memory 1000 mb

molecule butane {
  symmetry C1
  0 1 
  H      1.604   0.760   -8.260
  H      1.745   2.388   -8.880
  H      2.043   1.024   -9.930
  C      2.142   1.395   -8.932
  H      4.169   2.051   -9.210
  H      3.731   1.788   -7.539
  C      3.631   1.416   -8.537
  H      5.095   -0.070   -8.025
  H      3.482   -0.705   -8.233
  C      4.203   -0.012   -8.612
  H      4.926   -1.351   -10.128
  H      5.249   0.334   -10.456
  H      3.636   -0.302   -10.664
  C      4.528   -0.359   -10.076
  units Angstrom
}

dih_string = "4 7 10 14 80"
set optking fixed_dihedral = $dih_string

optimize('MP2/6-31G(d)')
--------------------------------------------------------------------------

  Memory set to 1000.000 MiB by Python script.
gradient() will perform analytic gradient computation.
    SCF Algorithm Type (re)set to DF.

*** tstart() called on lski1497
*** at Thu Feb 16 16:40:23 2017


         ---------------------------------------------------------
                                   SCF
            by Justin Turney, Rob Parrish, and Andy Simmonett
                              RHF Reference
                        1 Threads,   1000 MiB Core
         ---------------------------------------------------------

  ==> Geometry <==

    Molecular point group: c1
    Full point group: C1

    Geometry (in Angstrom), charge = 0, multiplicity = 1:

       Center              X                  Y                   Z               Mass       
    ------------   -----------------  -----------------  -----------------  -----------------
           H         -2.011935328365     0.153175577430     0.795431562585     1.007825032070
           H         -1.870935328365     1.781175577430     0.175431562585     1.007825032070
           H         -1.572935328365     0.417175577430    -0.874568437415     1.007825032070
           C         -1.473935328365     0.788175577430     0.123431562585    12.000000000000
           H          0.553064671635     1.444175577430    -0.154568437415     1.007825032070
           H          0.115064671635     1.181175577430     1.516431562585     1.007825032070
           C          0.015064671635     0.809175577430     0.518431562585    12.000000000000
           H          1.479064671635    -0.676824422570     1.030431562585     1.007825032070
           H         -0.133935328365    -1.311824422570     0.822431562585     1.007825032070
           C          0.587064671635    -0.618824422570     0.443431562585    12.000000000000
           H          1.310064671635    -1.957824422570    -1.072568437415     1.007825032070
           H          1.633064671635    -0.272824422570    -1.400568437415     1.007825032070
           H          0.020064671635    -0.908824422570    -1.608568437415     1.007825032070
           C          0.912064671635    -0.965824422570    -1.020568437415    12.000000000000

  Running in c1 symmetry.

  Rotational constants: A =      0.45823  B =      0.15810  C =      0.14033 [cm^-1]
  Rotational constants: A =  13737.46994  B =   4739.76824  C =   4207.11630 [MHz]
  Nuclear repulsion =  133.865212518042711

  Charge       = 0
  Multiplicity = 1
  Electrons    = 34
  Nalpha       = 17
  Nbeta        = 17

  ==> Algorithm <==

  SCF Algorithm Type is DF.
  DIIS enabled.
  MOM disabled.
  Fractional occupation disabled.
  Guess Type is SAD.
  Energy threshold   = 1.00e-10
  Density threshold  = 1.00e-10
  Integral threshold = 0.00e+00

  ==> Primary Basis <==

  Basis Set: 6-31G(D)
    Number of shells: 44
    Number of basis function: 80
    Number of Cartesian functions: 80
    Spherical Harmonics?: false
    Max angular momentum: 2

  ==> Pre-Iterations <==

   -------------------------------------------------------
    Irrep   Nso     Nmo     Nalpha   Nbeta   Ndocc  Nsocc
   -------------------------------------------------------
     A         80      80       0       0       0       0
   -------------------------------------------------------
    Total      80      80      17      17      17       0
   -------------------------------------------------------

  ==> Integral Setup <==

  ==> DFJK: Density-Fitted J/K Matrices <==

    J tasked:                  Yes
    K tasked:                  Yes
    wK tasked:                  No
    OpenMP threads:              1
    Integrals threads:           1
    Memory (MB):               715
    Algorithm:                Core
    Integral Cache:           NONE
    Schwarz Cutoff:          1E-12
    Fitting Condition:       1E-12

   => Auxiliary Basis Set <=

  Basis Set: 
    Number of shells: 186
    Number of basis function: 574
    Number of Cartesian functions: 574
    Spherical Harmonics?: false
    Max angular momentum: 3

  Minimum eigenvalue in the overlap matrix is 5.3143606559E-03.
  Using Symmetric Orthogonalization.
  SCF Guess: Superposition of Atomic Densities via on-the-fly atomic UHF.

  ==> Iterations <==

                           Total Energy        Delta E     RMS |[F,P]|

   @DF-RHF iter   0:  -158.99401183481962   -1.58994e+02   4.75200e-02 
   @DF-RHF iter   1:  -157.20178984296933    1.79222e+00   3.98693e-03 
   @DF-RHF iter   2:  -157.28314889849474   -8.13591e-02   1.08643e-03 DIIS
   @DF-RHF iter   3:  -157.29086431919296   -7.71542e-03   2.47038e-04 DIIS
   @DF-RHF iter   4:  -157.29121935845154   -3.55039e-04   7.79391e-05 DIIS
   @DF-RHF iter   5:  -157.29125345428781   -3.40958e-05   1.31859e-05 DIIS
   @DF-RHF iter   6:  -157.29125476730911   -1.31302e-06   1.86988e-06 DIIS
   @DF-RHF iter   7:  -157.29125478736211   -2.00530e-08   5.91763e-07 DIIS
   @DF-RHF iter   8:  -157.29125478897168   -1.60958e-09   1.19421e-07 DIIS
   @DF-RHF iter   9:  -157.29125478906911   -9.74296e-11   2.88831e-08 DIIS
   @DF-RHF iter  10:  -157.29125478907628   -7.16227e-12   5.33288e-09 DIIS
   @DF-RHF iter  11:  -157.29125478907622    5.68434e-14   1.11059e-09 DIIS
   @DF-RHF iter  12:  -157.29125478907650   -2.84217e-13   3.47364e-10 DIIS
   @DF-RHF iter  13:  -157.29125478907633    1.70530e-13   7.20197e-11 DIIS

  ==> Post-Iterations <==

    Orbital Energies (a.u.)
    -----------------------

    Doubly Occupied:                                                      

       1A    -11.207470     2A    -11.206858     3A    -11.200741  
       4A    -11.200638     5A     -1.072951     6A     -0.976750  
       7A     -0.872155     8A     -0.786992     9A     -0.630346  
      10A     -0.624498    11A     -0.580497    12A     -0.539451  
      13A     -0.528660    14A     -0.506618    15A     -0.473560  
      16A     -0.457694    17A     -0.448119  

    Virtual:                                                              

      18A      0.234967    19A      0.280364    20A      0.281378  
      21A      0.298541    22A      0.316227    23A      0.319542  
      24A      0.346000    25A      0.354690    26A      0.355839  
      27A      0.393894    28A      0.410407    29A      0.435743  
      30A      0.453142    31A      0.713376    32A      0.720921  
      33A      0.730461    34A      0.745189    35A      0.763767  
      36A      0.831714    37A      0.864893    38A      0.931468  
      39A      0.950300    40A      1.000553    41A      1.085719  
      42A      1.116217    43A      1.174717    44A      1.177397  
      45A      1.200528    46A      1.207651    47A      1.211452  
      48A      1.235353    49A      1.253884    50A      1.264058  
      51A      1.266893    52A      1.292965    53A      1.311416  
      54A      1.524633    55A      1.709113    56A      1.718989  
      57A      1.862991    58A      1.865871    59A      2.003875  
      60A      2.077332    61A      2.192760    62A      2.250059  
      63A      2.292539    64A      2.293816    65A      2.382062  
      66A      2.472260    67A      2.472768    68A      2.616655  
      69A      2.658059    70A      2.676102    71A      2.718132  
      72A      2.780801    73A      2.809498    74A      2.906015  
      75A      2.974392    76A      3.086867    77A      4.577057  
      78A      4.688996    79A      4.842332    80A      4.949564  

    Final Occupation by Irrep:
              A 
    DOCC [    17 ]

  Energy converged.

  @DF-RHF Final Energy:  -157.29125478907633

   => Energetics <=

    Nuclear Repulsion Energy =            133.8652125180427106
    One-Electron Energy =                -475.6849449858392518
    Two-Electron Energy =                 184.5284776787202077
    DFT Exchange-Correlation Energy =       0.0000000000000000
    Empirical Dispersion Energy =           0.0000000000000000
    PCM Polarization Energy =               0.0000000000000000
    EFP Energy =                            0.0000000000000000
    Total Energy =                       -157.2912547890763335


  Saving occupied orbitals to File 180.

*** tstop() called on lski1497 at Thu Feb 16 16:40:29 2017
Module time:
	user time   =       5.03 seconds =       0.08 minutes
	system time =       0.16 seconds =       0.00 minutes
	total time  =          6 seconds =       0.10 minutes
Total time:
	user time   =       5.03 seconds =       0.08 minutes
	system time =       0.16 seconds =       0.00 minutes
	total time  =          6 seconds =       0.10 minutes


Properties will be evaluated at   0.000000,   0.000000,   0.000000 Bohr

Properties computed using the SCF density matrix

  Nuclear Dipole Moment: (a.u.)
     X:    -0.4494      Y:    -0.1418      Z:    -0.7225

  Electronic Dipole Moment: (a.u.)
     X:     0.4692      Y:     0.1475      Z:     0.7539

  Dipole Moment: (a.u.)
     X:     0.0198      Y:     0.0057      Z:     0.0314     Total:     0.0376

  Dipole Moment: (Debye)
     X:     0.0503      Y:     0.0144      Z:     0.0798     Total:     0.0955


  //>>>>>>>>>>>>>>>>>>>>>>>>>>>>>>>>>>>//
  //               DFMP2               //
  //<<<<<<<<<<<<<<<<<<<<<<<<<<<<<<<<<<<//


*** tstart() called on lski1497
*** at Thu Feb 16 16:40:29 2017


*** tstop() called on lski1497 at Thu Feb 16 16:40:30 2017
Module time:
	user time   =       0.53 seconds =       0.01 minutes
	system time =       0.00 seconds =       0.00 minutes
	total time  =          1 seconds =       0.02 minutes
Total time:
	user time   =       5.58 seconds =       0.09 minutes
	system time =       0.16 seconds =       0.00 minutes
	total time  =          7 seconds =       0.12 minutes
	 --------------------------------------------------------
	                          DF-MP2                         
	      2nd-Order Density-Fitted Moller-Plesset Theory     
	              RMP2 Wavefunction,   1 Threads             
	                                                         
	        Rob Parrish, Justin Turney, Andy Simmonett,      
	           Ed Hohenstein, and C. David Sherrill          
	 --------------------------------------------------------

   => Auxiliary Basis Set <=

  Basis Set: 
    Number of shells: 132
    Number of basis function: 364
    Number of Cartesian functions: 414
    Spherical Harmonics?: true
    Max angular momentum: 3

	 --------------------------------------------------------
	                 NBF =    80, NAUX =   364
	 --------------------------------------------------------
	   CLASS    FOCC     OCC    AOCC    AVIR     VIR    FVIR
	   PAIRS       0      17      17      63      63       0
	 --------------------------------------------------------

DGAS Warning! /src/lib/libfock/apps.cc:80 is not currently checking restricted

         ------------------------------------------------------------
                                     CPHF                           
                                  Rob Parrish                       
         ------------------------------------------------------------

  ==> Geometry <==

    Molecular point group: c1
    Full point group: C1

    Geometry (in Angstrom), charge = 0, multiplicity = 1:

       Center              X                  Y                   Z               Mass       
    ------------   -----------------  -----------------  -----------------  -----------------
           H         -2.011935328365     0.153175577430     0.795431562585     1.007825032070
           H         -1.870935328365     1.781175577430     0.175431562585     1.007825032070
           H         -1.572935328365     0.417175577430    -0.874568437415     1.007825032070
           C         -1.473935328365     0.788175577430     0.123431562585    12.000000000000
           H          0.553064671635     1.444175577430    -0.154568437415     1.007825032070
           H          0.115064671635     1.181175577430     1.516431562585     1.007825032070
           C          0.015064671635     0.809175577430     0.518431562585    12.000000000000
           H          1.479064671635    -0.676824422570     1.030431562585     1.007825032070
           H         -0.133935328365    -1.311824422570     0.822431562585     1.007825032070
           C          0.587064671635    -0.618824422570     0.443431562585    12.000000000000
           H          1.310064671635    -1.957824422570    -1.072568437415     1.007825032070
           H          1.633064671635    -0.272824422570    -1.400568437415     1.007825032070
           H          0.020064671635    -0.908824422570    -1.608568437415     1.007825032070
           C          0.912064671635    -0.965824422570    -1.020568437415    12.000000000000

  Nuclear repulsion =  133.865212518042711
  Reference energy  = -157.291254789076334

  ==> Basis Set <==

  Basis Set: 6-31G(D)
    Number of shells: 44
    Number of basis function: 80
    Number of Cartesian functions: 80
    Spherical Harmonics?: false
    Max angular momentum: 2

  ==> CGRSolver (by Rob Parrish) <==

   Number of roots    =         1
   Preconditioning    =    JACOBI
   Convergence cutoff =     1E-06
   Maximum iterations =       100

  ==> CPHFRHamiltonian (by Rob Parrish) <== 

  ==> DFJK: Density-Fitted J/K Matrices <==

    J tasked:                  Yes
    K tasked:                  Yes
    wK tasked:                  No
    OpenMP threads:              1
    Integrals threads:           1
    Memory (MB):               715
    Algorithm:                Core
    Integral Cache:           NONE
    Schwarz Cutoff:          1E-12
    Fitting Condition:       1E-12

   => Auxiliary Basis Set <=

  Basis Set: 
    Number of shells: 186
    Number of basis function: 574
    Number of Cartesian functions: 574
    Spherical Harmonics?: false
    Max angular momentum: 3

  ==> CPHF Iterations <==

  => Iterations <=

             Iter  Converged  Remaining    Residual
  CGR           1          0          1   7.440E-02
  CGR           2          0          1   8.604E-03
  CGR           3          0          1   2.383E-03
  CGR           4          0          1   4.348E-04
  CGR           5          0          1   7.976E-05
  CGR           6          0          1   1.543E-05
  CGR           7          0          1   2.284E-06
  CGR           8          1          0   4.761E-07

    CGRSolver converged.

  ==> DFCorrGrad: Density-Fitted Correlated Gradients <==

    OpenMP threads:              1
    Integrals threads:           1
    Memory (MB):               715
    Schwarz Cutoff:          0E+00
    Fitting Condition:       1E-12

   => Auxiliary Basis Set <=

  Basis Set: 
    Number of shells: 186
    Number of basis function: 510
    Number of Cartesian functions: 574
    Spherical Harmonics?: true
    Max angular momentum: 3

	-----------------------------------------------------------
	 ==================> DF-MP2 Energies <==================== 
	-----------------------------------------------------------
	 Reference Energy          =    -157.2912547890763335 [Eh]
	 Singles Energy            =      -0.0000000000000000 [Eh]
	 Same-Spin Energy          =      -0.1246874400873834 [Eh]
	 Opposite-Spin Energy      =      -0.4205078531209626 [Eh]
	 Correlation Energy        =      -0.5451952932083459 [Eh]
	 Total Energy              =    -157.8364500822846708 [Eh]
	-----------------------------------------------------------
	 ================> DF-SCS-MP2 Energies <================== 
	-----------------------------------------------------------
	 SCS Same-Spin Scale       =       0.3333333333333333 [-]
	 SCS Opposite-Spin Scale   =       1.2000000000000000 [-]
	 SCS Same-Spin Energy      =      -0.0415624800291278 [Eh]
	 SCS Opposite-Spin Energy  =      -0.5046094237451551 [Eh]
	 SCS Correlation Energy    =      -0.5461719037742828 [Eh]
	 SCS Total Energy          =    -157.8374266928506131 [Eh]
	-----------------------------------------------------------


  -Total Gradient:
     Atom            X                  Y                   Z
    ------   -----------------  -----------------  -----------------
       1        0.010475504864     0.009012116341    -0.009301496627
       2        0.010060590516    -0.013584958140     0.000887729075
       3        0.005535921049     0.004780559912     0.014827753014
       4       -0.027461989763    -0.007292982461    -0.007170301910
       5       -0.010456691567    -0.012052551768     0.007603338848
       6       -0.001835902088    -0.009335027560    -0.015483271430
       7        0.021219397897     0.029925175001     0.003567667570
       8       -0.014566774116     0.004146554962    -0.010551139270
       9        0.009798621358     0.012096945914    -0.009653947204
      10       -0.001396389317    -0.024193145574     0.028128256098
      11       -0.006243211450     0.015267215794     0.005411181323
      12       -0.011301823639    -0.009294956857     0.007822726189
      13        0.011008780244     0.000636439747     0.011760293479
      14        0.005163966013    -0.000111385311    -0.027848789155


			-----------------------------------------
			 OPTKING 2.0: for geometry optimizations 
			  - R.A. King,  Bethel University        
			-----------------------------------------

	Internal coordinates to be generated automatically.
	Detected frag 1 with atoms:  1 2 3 4 5 6 7 8 9 10 11 12 13 14
	---Fragment 1 Bond Connectivity---
	 1 : 4
	 2 : 4
	 3 : 4
	 4 : 1 2 3 7
	 5 : 7
	 6 : 7
	 7 : 4 5 6 10
	 8 : 10
	 9 : 10
	 10 : 7 8 9 14
	 11 : 14
	 12 : 14
	 13 : 14
	 14 : 10 11 12 13

	Assuming in current code that numbering for constraints corresponds to unified fragment.
	Fixed dihedral atom list: 
	     4     7    10    14
	---Fragment 1 Geometry and Gradient---
	 H          -3.8020067677        0.2894598916        1.5031478107
	 H          -3.5355553830        3.3659340359        0.3315176084
	 H          -2.9724169954        0.7883475907       -1.6526948312
	 C          -2.7853341082        1.4894359860        0.2332518494
	 H           1.0451407632        2.7290963291       -0.2920920155
	 H           0.2174407170        2.2320983562        2.8656403525
	 C           0.0284681037        1.5291202348        0.9796936719
	 H           2.7950271622       -1.2790127987        1.9472334520
	 H          -0.2531010901       -2.4789888931        1.5541704163
	 C           1.1093914517       -1.1694086830        0.8379642120
	 H           2.4756634458       -3.6997519749       -2.0268606055
	 H           3.0860449867       -0.5155634410       -2.6466907771
	 H           0.0379167343       -1.7174292615       -3.0397538127
	 C           1.7235524449       -1.8251436511       -1.9285948466
	             0.0104755049        0.0090121163       -0.0093014966
	             0.0100605905       -0.0135849581        0.0008877291
	             0.0055359210        0.0047805599        0.0148277530
	            -0.0274619898       -0.0072929825       -0.0071703019
	            -0.0104566916       -0.0120525518        0.0076033388
	            -0.0018359021       -0.0093350276       -0.0154832714
	             0.0212193979        0.0299251750        0.0035676676
	            -0.0145667741        0.0041465550       -0.0105511393
	             0.0097986214        0.0120969459       -0.0096539472
	            -0.0013963893       -0.0241931456        0.0281282561
	            -0.0062432114        0.0152672158        0.0054111813
	            -0.0113018236       -0.0092949569        0.0078227262
	             0.0110087802        0.0006364397        0.0117602935
	             0.0051639660       -0.0001113853       -0.0278487892

	Previous optimization step data not found.  Starting new optimization.

	---Fragment 1 Intrafragment Coordinates---
	 - Coordinate -           - BOHR/RAD -       - ANG/DEG -
	 R(1,4)           =         2.021436	       1.069698
	 R(2,4)           =         2.023298	       1.070683
	 R(3,4)           =         2.020723	       1.069320
	 R(4,7)           =         2.911397	       1.540645
	 R(5,7)           =         2.022623	       1.070326
	 R(6,7)           =         2.021555	       1.069761
	 R(7,10)          =         2.910419	       1.540128
	 R(8,10)          =         2.020856	       1.069391
	 R(9,10)          =         2.020974	       1.069454
	 R(10,14)         =         2.908785	       1.539263
	 R(11,14)         =         2.022247	       1.070127
	 R(12,14)         =         2.021645	       1.069808
	 R(13,14)         =         2.021792	       1.069886
	 B(1,4,2)         =         1.910870	     109.484805
	 B(1,4,3)         =         1.911121	     109.499161
	 B(1,4,7)         =         1.910399	     109.457783
	 B(2,4,3)         =         1.910042	     109.437340
	 B(2,4,7)         =         1.910564	     109.467262
	 B(3,4,7)         =         1.910803	     109.480971
	 B(4,7,5)         =         1.909937	     109.431343
	 B(4,7,6)         =         1.911630	     109.528316
	 B(4,7,10)        =         1.911154	     109.501062
	 B(5,7,6)         =         1.910605	     109.469614
	 B(5,7,10)        =         1.910047	     109.437654
	 B(6,7,10)        =         1.910425	     109.459295
	 B(7,10,8)        =         1.910648	     109.472088
	 B(7,10,9)        =         1.910463	     109.461456
	 B(7,10,14)       =         1.911079	     109.496745
	 B(8,10,9)        =         1.909932	     109.431036
	 B(8,10,14)       =         1.911053	     109.495248
	 B(9,10,14)       =         1.910625	     109.470727
	 B(10,14,11)      =         1.911041	     109.494578
	 B(10,14,12)      =         1.911450	     109.518044
	 B(10,14,13)      =         1.912055	     109.552703
	 B(11,14,12)      =         1.909825	     109.424922
	 B(11,14,13)      =         1.910027	     109.436502
	 B(12,14,13)      =         1.909398	     109.400434
	 D(1,4,7,5)       =         3.140997	     179.965873
	 D(1,4,7,6)       =        -1.047644	     -60.025575
	 D(1,4,7,10)      =         1.047427	      60.013132
	 D(2,4,7,5)       =        -1.047689	     -60.028143
	 D(2,4,7,6)       =         1.046856	      59.980409
	 D(2,4,7,10)      =        -3.141259	    -179.980883
	 D(3,4,7,5)       =         1.046044	      59.933911
	 D(3,4,7,6)       =         3.140588	     179.942463
	 D(3,4,7,10)      =        -1.047526	     -60.018830
	 D(4,7,10,8)      =        -2.791702	    -159.952714
	 D(4,7,10,9)      =        -0.698260	     -40.007367
	 D(4,7,10,14)     =         1.396293	      80.001678
	 D(5,7,10,8)      =         1.397981	      80.098410
	 D(5,7,10,9)      =        -2.791763	    -159.956243
	 D(5,7,10,14)     =        -0.697210	     -39.947198
	 D(6,7,10,8)      =        -0.695894	     -39.871789
	 D(6,7,10,9)      =         1.397547	      80.073559
	 D(6,7,10,14)     =        -2.791085	    -159.917396
	 D(7,10,14,11)    =         3.140991	     179.965514
	 D(7,10,14,12)    =         1.046835	      59.979223
	 D(7,10,14,13)    =        -1.047420	     -60.012732
	 D(8,10,14,11)    =         1.046047	      59.934077
	 D(8,10,14,12)    =        -1.048109	     -60.052214
	 D(8,10,14,13)    =         3.140822	     179.955831
	 D(9,10,14,11)    =        -1.047741	     -60.031115
	 D(9,10,14,12)    =         3.141289	     179.982594
	 D(9,10,14,13)    =         1.047034	      59.990639

	Current energy   :      -157.8364500823

	Generating empirical Hessian (Schlegel '84) for each fragment.
	Adding user-defined constraint: Fragment 1; Coordinate 49:
		Value =     1.396293; Fixed value    =     1.396263
		Force =    -0.000015; Force constant =     0.500000
	Removing off-diagonal coupling between coordinate 49 and others.
	Taking RFO optimization step.
	Going to follow RFO solution 1.
	Using RFO vector 1.

	Determining step-restricting scale parameter for RS-RFO.
	Maximum step size allowed    0.10000

	 Iter      |step|        alpha        rfo_root  
	------------------------------------------------
	    0     0.23568       1.00000           1
	    1     0.17533       6.13597           1
	    2     0.13377      18.38592           1
	    3     0.11035      35.03216           1
	    4     0.10144      45.35609           1
	    5     0.10003      47.28243           1
	    6     0.10000      47.33068           1
	------------------------------------------------
	Norm of target step-size    0.10000
	Projected energy change by RFO approximation:        -0.0054821635

	Back-transformation to cartesian coordinates...
	Successfully converged to displaced geometry.

	--- Internal Coordinate Step in ANG or DEG, aJ/ANG or AJ/DEG ---
	 ---------------------------------------------------------------------------
	   Coordinate                Previous        Force       Change         New 
	   ----------                --------       ------       ------       ------
	    1 R(1,4)          =      1.069698     0.135622     0.013467     1.083164
	    2 R(2,4)          =      1.070683     0.134182     0.013349     1.084032
	    3 R(3,4)          =      1.069320     0.131901     0.013088     1.082408
	    4 R(4,7)          =      1.540645    -0.013463    -0.001547     1.539098
	    5 R(5,7)          =      1.070326     0.141603     0.014078     1.084404
	    6 R(6,7)          =      1.069761     0.147163     0.014614     1.084375
	    7 R(7,10)         =      1.540128     0.014005     0.001608     1.541736
	    8 R(8,10)         =      1.069391     0.149672     0.014853     1.084244
	    9 R(9,10)         =      1.069454     0.147194     0.014609     1.084062
	   10 R(10,14)        =      1.539263    -0.007916    -0.000908     1.538355
	   11 R(11,14)        =      1.070127     0.137897     0.013704     1.083831
	   12 R(12,14)        =      1.069808     0.135251     0.013433     1.083241
	   13 R(13,14)        =      1.069886     0.128589     0.012773     1.082659
	   14 B(1,4,2)        =    109.484805    -0.000273    -0.472014   109.012790
	   15 B(1,4,3)        =    109.499161    -0.000239    -0.412836   109.086325
	   16 B(1,4,7)        =    109.457783     0.000132     0.213057   109.670839
	   17 B(2,4,3)        =    109.437340    -0.000352    -0.612747   108.824593
	   18 B(2,4,7)        =    109.467262     0.000396     0.688901   110.156163
	   19 B(3,4,7)        =    109.480971     0.000337     0.582608   110.063579
	   20 B(4,7,5)        =    109.431343    -0.000176    -0.236947   109.194396
	   21 B(4,7,6)        =    109.528316    -0.000302    -0.466784   109.061533
	   22 B(4,7,10)       =    109.501062     0.000882     1.406054   110.907116
	   23 B(5,7,6)        =    109.469614    -0.000001    -0.179923   109.289691
	   24 B(5,7,10)       =    109.437654    -0.000271    -0.395089   109.042565
	   25 B(6,7,10)       =    109.459295    -0.000132    -0.135653   109.323642
	   26 B(7,10,8)       =    109.472088    -0.000139    -0.148566   109.323521
	   27 B(7,10,9)       =    109.461456    -0.000275    -0.402643   109.058812
	   28 B(7,10,14)      =    109.496745     0.000892     1.420697   110.917442
	   29 B(8,10,9)       =    109.431036     0.000003    -0.172645   109.258391
	   30 B(8,10,14)      =    109.495248    -0.000299    -0.459570   109.035678
	   31 B(9,10,14)      =    109.470727    -0.000182    -0.246321   109.224405
	   32 B(10,14,11)     =    109.494578     0.000396     0.689301   110.183879
	   33 B(10,14,12)     =    109.518044     0.000120     0.192103   109.710146
	   34 B(10,14,13)     =    109.552703     0.000327     0.565943   110.118647
	   35 B(11,14,12)     =    109.424922    -0.000266    -0.458774   108.966148
	   36 B(11,14,13)     =    109.436502    -0.000351    -0.612555   108.823947
	   37 B(12,14,13)     =    109.400434    -0.000228    -0.391393   109.009041
	   38 D(1,4,7,5)      =    179.965873     0.000032     0.310274   180.276147
	   39 D(1,4,7,6)      =    -60.025575    -0.000036    -0.333357   -60.358933
	   40 D(1,4,7,10)     =     60.013132     0.000009     0.076824    60.089956
	   41 D(2,4,7,5)      =    -60.028143     0.000029     0.288120   -59.740023
	   42 D(2,4,7,6)      =     59.980409    -0.000038    -0.355512    59.624897
	   43 D(2,4,7,10)     =   -179.980883     0.000006     0.054669  -179.926214
	   44 D(3,4,7,5)      =     59.933911     0.000033     0.325427    60.259338
	   45 D(3,4,7,6)      =    179.942463    -0.000034    -0.318205   179.624258
	   46 D(3,4,7,10)     =    -60.018830     0.000010     0.091977   -59.926853
	   47 D(4,7,10,8)     =   -159.952714     0.000024     0.204173  -159.748542
	   48 D(4,7,10,9)     =    -40.007367    -0.000034    -0.339271   -40.346638
	   49 D(4,7,10,14)    =     80.001678     0.000002    -0.017731    79.983948
	   50 D(5,7,10,8)     =     80.098410    -0.000012    -0.123458    79.974952
	   51 D(5,7,10,9)     =   -159.956243    -0.000070    -0.666902  -160.623145
	   52 D(5,7,10,14)    =    -39.947198    -0.000034    -0.345361   -40.292559
	   53 D(6,7,10,8)     =    -39.871789     0.000045     0.416443   -39.455345
	   54 D(6,7,10,9)     =     80.073559    -0.000013    -0.127001    79.946558
	   55 D(6,7,10,14)    =   -159.917396     0.000023     0.194540  -159.722856
	   56 D(7,10,14,11)   =    179.965514     0.000007     0.059462   180.024976
	   57 D(7,10,14,12)   =     59.979223     0.000009     0.077429    60.056652
	   58 D(7,10,14,13)   =    -60.012732     0.000010     0.088865   -59.923866
	   59 D(8,10,14,11)   =     59.934077    -0.000037    -0.347588    59.586489
	   60 D(8,10,14,12)   =    -60.052214    -0.000035    -0.329622   -60.381836
	   61 D(8,10,14,13)   =    179.955831    -0.000034    -0.318185   179.637646
	   62 D(9,10,14,11)   =    -60.031115     0.000029     0.288245   -59.742870
	   63 D(9,10,14,12)   =    179.982594     0.000031     0.306211   180.288806
	   64 D(9,10,14,13)   =     59.990639     0.000033     0.317648    60.308287
	 ---------------------------------------------------------------------------
	 Forces used to impose fixed constraints are not included.
	  Forces zeroed: 49 

  ==> Convergence Check <==

  Measures of convergence in internal coordinates in au.
  Criteria marked as inactive (o), active & met (*), and active & unmet ( ).
  --------------------------------------------------------------------------------------------- ~
   Step     Total Energy     Delta E     MAX Force     RMS Force      MAX Disp      RMS Disp    ~
  --------------------------------------------------------------------------------------------- ~
    Convergence Criteria    1.00e-06 *    3.00e-04 *             o    1.20e-03 *             o  ~
  --------------------------------------------------------------------------------------------- ~
      1    -157.83645008   -1.58e+02      1.82e-02      7.36e-03 o    2.81e-02      1.25e-02 o  ~
  ---------------------------------------------------------------------------------------------

	Writing optimization data to binary file.
	Structure for next step:
	Cartesian Geometry (in Angstrom)
	    H    -2.0384019482   0.1210602010   0.8153297824
	    H    -1.9170241079   1.7784259062   0.2221792671
	    H    -1.6182736858   0.4286948833  -0.8700347144
	    C    -1.4994009731   0.7809319428   0.1465306987
	    H     0.5226940591   1.4661285912  -0.1430225996
	    H     0.0923732575   1.1610411793   1.5453055976
	    C    -0.0083991595   0.7999048328   0.5278111010
	    H     1.5106122239  -0.6532672744   1.0174157845
	    H    -0.1072338204  -1.3346184907   0.8065502152
	    C     0.6039463786  -0.6112190620   0.4243106548
	    H     1.3719134550  -1.9506550138  -1.0948753886
	    H     1.6575771778  -0.2415125845  -1.4242453685
	    H     0.0474757137  -0.9264190374  -1.6434018867
	    C     0.9430468323  -0.9570379897  -1.0358112674
			--------------------------
			 OPTKING Finished Execution 
			--------------------------

    Structure for next step:
    Molecular point group: c1
    Full point group: C1

    Geometry (in Angstrom), charge = 0, multiplicity = 1:

    H           -2.038200265976     0.121083402168     0.815686558784
    H           -1.916822425698     1.778449107367     0.222536043483
    H           -1.618072003514     0.428718084459    -0.869677938056
    C           -1.499199290882     0.780955144032     0.146887475081
    H            0.522895741294     1.466151792389    -0.142665823227
    H            0.092574939719     1.161064380476     1.545662373920
    C           -0.008197477221     0.799928033978     0.528167877301
    H            1.510813906118    -0.653244073212     1.017772560834
    H           -0.107032138174    -1.334595289483     0.806906991563
    C            0.604148060839    -0.611195860788     0.424667431107
    H            1.372115137229    -1.950631812571    -1.094518612234
    H            1.657778860022    -0.241489383260    -1.423888592168
    H            0.047677395903    -0.926395836231    -1.643045110359
    C            0.943248514578    -0.957014788549    -1.035454491084

gradient() will perform analytic gradient computation.
    SCF Algorithm Type (re)set to DF.

*** tstart() called on lski1497
*** at Thu Feb 16 16:40:50 2017


         ---------------------------------------------------------
                                   SCF
            by Justin Turney, Rob Parrish, and Andy Simmonett
                              RHF Reference
                        1 Threads,   1000 MiB Core
         ---------------------------------------------------------

  ==> Geometry <==

    Molecular point group: c1
    Full point group: C1

    Geometry (in Angstrom), charge = 0, multiplicity = 1:

       Center              X                  Y                   Z               Mass       
    ------------   -----------------  -----------------  -----------------  -----------------
           H         -2.038200265976     0.121083402168     0.815686558784     1.007825032070
           H         -1.916822425698     1.778449107367     0.222536043483     1.007825032070
           H         -1.618072003514     0.428718084459    -0.869677938056     1.007825032070
           C         -1.499199290882     0.780955144032     0.146887475081    12.000000000000
           H          0.522895741294     1.466151792389    -0.142665823227     1.007825032070
           H          0.092574939719     1.161064380476     1.545662373920     1.007825032070
           C         -0.008197477221     0.799928033978     0.528167877301    12.000000000000
           H          1.510813906118    -0.653244073212     1.017772560834     1.007825032070
           H         -0.107032138174    -1.334595289483     0.806906991563     1.007825032070
           C          0.604148060839    -0.611195860788     0.424667431107    12.000000000000
           H          1.372115137229    -1.950631812571    -1.094518612234     1.007825032070
           H          1.657778860022    -0.241489383260    -1.423888592168     1.007825032070
           H          0.047677395903    -0.926395836231    -1.643045110359     1.007825032070
           C          0.943248514578    -0.957014788549    -1.035454491084    12.000000000000

  Running in c1 symmetry.

  Rotational constants: A =      0.46159  B =      0.15406  C =      0.13719 [cm^-1]
  Rotational constants: A =  13838.06854  B =   4618.69326  C =   4112.93019 [MHz]
  Nuclear repulsion =  132.849864129582670

  Charge       = 0
  Multiplicity = 1
  Electrons    = 34
  Nalpha       = 17
  Nbeta        = 17

  ==> Algorithm <==

  SCF Algorithm Type is DF.
  DIIS enabled.
  MOM disabled.
  Fractional occupation disabled.
  Guess Type is READ.
  Energy threshold   = 1.00e-10
  Density threshold  = 1.00e-10
  Integral threshold = 0.00e+00

  ==> Primary Basis <==

  Basis Set: 6-31G(D)
    Number of shells: 44
    Number of basis function: 80
    Number of Cartesian functions: 80
    Spherical Harmonics?: false
    Max angular momentum: 2

  ==> Pre-Iterations <==

   -------------------------------------------------------
    Irrep   Nso     Nmo     Nalpha   Nbeta   Ndocc  Nsocc
   -------------------------------------------------------
     A         80      80       0       0       0       0
   -------------------------------------------------------
    Total      80      80      17      17      17       0
   -------------------------------------------------------

  ==> Integral Setup <==

  ==> DFJK: Density-Fitted J/K Matrices <==

    J tasked:                  Yes
    K tasked:                  Yes
    wK tasked:                  No
    OpenMP threads:              1
    Integrals threads:           1
    Memory (MB):               715
    Algorithm:                Core
    Integral Cache:           NONE
    Schwarz Cutoff:          1E-12
    Fitting Condition:       1E-12

   => Auxiliary Basis Set <=

  Basis Set: 
    Number of shells: 186
    Number of basis function: 574
    Number of Cartesian functions: 574
    Spherical Harmonics?: false
    Max angular momentum: 3

  Minimum eigenvalue in the overlap matrix is 5.4336364619E-03.
  Using Symmetric Orthogonalization.
  SCF Guess was Projection but file not found.
  Switching over to SAD guess.

  SCF Guess: Superposition of Atomic Densities via on-the-fly atomic UHF.

  ==> Iterations <==

                           Total Energy        Delta E     RMS |[F,P]|

   @DF-RHF iter   0:  -158.89218974212201   -1.58892e+02   4.66191e-02 
   @DF-RHF iter   1:  -157.20354925294993    1.68864e+00   3.97296e-03 
   @DF-RHF iter   2:  -157.28597154538988   -8.24223e-02   1.10301e-03 DIIS
   @DF-RHF iter   3:  -157.29393590022369   -7.96435e-03   2.66820e-04 DIIS
   @DF-RHF iter   4:  -157.29433799148887   -4.02091e-04   8.10753e-05 DIIS
   @DF-RHF iter   5:  -157.29437694174464   -3.89503e-05   1.31549e-05 DIIS
   @DF-RHF iter   6:  -157.29437828979474   -1.34805e-06   1.61339e-06 DIIS
   @DF-RHF iter   7:  -157.29437830815220   -1.83575e-08   4.41059e-07 DIIS
   @DF-RHF iter   8:  -157.29437830904237   -8.90168e-10   1.13804e-07 DIIS
   @DF-RHF iter   9:  -157.29437830912548   -8.31051e-11   2.55539e-08 DIIS
   @DF-RHF iter  10:  -157.29437830913110   -5.62750e-12   4.96109e-09 DIIS
   @DF-RHF iter  11:  -157.29437830913099    1.13687e-13   9.86680e-10 DIIS
   @DF-RHF iter  12:  -157.29437830913105   -5.68434e-14   3.15244e-10 DIIS
   @DF-RHF iter  13:  -157.29437830913122   -1.70530e-13   6.52013e-11 DIIS

  ==> Post-Iterations <==

    Orbital Energies (a.u.)
    -----------------------

    Doubly Occupied:                                                      

       1A    -11.212629     2A    -11.212053     3A    -11.206301  
       4A    -11.206259     5A     -1.069569     6A     -0.974795  
       7A     -0.868645     8A     -0.781460     9A     -0.625628  
      10A     -0.621414    11A     -0.577089    12A     -0.537135  
      13A     -0.525767    14A     -0.504162    15A     -0.469215  
      16A     -0.456597    17A     -0.450857  

    Virtual:                                                              

      18A      0.231573    19A      0.276918    20A      0.278861  
      21A      0.295399    22A      0.313216    23A      0.316583  
      24A      0.343479    25A      0.349486    26A      0.352489  
      27A      0.390895    28A      0.400941    29A      0.434337  
      30A      0.454450    31A      0.711869    32A      0.726030  
      33A      0.728904    34A      0.744659    35A      0.765492  
      36A      0.835340    37A      0.868336    38A      0.927958  
      39A      0.950086    40A      0.998861    41A      1.084427  
      42A      1.115372    43A      1.161670    44A      1.163111  
      45A      1.187806    46A      1.191711    47A      1.196554  
      48A      1.230411    49A      1.244218    50A      1.251636  
      51A      1.254360    52A      1.276685    53A      1.295209  
      54A      1.508164    55A      1.711437    56A      1.719636  
      57A      1.857261    58A      1.861473    59A      1.998181  
      60A      2.060579    61A      2.189901    62A      2.244277  
      63A      2.286170    64A      2.296298    65A      2.369309  
      66A      2.454383    67A      2.457333    68A      2.596915  
      69A      2.640403    70A      2.659593    71A      2.704645  
      72A      2.760964    73A      2.794118    74A      2.911708  
      75A      2.972283    76A      3.076176    77A      4.563487  
      78A      4.677808    79A      4.837386    80A      4.941392  

    Final Occupation by Irrep:
              A 
    DOCC [    17 ]

  Energy converged.

  @DF-RHF Final Energy:  -157.29437830913122

   => Energetics <=

    Nuclear Repulsion Energy =            132.8498641295826701
    One-Electron Energy =                -473.6893314232746661
    Two-Electron Energy =                 183.5450889845607776
    DFT Exchange-Correlation Energy =       0.0000000000000000
    Empirical Dispersion Energy =           0.0000000000000000
    PCM Polarization Energy =               0.0000000000000000
    EFP Energy =                            0.0000000000000000
    Total Energy =                       -157.2943783091312184


  Saving occupied orbitals to File 180.

*** tstop() called on lski1497 at Thu Feb 16 16:40:56 2017
Module time:
	user time   =       5.01 seconds =       0.08 minutes
	system time =       0.13 seconds =       0.00 minutes
	total time  =          6 seconds =       0.10 minutes
Total time:
	user time   =      28.56 seconds =       0.48 minutes
	system time =       0.84 seconds =       0.01 minutes
	total time  =         33 seconds =       0.55 minutes


Properties will be evaluated at   0.000000,   0.000000,   0.000000 Bohr

Properties computed using the SCF density matrix

  Nuclear Dipole Moment: (a.u.)
     X:    -0.4465      Y:    -0.1415      Z:    -0.7174

  Electronic Dipole Moment: (a.u.)
     X:     0.4640      Y:     0.1468      Z:     0.7451

  Dipole Moment: (a.u.)
     X:     0.0175      Y:     0.0053      Z:     0.0277     Total:     0.0332

  Dipole Moment: (Debye)
     X:     0.0444      Y:     0.0135      Z:     0.0705     Total:     0.0844


  //>>>>>>>>>>>>>>>>>>>>>>>>>>>>>>>>>>>//
  //               DFMP2               //
  //<<<<<<<<<<<<<<<<<<<<<<<<<<<<<<<<<<<//


*** tstart() called on lski1497
*** at Thu Feb 16 16:40:56 2017


*** tstop() called on lski1497 at Thu Feb 16 16:40:57 2017
Module time:
	user time   =       0.53 seconds =       0.01 minutes
	system time =       0.01 seconds =       0.00 minutes
	total time  =          1 seconds =       0.02 minutes
Total time:
	user time   =      29.10 seconds =       0.48 minutes
	system time =       0.85 seconds =       0.01 minutes
	total time  =         34 seconds =       0.57 minutes
	 --------------------------------------------------------
	                          DF-MP2                         
	      2nd-Order Density-Fitted Moller-Plesset Theory     
	              RMP2 Wavefunction,   1 Threads             
	                                                         
	        Rob Parrish, Justin Turney, Andy Simmonett,      
	           Ed Hohenstein, and C. David Sherrill          
	 --------------------------------------------------------

   => Auxiliary Basis Set <=

  Basis Set: 
    Number of shells: 132
    Number of basis function: 364
    Number of Cartesian functions: 414
    Spherical Harmonics?: true
    Max angular momentum: 3

	 --------------------------------------------------------
	                 NBF =    80, NAUX =   364
	 --------------------------------------------------------
	   CLASS    FOCC     OCC    AOCC    AVIR     VIR    FVIR
	   PAIRS       0      17      17      63      63       0
	 --------------------------------------------------------

DGAS Warning! /src/lib/libfock/apps.cc:80 is not currently checking restricted

         ------------------------------------------------------------
                                     CPHF                           
                                  Rob Parrish                       
         ------------------------------------------------------------

  ==> Geometry <==

    Molecular point group: c1
    Full point group: C1

    Geometry (in Angstrom), charge = 0, multiplicity = 1:

       Center              X                  Y                   Z               Mass       
    ------------   -----------------  -----------------  -----------------  -----------------
           H         -2.038200265976     0.121083402168     0.815686558784     1.007825032070
           H         -1.916822425698     1.778449107367     0.222536043483     1.007825032070
           H         -1.618072003514     0.428718084459    -0.869677938056     1.007825032070
           C         -1.499199290882     0.780955144032     0.146887475081    12.000000000000
           H          0.522895741294     1.466151792389    -0.142665823227     1.007825032070
           H          0.092574939719     1.161064380476     1.545662373920     1.007825032070
           C         -0.008197477221     0.799928033978     0.528167877301    12.000000000000
           H          1.510813906118    -0.653244073212     1.017772560834     1.007825032070
           H         -0.107032138174    -1.334595289483     0.806906991563     1.007825032070
           C          0.604148060839    -0.611195860788     0.424667431107    12.000000000000
           H          1.372115137229    -1.950631812571    -1.094518612234     1.007825032070
           H          1.657778860022    -0.241489383260    -1.423888592168     1.007825032070
           H          0.047677395903    -0.926395836231    -1.643045110359     1.007825032070
           C          0.943248514578    -0.957014788549    -1.035454491084    12.000000000000

  Nuclear repulsion =  132.849864129582670
  Reference energy  = -157.294378309131218

  ==> Basis Set <==

  Basis Set: 6-31G(D)
    Number of shells: 44
    Number of basis function: 80
    Number of Cartesian functions: 80
    Spherical Harmonics?: false
    Max angular momentum: 2

  ==> CGRSolver (by Rob Parrish) <==

   Number of roots    =         1
   Preconditioning    =    JACOBI
   Convergence cutoff =     1E-06
   Maximum iterations =       100

  ==> CPHFRHamiltonian (by Rob Parrish) <== 

  ==> DFJK: Density-Fitted J/K Matrices <==

    J tasked:                  Yes
    K tasked:                  Yes
    wK tasked:                  No
    OpenMP threads:              1
    Integrals threads:           1
    Memory (MB):               715
    Algorithm:                Core
    Integral Cache:           NONE
    Schwarz Cutoff:          1E-12
    Fitting Condition:       1E-12

   => Auxiliary Basis Set <=

  Basis Set: 
    Number of shells: 186
    Number of basis function: 574
    Number of Cartesian functions: 574
    Spherical Harmonics?: false
    Max angular momentum: 3

  ==> CPHF Iterations <==

  => Iterations <=

             Iter  Converged  Remaining    Residual
  CGR           1          0          1   7.472E-02
  CGR           2          0          1   8.731E-03
  CGR           3          0          1   2.425E-03
  CGR           4          0          1   4.381E-04
  CGR           5          0          1   8.068E-05
  CGR           6          0          1   1.569E-05
  CGR           7          0          1   2.279E-06
  CGR           8          1          0   4.750E-07

    CGRSolver converged.

  ==> DFCorrGrad: Density-Fitted Correlated Gradients <==

    OpenMP threads:              1
    Integrals threads:           1
    Memory (MB):               715
    Schwarz Cutoff:          0E+00
    Fitting Condition:       1E-12

   => Auxiliary Basis Set <=

  Basis Set: 
    Number of shells: 186
    Number of basis function: 510
    Number of Cartesian functions: 574
    Spherical Harmonics?: true
    Max angular momentum: 3

	-----------------------------------------------------------
	 ==================> DF-MP2 Energies <==================== 
	-----------------------------------------------------------
	 Reference Energy          =    -157.2943783091312184 [Eh]
	 Singles Energy            =      -0.0000000000000000 [Eh]
	 Same-Spin Energy          =      -0.1245440295525426 [Eh]
	 Opposite-Spin Energy      =      -0.4217210108509528 [Eh]
	 Correlation Energy        =      -0.5462650404034954 [Eh]
	 Total Energy              =    -157.8406433495347017 [Eh]
	-----------------------------------------------------------
	 ================> DF-SCS-MP2 Energies <================== 
	-----------------------------------------------------------
	 SCS Same-Spin Scale       =       0.3333333333333333 [-]
	 SCS Opposite-Spin Scale   =       1.2000000000000000 [-]
	 SCS Same-Spin Energy      =      -0.0415146765175142 [Eh]
	 SCS Opposite-Spin Energy  =      -0.5060652130211433 [Eh]
	 SCS Correlation Energy    =      -0.5475798895386574 [Eh]
	 SCS Total Energy          =    -157.8419581986698859 [Eh]
	-----------------------------------------------------------


  -Total Gradient:
     Atom            X                  Y                   Z
    ------   -----------------  -----------------  -----------------
       1        0.005189621917     0.003610951825    -0.003289274681
       2        0.004960072041    -0.004927398366     0.000546933656
       3        0.003624612952     0.001918651109     0.006188531447
       4       -0.016804301184    -0.004270780626    -0.003996287209
       5       -0.005327085629    -0.006620081482     0.000982773411
       6       -0.001531036699    -0.005201922656    -0.005592812018
       7        0.012930026572     0.018913545292     0.002579237126
       8       -0.005182412053     0.003063997788    -0.005085973891
       9        0.002324456580     0.005754860057    -0.006142996605
      10       -0.000402531695    -0.015137158458     0.017382256277
      11       -0.002635399863     0.005831269989     0.003168238363
      12       -0.004605733544    -0.003444529978     0.004120010571
      13        0.004023662604     0.000587604215     0.005999414242
      14        0.003436048006    -0.000079008710    -0.016860050688


			-----------------------------------------
			 OPTKING 2.0: for geometry optimizations 
			  - R.A. King,  Bethel University        
			-----------------------------------------

	Previous internal coordinate definitions found.
	---Fragment 1 Geometry and Gradient---
	 H          -3.8516403067        0.2288144693        1.5414242064
	 H          -3.6222694299        3.3607817542        0.4205321769
	 H          -3.0577129499        0.8101597678       -1.6434531267
	 C          -2.8330760784        1.4757913443        0.2775771003
	 H           0.9881297471        2.7706253569       -0.2695993344
	 H           0.1749412828        2.1940937017        2.9208785806
	 C          -0.0154909869        1.5116449102        0.9980926403
	 H           2.8550245203       -1.2344523963        1.9233114055
	 H          -0.2022614286       -2.5220195954        1.5248332288
	 C           1.1416743787       -1.1549927904        0.8025051423
	 H           2.5929218322       -3.6861599119       -2.0683404245
	 H           3.1327480343       -0.4563487984       -2.6907594829
	 H           0.0900972210       -1.7506344211       -3.1049052826
	 C           1.7824813678       -1.8084958555       -1.9567254112
	             0.0051896219        0.0036109518       -0.0032892747
	             0.0049600720       -0.0049273984        0.0005469337
	             0.0036246130        0.0019186511        0.0061885314
	            -0.0168043012       -0.0042707806       -0.0039962872
	            -0.0053270856       -0.0066200815        0.0009827734
	            -0.0015310367       -0.0052019227       -0.0055928120
	             0.0129300266        0.0189135453        0.0025792371
	            -0.0051824121        0.0030639978       -0.0050859739
	             0.0023244566        0.0057548601       -0.0061429966
	            -0.0004025317       -0.0151371585        0.0173822563
	            -0.0026353999        0.0058312700        0.0031682384
	            -0.0046057335       -0.0034445300        0.0041200106
	             0.0040236626        0.0005876042        0.0059994142
	             0.0034360480       -0.0000790087       -0.0168600507

	---Fragment 1 Intrafragment Coordinates---
	 - Coordinate -           - BOHR/RAD -       - ANG/DEG -
	 R(1,4)           =         2.046884	       1.083164
	 R(2,4)           =         2.048524	       1.084032
	 R(3,4)           =         2.045455	       1.082408
	 R(4,7)           =         2.908473	       1.539098
	 R(5,7)           =         2.049227	       1.084404
	 R(6,7)           =         2.049172	       1.084375
	 R(7,10)          =         2.913459	       1.541736
	 R(8,10)          =         2.048924	       1.084244
	 R(9,10)          =         2.048581	       1.084062
	 R(10,14)         =         2.907070	       1.538355
	 R(11,14)         =         2.048144	       1.083831
	 R(12,14)         =         2.047029	       1.083241
	 R(13,14)         =         2.045930	       1.082659
	 B(1,4,2)         =         1.902632	     109.012790
	 B(1,4,3)         =         1.903916	     109.086325
	 B(1,4,7)         =         1.914117	     109.670839
	 B(2,4,3)         =         1.899347	     108.824593
	 B(2,4,7)         =         1.922588	     110.156163
	 B(3,4,7)         =         1.920972	     110.063579
	 B(4,7,5)         =         1.905802	     109.194396
	 B(4,7,6)         =         1.903483	     109.061533
	 B(4,7,10)        =         1.935694	     110.907116
	 B(5,7,6)         =         1.907465	     109.289691
	 B(5,7,10)        =         1.903152	     109.042565
	 B(6,7,10)        =         1.908058	     109.323642
	 B(7,10,8)        =         1.908055	     109.323521
	 B(7,10,9)        =         1.903435	     109.058812
	 B(7,10,14)       =         1.935875	     110.917442
	 B(8,10,9)        =         1.906919	     109.258391
	 B(8,10,14)       =         1.903032	     109.035678
	 B(9,10,14)       =         1.906325	     109.224405
	 B(10,14,11)      =         1.923071	     110.183879
	 B(10,14,12)      =         1.914803	     109.710146
	 B(10,14,13)      =         1.921933	     110.118647
	 B(11,14,12)      =         1.901818	     108.966148
	 B(11,14,13)      =         1.899336	     108.823947
	 B(12,14,13)      =         1.902567	     109.009041
	 D(1,4,7,5)       =        -3.136773	    -179.723853
	 D(1,4,7,6)       =        -1.053462	     -60.358933
	 D(1,4,7,10)      =         1.048768	      60.089956
	 D(2,4,7,5)       =        -1.042660	     -59.740023
	 D(2,4,7,6)       =         1.040651	      59.624897
	 D(2,4,7,10)      =        -3.140305	    -179.926214
	 D(3,4,7,5)       =         1.051724	      60.259338
	 D(3,4,7,6)       =         3.135035	     179.624258
	 D(3,4,7,10)      =        -1.045921	     -59.926853
	 D(4,7,10,8)      =        -2.788138	    -159.748542
	 D(4,7,10,9)      =        -0.704182	     -40.346638
	 D(4,7,10,14)     =         1.395983	      79.983948
	 D(5,7,10,8)      =         1.395826	      79.974952
	 D(5,7,10,9)      =        -2.803403	    -160.623145
	 D(5,7,10,14)     =        -0.703238	     -40.292559
	 D(6,7,10,8)      =        -0.688626	     -39.455345
	 D(6,7,10,9)      =         1.395331	      79.946558
	 D(6,7,10,14)     =        -2.787690	    -159.722856
	 D(7,10,14,11)    =        -3.141157	    -179.975024
	 D(7,10,14,12)    =         1.048186	      60.056652
	 D(7,10,14,13)    =        -1.045869	     -59.923866
	 D(8,10,14,11)    =         1.039980	      59.586489
	 D(8,10,14,12)    =        -1.053862	     -60.381836
	 D(8,10,14,13)    =         3.135268	     179.637646
	 D(9,10,14,11)    =        -1.042710	     -59.742870
	 D(9,10,14,12)    =        -3.136552	    -179.711194
	 D(9,10,14,13)    =         1.052578	      60.308287

	Current energy   :      -157.8406433495

	Energy change for the previous step:
		Projected    :        -0.0054821635
		Actual       :        -0.0041932673

	Performing BFGS update.
	Previous computed or guess Hessian on step 1.
	Steps to be used in Hessian update: 1
	Adding user-defined constraint: Fragment 1; Coordinate 49:
		Value =     1.395983; Fixed value    =     1.396260
		Force =     0.000145; Force constant =     0.525000
	Removing off-diagonal coupling between coordinate 49 and others.
	Taking RFO optimization step.
	Going to follow RFO solution 1.
	Using RFO vector 1.

	Determining step-restricting scale parameter for RS-RFO.
	Maximum step size allowed    0.10000

	 Iter      |step|        alpha        rfo_root  
	------------------------------------------------
	    0     0.19007       1.00000           1
	    1     0.14888       5.63558           1
	    2     0.11868      15.19200           1
	    3     0.10424      24.31667           1
	    4     0.10030      27.74413           1
	    5     0.10000      28.02888           1
	------------------------------------------------
	Norm of target step-size    0.10000
	Projected energy change by RFO approximation:        -0.0027820278

	Back-transformation to cartesian coordinates...
	Could not converge backtransformation.
	Using first guess instead.

	--- Internal Coordinate Step in ANG or DEG, aJ/ANG or AJ/DEG ---
	 ---------------------------------------------------------------------------
	   Coordinate                Previous        Force       Change         New 
	   ----------                --------       ------       ------       ------
	    1 R(1,4)          =      1.083164     0.056131     0.008597     1.091762
	    2 R(2,4)          =      1.084032     0.052784     0.007786     1.091818
	    3 R(3,4)          =      1.082408     0.056308     0.009067     1.091475
	    4 R(4,7)          =      1.539098    -0.025680    -0.006889     1.532208
	    5 R(5,7)          =      1.084404     0.060012     0.009357     1.093761
	    6 R(6,7)          =      1.084375     0.058681     0.008680     1.093055
	    7 R(7,10)         =      1.541736    -0.014427    -0.005043     1.536693
	    8 R(8,10)         =      1.084244     0.059604     0.008805     1.093049
	    9 R(9,10)         =      1.084062     0.062048     0.009622     1.093684
	   10 R(10,14)        =      1.538355    -0.022972    -0.006355     1.532000
	   11 R(11,14)        =      1.083831     0.054058     0.007947     1.091778
	   12 R(12,14)        =      1.083241     0.055945     0.008561     1.091802
	   13 R(13,14)        =      1.082659     0.055023     0.008877     1.091536
	   14 B(1,4,2)        =    109.012790    -0.000190    -0.683419   108.329372
	   15 B(1,4,3)        =    109.086325    -0.000190    -0.743775   108.342550
	   16 B(1,4,7)        =    109.670839     0.000131     0.526222   110.197062
	   17 B(2,4,3)        =    108.824593    -0.000230    -0.779535   108.045058
	   18 B(2,4,7)        =    110.156163     0.000230     0.751888   110.908052
	   19 B(3,4,7)        =    110.063579     0.000238     0.862734   110.926312
	   20 B(4,7,5)        =    109.194396    -0.000063     0.065934   109.260330
	   21 B(4,7,6)        =    109.061533    -0.000130    -0.275410   108.786123
	   22 B(4,7,10)       =    110.907116     0.000441     1.309115   112.216231
	   23 B(5,7,6)        =    109.289691    -0.000085    -0.973429   108.316262
	   24 B(5,7,10)       =    109.042565    -0.000118    -0.171272   108.871293
	   25 B(6,7,10)       =    109.323642    -0.000050    -0.010303   109.313339
	   26 B(7,10,8)       =    109.323521    -0.000052    -0.012926   109.310595
	   27 B(7,10,9)       =    109.058812    -0.000120    -0.176855   108.881957
	   28 B(7,10,14)      =    110.917442     0.000442     1.305288   112.222730
	   29 B(8,10,9)       =    109.258391    -0.000083    -0.962514   108.295877
	   30 B(8,10,14)      =    109.035678    -0.000127    -0.262355   108.773322
	   31 B(9,10,14)      =    109.224405    -0.000066     0.053625   109.278030
	   32 B(10,14,11)     =    110.183879     0.000228     0.736515   110.920394
	   33 B(10,14,12)     =    109.710146     0.000122     0.496444   110.206590
	   34 B(10,14,13)     =    110.118647     0.000230     0.833914   110.952560
	   35 B(11,14,12)     =    108.966148    -0.000184    -0.657083   108.309065
	   36 B(11,14,13)     =    108.823947    -0.000228    -0.774533   108.049414
	   37 B(12,14,13)     =    109.009041    -0.000180    -0.700937   108.308104
	   38 D(1,4,7,5)      =   -179.723853     0.000025     0.712121  -179.011732
	   39 D(1,4,7,6)      =    -60.358933    -0.000025    -0.587122   -60.946054
	   40 D(1,4,7,10)     =     60.089956     0.000005     0.047478    60.137434
	   41 D(2,4,7,5)      =    -59.740023     0.000023     0.677844   -59.062179
	   42 D(2,4,7,6)      =     59.624897    -0.000027    -0.621399    59.003499
	   43 D(2,4,7,10)     =   -179.926214     0.000003     0.013201  -179.913013
	   44 D(3,4,7,5)      =     60.259338     0.000026     0.751129    61.010467
	   45 D(3,4,7,6)      =    179.624258    -0.000024    -0.548114   179.076145
	   46 D(3,4,7,10)     =    -59.926853     0.000006     0.086486   -59.840367
	   47 D(4,7,10,8)     =   -159.748542     0.000017     0.386487  -159.362055
	   48 D(4,7,10,9)     =    -40.346638    -0.000030    -0.890008   -41.236647
	   49 D(4,7,10,14)    =     79.983948    -0.000003    -0.111901    79.872047
	   50 D(5,7,10,8)     =     79.974952    -0.000011    -0.411943    79.563009
	   51 D(5,7,10,9)     =   -160.623145    -0.000058    -1.688438  -162.311583
	   52 D(5,7,10,14)    =    -40.292559    -0.000031    -0.910331   -41.202890
	   53 D(6,7,10,8)     =    -39.455345     0.000036     0.872979   -38.582366
	   54 D(6,7,10,9)     =     79.946558    -0.000011    -0.403517    79.543041
	   55 D(6,7,10,14)    =   -159.722856     0.000016     0.374591  -159.348265
	   56 D(7,10,14,11)   =   -179.975024     0.000003     0.027912  -179.947112
	   57 D(7,10,14,12)   =     60.056652     0.000005     0.057880    60.114532
	   58 D(7,10,14,13)   =    -59.923866     0.000005     0.080490   -59.843376
	   59 D(8,10,14,11)   =     59.586489    -0.000026    -0.609091    58.977397
	   60 D(8,10,14,12)   =    -60.381836    -0.000025    -0.579123   -60.960959
	   61 D(8,10,14,13)   =    179.637646    -0.000024    -0.556513   179.081133
	   62 D(9,10,14,11)   =    -59.742870     0.000023     0.676400   -59.066470
	   63 D(9,10,14,12)   =   -179.711194     0.000025     0.706369  -179.004826
	   64 D(9,10,14,13)   =     60.308287     0.000025     0.728979    61.037266
	 ---------------------------------------------------------------------------
	 Forces used to impose fixed constraints are not included.
	  Forces zeroed: 49 

  ==> Convergence Check <==

  Measures of convergence in internal coordinates in au.
  Criteria marked as inactive (o), active & met (*), and active & unmet ( ).
  ---------------------------------------------------------------------------------------------
   Step     Total Energy     Delta E     MAX Force     RMS Force      MAX Disp      RMS Disp   
  ---------------------------------------------------------------------------------------------
    Convergence Criteria    1.00e-06 *    3.00e-04 *             o    1.20e-03 *             o
  ---------------------------------------------------------------------------------------------
      2    -157.84064335   -4.19e-03      7.53e-03      3.35e-03 o    2.95e-02      1.25e-02 o  ~
  ---------------------------------------------------------------------------------------------

	Writing optimization data to binary file.
	Structure for next step:
	Cartesian Geometry (in Angstrom)
	    H    -2.0607759337   0.1305519483   0.8196033425
	    H    -1.9267217886   1.7984620764   0.2418161398
	    H    -1.6506292445   0.4546416793  -0.8715536118
	    C    -1.5050171687   0.7951035903   0.1551885630
	    H     0.5201649927   1.4758980070  -0.1359093123
	    H     0.0882265685   1.1540705906   1.5529851033
	    C    -0.0185889453   0.7927383586   0.5269249628
	    H     1.5180218860  -0.6451329784   1.0152267684
	    H    -0.0984758077  -1.3424263513   0.8098484977
	    C     0.6065622410  -0.6064276471   0.4131470748
	    H     1.3968797472  -1.9662149806  -1.0901348366
	    H     1.6732052032  -0.2531553668  -1.4394207981
	    H     0.0651944934  -0.9571807408  -1.6649128349
	    C     0.9556827107  -0.9691452848  -1.0337723137
			--------------------------
			 OPTKING Finished Execution 
			--------------------------

    Structure for next step:
    Molecular point group: c1
    Full point group: C1

    Geometry (in Angstrom), charge = 0, multiplicity = 1:

    H           -2.060518349850     0.130628318897     0.820129499952
    H           -1.926464204755     1.798538446952     0.242342297251
    H           -1.650371660687     0.454718049903    -0.871027454351
    C           -1.504759584931     0.795179960878     0.155714720479
    H            0.520422576497     1.475974377621    -0.135383154828
    H            0.088484152363     1.154146961139     1.553511260817
    C           -0.018331361513     0.792814729195     0.527451120318
    H            1.518279469866    -0.645056607846     1.015752925920
    H           -0.098218223901    -1.342349980666     0.810374655197
    C            0.606819824807    -0.606351276467     0.413673232332
    H            1.397137330996    -1.966138610013    -1.089608679123
    H            1.673462787067    -0.253078996199    -1.438894640629
    H            0.065452077256    -0.957104370212    -1.664386677366
    C            0.955940294487    -0.969068914182    -1.033246156218

gradient() will perform analytic gradient computation.
    SCF Algorithm Type (re)set to DF.

*** tstart() called on lski1497
*** at Thu Feb 16 16:41:17 2017


         ---------------------------------------------------------
                                   SCF
            by Justin Turney, Rob Parrish, and Andy Simmonett
                              RHF Reference
                        1 Threads,   1000 MiB Core
         ---------------------------------------------------------

  ==> Geometry <==

    Molecular point group: c1
    Full point group: C1

    Geometry (in Angstrom), charge = 0, multiplicity = 1:

       Center              X                  Y                   Z               Mass       
    ------------   -----------------  -----------------  -----------------  -----------------
           H         -2.060518349850     0.130628318897     0.820129499952     1.007825032070
           H         -1.926464204755     1.798538446952     0.242342297251     1.007825032070
           H         -1.650371660687     0.454718049903    -0.871027454351     1.007825032070
           C         -1.504759584931     0.795179960878     0.155714720479    12.000000000000
           H          0.520422576497     1.475974377621    -0.135383154828     1.007825032070
           H          0.088484152363     1.154146961139     1.553511260817     1.007825032070
           C         -0.018331361513     0.792814729195     0.527451120318    12.000000000000
           H          1.518279469866    -0.645056607846     1.015752925920     1.007825032070
           H         -0.098218223901    -1.342349980666     0.810374655197     1.007825032070
           C          0.606819824807    -0.606351276467     0.413673232332    12.000000000000
           H          1.397137330996    -1.966138610013    -1.089608679123     1.007825032070
           H          1.673462787067    -0.253078996199    -1.438894640629     1.007825032070
           H          0.065452077256    -0.957104370212    -1.664386677366     1.007825032070
           C          0.955940294487    -0.969068914182    -1.033246156218    12.000000000000

  Running in c1 symmetry.

  Rotational constants: A =      0.46722  B =      0.15161  C =      0.13535 [cm^-1]
  Rotational constants: A =  14006.99239  B =   4545.25593  C =   4057.61208 [MHz]
  Nuclear repulsion =  132.386709816723538

  Charge       = 0
  Multiplicity = 1
  Electrons    = 34
  Nalpha       = 17
  Nbeta        = 17

  ==> Algorithm <==

  SCF Algorithm Type is DF.
  DIIS enabled.
  MOM disabled.
  Fractional occupation disabled.
  Guess Type is READ.
  Energy threshold   = 1.00e-10
  Density threshold  = 1.00e-10
  Integral threshold = 0.00e+00

  ==> Primary Basis <==

  Basis Set: 6-31G(D)
    Number of shells: 44
    Number of basis function: 80
    Number of Cartesian functions: 80
    Spherical Harmonics?: false
    Max angular momentum: 2

  ==> Pre-Iterations <==

   -------------------------------------------------------
    Irrep   Nso     Nmo     Nalpha   Nbeta   Ndocc  Nsocc
   -------------------------------------------------------
     A         80      80       0       0       0       0
   -------------------------------------------------------
    Total      80      80      17      17      17       0
   -------------------------------------------------------

  ==> Integral Setup <==

  ==> DFJK: Density-Fitted J/K Matrices <==

    J tasked:                  Yes
    K tasked:                  Yes
    wK tasked:                  No
    OpenMP threads:              1
    Integrals threads:           1
    Memory (MB):               715
    Algorithm:                Core
    Integral Cache:           NONE
    Schwarz Cutoff:          1E-12
    Fitting Condition:       1E-12

   => Auxiliary Basis Set <=

  Basis Set: 
    Number of shells: 186
    Number of basis function: 574
    Number of Cartesian functions: 574
    Spherical Harmonics?: false
    Max angular momentum: 3

  Minimum eigenvalue in the overlap matrix is 5.4655971932E-03.
  Using Symmetric Orthogonalization.
  SCF Guess was Projection but file not found.
  Switching over to SAD guess.

  SCF Guess: Superposition of Atomic Densities via on-the-fly atomic UHF.

  ==> Iterations <==

                           Total Energy        Delta E     RMS |[F,P]|

   @DF-RHF iter   0:  -158.85815752487892   -1.58858e+02   4.63148e-02 
   @DF-RHF iter   1:  -157.20394832889062    1.65421e+00   3.96528e-03 
   @DF-RHF iter   2:  -157.28674844305007   -8.28001e-02   1.11354e-03 DIIS
   @DF-RHF iter   3:  -157.29482297511103   -8.07453e-03   2.85982e-04 DIIS
   @DF-RHF iter   4:  -157.29527054951879   -4.47574e-04   8.35254e-05 DIIS
   @DF-RHF iter   5:  -157.29531333760562   -4.27881e-05   1.33972e-05 DIIS
   @DF-RHF iter   6:  -157.29531473978895   -1.40218e-06   1.95959e-06 DIIS
   @DF-RHF iter   7:  -157.29531476204025   -2.22513e-08   7.07851e-07 DIIS
   @DF-RHF iter   8:  -157.29531476415505   -2.11480e-09   1.10045e-07 DIIS
   @DF-RHF iter   9:  -157.29531476424970   -9.46443e-11   2.42934e-08 DIIS
   @DF-RHF iter  10:  -157.29531476425453   -4.83169e-12   5.04085e-09 DIIS
   @DF-RHF iter  11:  -157.29531476425481   -2.84217e-13   1.16387e-09 DIIS
   @DF-RHF iter  12:  -157.29531476425458    2.27374e-13   3.15618e-10 DIIS
   @DF-RHF iter  13:  -157.29531476425481   -2.27374e-13   6.27900e-11 DIIS

  ==> Post-Iterations <==

    Orbital Energies (a.u.)
    -----------------------

    Doubly Occupied:                                                      

       1A    -11.215306     2A    -11.214728     3A    -11.209436  
       4A    -11.209430     5A     -1.069279     6A     -0.974838  
       7A     -0.867465     8A     -0.778453     9A     -0.622975  
      10A     -0.619527    11A     -0.575148    12A     -0.535537  
      13A     -0.524882    14A     -0.503096    15A     -0.466311  
      16A     -0.455858    17A     -0.453666  

    Virtual:                                                              

      18A      0.229567    19A      0.274369    20A      0.277389  
      21A      0.293094    22A      0.311813    23A      0.315332  
      24A      0.341372    25A      0.346096    26A      0.350176  
      27A      0.390558    28A      0.393599    29A      0.435685  
      30A      0.458885    31A      0.709428    32A      0.726568  
      33A      0.729065    34A      0.743121    35A      0.767205  
      36A      0.838785    37A      0.872657    38A      0.929812  
      39A      0.954358    40A      1.001074    41A      1.083179  
      42A      1.115377    43A      1.152108    44A      1.153024  
      45A      1.179833    46A      1.180778    47A      1.188457  
      48A      1.228582    49A      1.236818    50A      1.244605  
      51A      1.249027    52A      1.266550    53A      1.283879  
      54A      1.497308    55A      1.716115    56A      1.721803  
      57A      1.853815    58A      1.858866    59A      1.995024  
      60A      2.047881    61A      2.189479    62A      2.243648  
      63A      2.278700    64A      2.297861    65A      2.362176  
      66A      2.441355    67A      2.446351    68A      2.586606  
      69A      2.633319    70A      2.651098    71A      2.700815  
      72A      2.753757    73A      2.792311    74A      2.926680  
      75A      2.975403    76A      3.071269    77A      4.558243  
      78A      4.671369    79A      4.834846    80A      4.937674  

    Final Occupation by Irrep:
              A 
    DOCC [    17 ]

  Energy converged.

  @DF-RHF Final Energy:  -157.29531476425481

   => Energetics <=

    Nuclear Repulsion Energy =            132.3867098167235383
    One-Electron Energy =                -472.7721814490361680
    Two-Electron Energy =                 183.0901568680578180
    DFT Exchange-Correlation Energy =       0.0000000000000000
    Empirical Dispersion Energy =           0.0000000000000000
    PCM Polarization Energy =               0.0000000000000000
    EFP Energy =                            0.0000000000000000
    Total Energy =                       -157.2953147642547833


  Saving occupied orbitals to File 180.

*** tstop() called on lski1497 at Thu Feb 16 16:41:24 2017
Module time:
	user time   =       5.00 seconds =       0.08 minutes
	system time =       0.14 seconds =       0.00 minutes
	total time  =          7 seconds =       0.12 minutes
Total time:
	user time   =      52.02 seconds =       0.87 minutes
	system time =       1.48 seconds =       0.02 minutes
	total time  =         61 seconds =       1.02 minutes


Properties will be evaluated at   0.000000,   0.000000,   0.000000 Bohr

Properties computed using the SCF density matrix

  Nuclear Dipole Moment: (a.u.)
     X:    -0.4428      Y:    -0.1404      Z:    -0.7098

  Electronic Dipole Moment: (a.u.)
     X:     0.4590      Y:     0.1454      Z:     0.7356

  Dipole Moment: (a.u.)
     X:     0.0162      Y:     0.0051      Z:     0.0258     Total:     0.0308

  Dipole Moment: (Debye)
     X:     0.0411      Y:     0.0129      Z:     0.0655     Total:     0.0784


  //>>>>>>>>>>>>>>>>>>>>>>>>>>>>>>>>>>>//
  //               DFMP2               //
  //<<<<<<<<<<<<<<<<<<<<<<<<<<<<<<<<<<<//


*** tstart() called on lski1497
*** at Thu Feb 16 16:41:24 2017


*** tstop() called on lski1497 at Thu Feb 16 16:41:24 2017
Module time:
	user time   =       0.53 seconds =       0.01 minutes
	system time =       0.00 seconds =       0.00 minutes
	total time  =          0 seconds =       0.00 minutes
Total time:
	user time   =      52.57 seconds =       0.88 minutes
	system time =       1.48 seconds =       0.02 minutes
	total time  =         61 seconds =       1.02 minutes
	 --------------------------------------------------------
	                          DF-MP2                         
	      2nd-Order Density-Fitted Moller-Plesset Theory     
	              RMP2 Wavefunction,   1 Threads             
	                                                         
	        Rob Parrish, Justin Turney, Andy Simmonett,      
	           Ed Hohenstein, and C. David Sherrill          
	 --------------------------------------------------------

   => Auxiliary Basis Set <=

  Basis Set: 
    Number of shells: 132
    Number of basis function: 364
    Number of Cartesian functions: 414
    Spherical Harmonics?: true
    Max angular momentum: 3

	 --------------------------------------------------------
	                 NBF =    80, NAUX =   364
	 --------------------------------------------------------
	   CLASS    FOCC     OCC    AOCC    AVIR     VIR    FVIR
	   PAIRS       0      17      17      63      63       0
	 --------------------------------------------------------

DGAS Warning! /src/lib/libfock/apps.cc:80 is not currently checking restricted

         ------------------------------------------------------------
                                     CPHF                           
                                  Rob Parrish                       
         ------------------------------------------------------------

  ==> Geometry <==

    Molecular point group: c1
    Full point group: C1

    Geometry (in Angstrom), charge = 0, multiplicity = 1:

       Center              X                  Y                   Z               Mass       
    ------------   -----------------  -----------------  -----------------  -----------------
           H         -2.060518349850     0.130628318897     0.820129499952     1.007825032070
           H         -1.926464204755     1.798538446952     0.242342297251     1.007825032070
           H         -1.650371660687     0.454718049903    -0.871027454351     1.007825032070
           C         -1.504759584931     0.795179960878     0.155714720479    12.000000000000
           H          0.520422576497     1.475974377621    -0.135383154828     1.007825032070
           H          0.088484152363     1.154146961139     1.553511260817     1.007825032070
           C         -0.018331361513     0.792814729195     0.527451120318    12.000000000000
           H          1.518279469866    -0.645056607846     1.015752925920     1.007825032070
           H         -0.098218223901    -1.342349980666     0.810374655197     1.007825032070
           C          0.606819824807    -0.606351276467     0.413673232332    12.000000000000
           H          1.397137330996    -1.966138610013    -1.089608679123     1.007825032070
           H          1.673462787067    -0.253078996199    -1.438894640629     1.007825032070
           H          0.065452077256    -0.957104370212    -1.664386677366     1.007825032070
           C          0.955940294487    -0.969068914182    -1.033246156218    12.000000000000

  Nuclear repulsion =  132.386709816723510
  Reference energy  = -157.295314764254812

  ==> Basis Set <==

  Basis Set: 6-31G(D)
    Number of shells: 44
    Number of basis function: 80
[...]
    Integral Cache:           NONE
    Schwarz Cutoff:          1E-12
    Fitting Condition:       1E-12

   => Auxiliary Basis Set <=

  Basis Set: 
    Number of shells: 186
    Number of basis function: 574
    Number of Cartesian functions: 574
    Spherical Harmonics?: false
    Max angular momentum: 3

  ==> CPHF Iterations <==

  => Iterations <=

             Iter  Converged  Remaining    Residual
  CGR           1          0          1   7.622E-02
  CGR           2          0          1   9.085E-03
  CGR           3          0          1   2.529E-03
  CGR           4          0          1   4.360E-04
  CGR           5          0          1   8.211E-05
  CGR           6          0          1   1.605E-05
  CGR           7          0          1   2.220E-06
  CGR           8          1          0   4.420E-07

    CGRSolver converged.

  ==> DFCorrGrad: Density-Fitted Correlated Gradients <==

    OpenMP threads:              1
    Integrals threads:           1
    Memory (MB):               715
    Schwarz Cutoff:          0E+00
    Fitting Condition:       1E-12

   => Auxiliary Basis Set <=

  Basis Set: 
    Number of shells: 186
    Number of basis function: 510
    Number of Cartesian functions: 574
    Spherical Harmonics?: true
    Max angular momentum: 3

	-----------------------------------------------------------
	 ==================> DF-MP2 Energies <==================== 
	-----------------------------------------------------------
	 Reference Energy          =    -157.2956940237806407 [Eh]
	 Singles Energy            =      -0.0000000000000000 [Eh]
	 Same-Spin Energy          =      -0.1245484274861859 [Eh]
	 Opposite-Spin Energy      =      -0.4224273704971118 [Eh]
	 Correlation Energy        =      -0.5469757979832977 [Eh]
	 Total Energy              =    -157.8426698217639341 [Eh]
	-----------------------------------------------------------
	 ================> DF-SCS-MP2 Energies <================== 
	-----------------------------------------------------------
	 SCS Same-Spin Scale       =       0.3333333333333333 [-]
	 SCS Opposite-Spin Scale   =       1.2000000000000000 [-]
	 SCS Same-Spin Energy      =      -0.0415161424953953 [Eh]
	 SCS Opposite-Spin Energy  =      -0.5069128445965341 [Eh]
	 SCS Correlation Energy    =      -0.5484289870919293 [Eh]
	 SCS Total Energy          =    -157.8441230108725790 [Eh]
	-----------------------------------------------------------


  -Total Gradient:
     Atom            X                  Y                   Z
    ------   -----------------  -----------------  -----------------
       1       -0.000003326398     0.000009586735    -0.000008447071
       2       -0.000012552099     0.000000572172    -0.000004083406
       3        0.000005795539     0.000003779829     0.000008950338
       4       -0.000472585128    -0.000386275919     0.001934668496
       5       -0.000007722297     0.000000781996    -0.000000842168
       6        0.000005543248     0.000005419758    -0.000022744676
       7        0.001357919573     0.000881723614    -0.002555763387
       8       -0.000021320271    -0.000010728091    -0.000002895344
       9        0.000002813337    -0.000002602080    -0.000006788674
      10       -0.002697016198    -0.001305932312     0.000413136325
      11        0.000002302659    -0.000003827202    -0.000011981770
      12       -0.000004350720    -0.000012078873    -0.000003202316
      13        0.000006119351    -0.000000025878     0.000010005685
      14        0.001838379404     0.000819606250     0.000249987969


			-----------------------------------------
			 OPTKING 2.0: for geometry optimizations 
			  - R.A. King,  Bethel University        
			-----------------------------------------

	Previous internal coordinate definitions found.
	---Fragment 1 Geometry and Gradient---
	 H          -3.9208027040        0.2793036985        1.5650089949
	 H          -3.6404063673        3.4217121985        0.4632069113
	 H          -3.1638645699        0.8718220304       -1.6333158445
	 C          -2.8498344055        1.5188600625        0.3041097254
	 H           0.9935011037        2.8222726381       -0.1966522065
	 H           0.1549313501        2.1613804932        2.9413794560
	 C          -0.0500978107        1.4851902088        0.9940761067
	 H           2.8761692940       -1.2007546802        1.9060758635
	 H          -0.1332227246       -2.5496312462        1.5724437470
	 C           1.1492528265       -1.1368406279        0.7637380757
	 H           2.6479592546       -3.7362426922       -2.0503657980
	 H           3.1939307102       -0.5096661697       -2.7274478658
	 H           0.1569752228       -1.8247829165       -3.1754327326
	 C           1.8207928895       -1.8449882230       -1.9497950185
	            -0.0000033264        0.0000095867       -0.0000084471
	            -0.0000125521        0.0000005722       -0.0000040834
	             0.0000057955        0.0000037798        0.0000089503
	            -0.0004725851       -0.0003862759        0.0019346685
	            -0.0000077223        0.0000007820       -0.0000008422
	             0.0000055432        0.0000054198       -0.0000227447
	             0.0013579196        0.0008817236       -0.0025557634
	            -0.0000213203       -0.0000107281       -0.0000028953
	             0.0000028133       -0.0000026021       -0.0000067887
	            -0.0026970162       -0.0013059323        0.0004131363
	             0.0000023027       -0.0000038272       -0.0000119818
	            -0.0000043507       -0.0000120789       -0.0000032023
	             0.0000061194       -0.0000000259        0.0000100057
	             0.0018383794        0.0008196062        0.0002499880

	---Fragment 1 Intrafragment Coordinates---
	 - Coordinate -           - BOHR/RAD -       - ANG/DEG -
	 R(1,4)           =         2.067206	       1.093918
	 R(2,4)           =         2.066679	       1.093639
	 R(3,4)           =         2.066613	       1.093605
	 R(4,7)           =         2.883698	       1.525987
	 R(5,7)           =         2.072371	       1.096652
	 R(6,7)           =         2.071536	       1.096210
	 R(7,10)          =         2.892498	       1.530644
	 R(8,10)          =         2.071536	       1.096210
	 R(9,10)          =         2.072372	       1.096652
	 R(10,14)         =         2.883696	       1.525986
	 R(11,14)         =         2.066679	       1.093639
	 R(12,14)         =         2.067205	       1.093918
	 R(13,14)         =         2.066612	       1.093604
	 B(1,4,2)         =         1.882793	     107.876111
	 B(1,4,3)         =         1.881115	     107.779949
	 B(1,4,7)         =         1.928421	     110.490357
	 B(2,4,3)         =         1.877916	     107.596670
	 B(2,4,7)         =         1.943061	     111.329206
	 B(3,4,7)         =         1.947849	     111.603522
	 B(4,7,5)         =         1.921871	     110.115093
	 B(4,7,6)         =         1.893569	     108.493495
	 B(4,7,10)        =         1.975885	     113.209859
	 B(5,7,6)         =         1.854246	     106.240484
	 B(5,7,10)        =         1.907424	     109.287325
	 B(6,7,10)        =         1.906799	     109.251523
	 B(7,10,8)        =         1.906801	     109.251635
	 B(7,10,9)        =         1.907425	     109.287384
	 B(7,10,14)       =         1.975885	     113.209898
	 B(8,10,9)        =         1.854245	     106.240435
	 B(8,10,14)       =         1.893566	     108.493335
	 B(9,10,14)       =         1.921871	     110.115087
	 B(10,14,11)      =         1.943057	     111.328958
	 B(10,14,12)      =         1.928418	     110.490210
	 B(10,14,13)      =         1.947850	     111.603608
	 B(11,14,12)      =         1.882794	     107.876144
	 B(11,14,13)      =         1.877919	     107.596834
	 B(12,14,13)      =         1.881117	     107.780077
	 D(1,4,7,5)       =        -3.078544	    -176.387601
	 D(1,4,7,6)       =        -1.055985	     -60.503473
	 D(1,4,7,10)      =         1.063662	      60.943338
	 D(2,4,7,5)       =        -0.986798	     -56.539374
	 D(2,4,7,6)       =         1.035761	      59.344754
	 D(2,4,7,10)      =        -3.127777	    -179.208435
	 D(3,4,7,5)       =         1.111863	      63.705085
	 D(3,4,7,6)       =         3.134423	     179.589212
	 D(3,4,7,10)      =        -1.029116	     -58.963977
	 D(4,7,10,8)      =        -2.780534	    -159.312844
	 D(4,7,10,9)      =        -0.758513	     -43.459576
	 D(4,7,10,14)     =         1.390465	      79.667756
	 D(5,7,10,8)      =         1.353675	      77.559887
	 D(5,7,10,9)      =        -2.907489	    -166.586845
	 D(5,7,10,14)     =        -0.758512	     -43.459514
	 D(6,7,10,8)      =        -0.668345	     -38.293345
	 D(6,7,10,9)      =         1.353676	      77.559923
	 D(6,7,10,14)     =        -2.780532	    -159.312745
	 D(7,10,14,11)    =        -3.127781	    -179.208629
	 D(7,10,14,12)    =         1.063662	      60.943362
	 D(7,10,14,13)    =        -1.029117	     -58.964072
	 D(8,10,14,11)    =         1.035757	      59.344506
	 D(8,10,14,12)    =        -1.055985	     -60.503503
	 D(8,10,14,13)    =         3.134420	     179.589063
	 D(9,10,14,11)    =        -0.986800	     -56.539468
	 D(9,10,14,12)    =        -3.078542	    -176.387477
	 D(9,10,14,13)    =         1.111864	      63.705089

	Current energy   :      -157.8426698218

	Energy change for the previous step:
		Projected    :        -0.0000036125
		Actual       :        -0.0000017087

	Performing BFGS update.
	Previous computed or guess Hessian on step 1.
	Steps to be used in Hessian update: 5 4
	Adding user-defined constraint: Fragment 1; Coordinate 49:
		Value =     1.390465; Fixed value    =     1.396260
		Force =     0.003622; Force constant =     0.625000
	Removing off-diagonal coupling between coordinate 49 and others.
	Taking RFO optimization step.
	Going to follow RFO solution 1.
	Rejecting RFO root 1 because normalization gives large value.
	Using RFO vector 2.
	Norm of target step-size    0.00077
	Projected energy change by RFO approximation:        -0.0000000010

	Back-transformation to cartesian coordinates...
	Successfully converged to displaced geometry.

	--- Internal Coordinate Step in ANG or DEG, aJ/ANG or AJ/DEG ---
	 ---------------------------------------------------------------------------
	   Coordinate                Previous        Force       Change         New 
	   ----------                --------       ------       ------       ------
	    1 R(1,4)          =      1.093918     0.000074     0.000041     1.093960
	    2 R(2,4)          =      1.093639    -0.000041     0.000016     1.093656
	    3 R(3,4)          =      1.093605     0.000086     0.000039     1.093644
	    4 R(4,7)          =      1.525987    -0.000020    -0.000010     1.525977
	    5 R(5,7)          =      1.096652     0.000025     0.000030     1.096681
	    6 R(6,7)          =      1.096210     0.000157     0.000023     1.096233
	    7 R(7,10)         =      1.530644    -0.000440    -0.000088     1.530556
	    8 R(8,10)         =      1.096210     0.000157     0.000024     1.096233
	    9 R(9,10)         =      1.096652     0.000022     0.000030     1.096682
	   10 R(10,14)        =      1.525986    -0.000013    -0.000007     1.525979
	   11 R(11,14)        =      1.093639    -0.000040     0.000017     1.093656
	   12 R(12,14)        =      1.093918     0.000077     0.000042     1.093960
	   13 R(13,14)        =      1.093604     0.000090     0.000039     1.093643
	   14 B(1,4,2)        =    107.876111     0.000001     0.002090   107.878201
	   15 B(1,4,3)        =    107.779949     0.000000     0.001524   107.781473
	   16 B(1,4,7)        =    110.490357    -0.000001    -0.000472   110.489885
	   17 B(2,4,3)        =    107.596670     0.000000     0.002325   107.598994
	   18 B(2,4,7)        =    111.329206    -0.000001    -0.008005   111.321201
	   19 B(3,4,7)        =    111.603522     0.000001     0.002871   111.606393
	   20 B(4,7,5)        =    110.115093     0.000002     0.002036   110.117129
	   21 B(4,7,6)        =    108.493495    -0.000001     0.001435   108.494930
	   22 B(4,7,10)       =    113.209859    -0.000001    -0.006964   113.202895
	   23 B(5,7,6)        =    106.240484     0.000000     0.008137   106.248620
	   24 B(5,7,10)       =    109.287325     0.000000     0.000540   109.287864
	   25 B(6,7,10)       =    109.251523    -0.000000    -0.004267   109.247256
	   26 B(7,10,8)       =    109.251635    -0.000000    -0.004437   109.247198
	   27 B(7,10,9)       =    109.287384     0.000000     0.000474   109.287858
	   28 B(7,10,14)      =    113.209898    -0.000001    -0.006887   113.203011
	   29 B(8,10,9)       =    106.240435     0.000000     0.008117   106.248552
	   30 B(8,10,14)      =    108.493335    -0.000001     0.001557   108.494892
	   31 B(9,10,14)      =    110.115087     0.000002     0.002085   110.117172
	   32 B(10,14,11)     =    111.328958    -0.000001    -0.007798   111.321161
	   33 B(10,14,12)     =    110.490210    -0.000001    -0.000414   110.489796
	   34 B(10,14,13)     =    111.603608     0.000001     0.002808   111.606417
	   35 B(11,14,12)     =    107.876144     0.000001     0.002058   107.878202
	   36 B(11,14,13)     =    107.596834     0.000000     0.002206   107.599040
	   37 B(12,14,13)     =    107.780077     0.000000     0.001461   107.781539
	   38 D(1,4,7,5)      =   -176.387601     0.000000     0.003041  -176.384560
	   39 D(1,4,7,6)      =    -60.503473     0.000000     0.014728   -60.488746
	   40 D(1,4,7,10)     =     60.943338    -0.000000     0.005770    60.949107
	   41 D(2,4,7,5)      =    -56.539374    -0.000000     0.000114   -56.539260
	   42 D(2,4,7,6)      =     59.344754     0.000000     0.011801    59.356555
	   43 D(2,4,7,10)     =   -179.208435    -0.000000     0.002842  -179.205592
	   44 D(3,4,7,5)      =     63.705085     0.000000    -0.000456    63.704628
	   45 D(3,4,7,6)      =    179.589212     0.000000     0.011231   179.600443
	   46 D(3,4,7,10)     =    -58.963977    -0.000000     0.002272   -58.961704
	   47 D(4,7,10,8)     =   -159.312844     0.000000    -0.002785  -159.315629
	   48 D(4,7,10,9)     =    -43.459576     0.000000     0.004721   -43.454855
	   49 D(4,7,10,14)    =     79.667756     0.000001     0.002962    79.670718
	   50 D(5,7,10,8)     =     77.559887    -0.000000    -0.000957    77.558930
	   51 D(5,7,10,9)     =   -166.586845    -0.000000     0.006549  -166.580296
	   52 D(5,7,10,14)    =    -43.459514     0.000000     0.004790   -43.454723
	   53 D(6,7,10,8)     =    -38.293345    -0.000000    -0.008618   -38.301963
	   54 D(6,7,10,9)     =     77.559923    -0.000000    -0.001112    77.558811
	   55 D(6,7,10,14)    =   -159.312745     0.000000    -0.002871  -159.315616
	   56 D(7,10,14,11)   =   -179.208629    -0.000000     0.002986  -179.205642
	   57 D(7,10,14,12)   =     60.943362    -0.000000     0.005780    60.949142
	   58 D(7,10,14,13)   =    -58.964072    -0.000000     0.002364   -58.961707
	   59 D(8,10,14,11)   =     59.344506     0.000000     0.012024    59.356530
	   60 D(8,10,14,12)   =    -60.503503     0.000000     0.014818   -60.488685
	   61 D(8,10,14,13)   =    179.589063     0.000000     0.011402   179.600465
	   62 D(9,10,14,11)   =    -56.539468    -0.000000     0.000264   -56.539204
	   63 D(9,10,14,12)   =   -176.387477     0.000000     0.003058  -176.384420
	   64 D(9,10,14,13)   =     63.705089     0.000000    -0.000358    63.704731
	 ---------------------------------------------------------------------------
	 Forces used to impose fixed constraints are not included.
	  Forces zeroed: 49 

  ==> Convergence Check <==

  Measures of convergence in internal coordinates in au.
  Criteria marked as inactive (o), active & met (*), and active & unmet ( ).
  ---------------------------------------------------------------------------------------------
   Step     Total Energy     Delta E     MAX Force     RMS Force      MAX Disp      RMS Disp   
  ---------------------------------------------------------------------------------------------
    Convergence Criteria    1.00e-06 *    3.00e-04 *             o    1.20e-03 *             o
  ---------------------------------------------------------------------------------------------
      6    -157.84266982   -1.71e-06      5.34e-05 *    1.19e-05 o    2.59e-04 *    9.59e-05 o  ~
  ---------------------------------------------------------------------------------------------


  **** Optimization is complete! (in 6 steps) ****

  ==> Optimization Summary <==

  Measures of convergence in internal coordinates in au.
  --------------------------------------------------------------------------------------------------------------- ~
   Step         Total Energy             Delta E       MAX Force       RMS Force        MAX Disp        RMS Disp  ~
  --------------------------------------------------------------------------------------------------------------- ~
      1    -157.836450082285   -157.836450082285      0.01816693      0.00736056      0.02806790      0.01250008  ~
      2    -157.840643349535     -0.004193267250      0.00753127      0.00334717      0.02946881      0.01252832  ~
      3    -157.842217496418     -0.001574146884      0.00216902      0.00100344      0.04694120      0.01251839  ~
      4    -157.842617690709     -0.000400194290      0.00112705      0.00027011      0.02557654      0.01151467  ~
      5    -157.842668113048     -0.000050422339      0.00016580      0.00006041      0.00281007      0.00089960  ~
      6    -157.842669821764     -0.000001708716      0.00005337      0.00001268      0.00025862      0.00009591  ~
  --------------------------------------------------------------------------------------------------------------- ~

	Writing optimization data to binary file.
	Final energy is   -157.8426698217639
	Final (previous) structure:
	Cartesian Geometry (in Angstrom)
	    H    -2.0747994303   0.1478011515   0.8281670914
	    H    -1.9264200796   1.8106921098   0.2451185403
	    H    -1.6742450215   0.4613483484  -0.8643135193
	    C    -1.5080674156   0.8037461281   0.1609279356
	    H     0.5257381408   1.4934823565  -0.1040638657
	    H     0.0819861394   1.1437532961   1.5565109699
	    C    -0.0265106196   0.7859288089   0.5260424192
	    H     1.5220032384  -0.6354120099   1.0086519048
	    H    -0.0704984295  -1.3492067458   0.8321013927
	    C     0.6081584027  -0.6015901501   0.4041527830
	    H     1.4012396868  -1.9771344785  -1.0850068496
	    H     1.6901553377  -0.2697037210  -1.4433032482
	    H     0.0830677102  -0.9656335300  -1.6803666295
	    C     0.9635220987  -0.9763257177  -1.0317870852
	Saving final (previous) structure.
			--------------------------
			 OPTKING Finished Execution 
			--------------------------

    Final optimized geometry and variables:
    Molecular point group: c1
    Full point group: C1

    Geometry (in Angstrom), charge = 0, multiplicity = 1:

    H           -2.074799430315     0.147801151500     0.828167091356
    H           -1.926420079600     1.810692109784     0.245118540343
    H           -1.674245021482     0.461348348430    -0.864313519349
    C           -1.508067415634     0.803746128126     0.160927935592
    H            0.525738140782     1.493482356501    -0.104063865693
    H            0.081986139369     1.143753296094     1.556510969936
    C           -0.026510619627     0.785928808936     0.526042419249
    H            1.522003238449    -0.635412009891     1.008651904811
    H           -0.070498429533    -1.349206745818     0.832101392714
    C            0.608158402680    -0.601590150078     0.404152782980
    H            1.401239686812    -1.977134478480    -1.085006849592
    H            1.690155337656    -0.269703721003    -1.443303248211
    H            0.083067710194    -0.965633530048    -1.680366629519
    C            0.963522098687    -0.976325717743    -1.031787085210

	Cleaning optimization helper files.

*** Psi4 exiting successfully. Buy a developer a beer!
