    -----------------------------------------------------------------------
          Psi4: An Open-Source Ab Initio Electronic Structure Package
                              Psi4 1.0.0 Driver

                          Git: Rev {master} 6a9a71b 

    J. M. Turney, A. C. Simmonett, R. M. Parrish, E. G. Hohenstein,
    F. A. Evangelista, J. T. Fermann, B. J. Mintz, L. A. Burns, J. J. Wilke,
    M. L. Abrams, N. J. Russ, M. L. Leininger, C. L. Janssen, E. T. Seidl,
    W. D. Allen, H. F. Schaefer, R. A. King, E. F. Valeev, C. D. Sherrill,
    and T. D. Crawford, WIREs Comput. Mol. Sci. 2, 556-565 (2012)
    (doi: 10.1002/wcms.93)

                         Additional Contributions by
    A. E. DePrince, U. Bozkaya, A. Yu. Sokolov, D. G. A. Smith, R. Di Remigio,
    R. M. Richard, J. F. Gonthier, H. R. McAlexander, M. Saitow, and
    B. P. Pritchard
    -----------------------------------------------------------------------


    Psi4 started on: Tue Feb 21 17:59:20 2017

    Process ID:  34348
    PSI4DATADIR: /Users/sternc1/anaconda/share/psi4
    Memory level set to 256.000 MB

  ==> Input File <==

--------------------------------------------------------------------------

memory 1000 mb

molecule butane {
  symmetry C1
  0 1 
  H      1.604   0.760   -8.260
  H      1.745   2.388   -8.880
  H      2.043   1.024   -9.930
  C      2.142   1.395   -8.932
  H      4.169   2.051   -9.210
  H      3.731   1.788   -7.539
  C      3.631   1.416   -8.537
  H      5.189   0.020   -9.025
  H      4.242   -0.433   -7.629
  C      4.203   -0.012   -8.612
  H      3.698   -1.873   -9.558
  H      3.260   -0.461   -10.489
  H      2.313   -0.914   -9.093
  C      3.300   -0.881   -9.506
  units Angstrom
}

dih_string = "4 7 10 14 20"
set optking fixed_dihedral = $dih_string

optimize('B3LYP/cc-PVDZ')
--------------------------------------------------------------------------

  Memory set to 1000.000 MiB by Python script.
gradient() will perform analytic gradient computation.

*** tstart() called on lski1497
*** at Tue Feb 21 17:59:21 2017


         ---------------------------------------------------------
                                   SCF
            by Justin Turney, Rob Parrish, and Andy Simmonett
                              RKS Reference
                        1 Threads,   1000 MiB Core
         ---------------------------------------------------------

  ==> Geometry <==

    Molecular point group: c1
    Full point group: C1

    Geometry (in Angstrom), charge = 0, multiplicity = 1:

       Center              X                  Y                   Z               Mass       
    ------------   -----------------  -----------------  -----------------  -----------------
           H         -1.694245952974     0.288222032547     0.647951285414     1.007825032070
           H         -1.553245952974     1.916222032547     0.027951285414     1.007825032070
           H         -1.255245952974     0.552222032547    -1.022048714586     1.007825032070
           C         -1.156245952974     0.923222032547    -0.024048714586    12.000000000000
           H          0.870754047026     1.579222032547    -0.302048714586     1.007825032070
           H          0.432754047026     1.316222032547     1.368951285414     1.007825032070
           C          0.332754047026     0.944222032547     0.370951285414    12.000000000000
           H          1.890754047026    -0.451777967453    -0.117048714586     1.007825032070
           H          0.943754047026    -0.904777967453     1.278951285414     1.007825032070
           C          0.904754047026    -0.483777967453     0.295951285414    12.000000000000
           H          0.399754047026    -2.344777967453    -0.650048714586     1.007825032070
           H         -0.038245952974    -0.932777967453    -1.581048714586     1.007825032070
           H         -0.985245952974    -1.385777967453    -0.185048714586     1.007825032070
           C          0.001754047026    -1.352777967453    -0.598048714586    12.000000000000

  Running in c1 symmetry.

  Rotational constants: A =      0.38128  B =      0.20637  C =      0.14976 [cm^-1]
  Rotational constants: A =  11430.59635  B =   6186.68213  C =   4489.73113 [MHz]
  Nuclear repulsion =  136.318242238261377

  Charge       = 0
  Multiplicity = 1
  Electrons    = 34
  Nalpha       = 17
  Nbeta        = 17

  ==> Algorithm <==

  SCF Algorithm Type is DF.
  DIIS enabled.
  MOM disabled.
  Fractional occupation disabled.
  Guess Type is SAD.
  Energy threshold   = 1.00e-08
  Density threshold  = 1.00e-08
  Integral threshold = 0.00e+00

  ==> Primary Basis <==

  Basis Set: CC-PVDZ
    Number of shells: 54
    Number of basis function: 106
    Number of Cartesian functions: 110
    Spherical Harmonics?: true
    Max angular momentum: 2

  ==> DFT Potential <==

   => B3LYP Composite Functional <= 

    B3LYP Hybrid-GGA Exchange-Correlation Functional (VWN1-RPA)

    P.J. Stephens et. al., J. Phys. Chem., 98, 11623-11627, 1994

    Points   =           5000
    Deriv    =              1
    GGA      =           TRUE
    Meta     =          FALSE

    X_LRC        =          FALSE
    X_Hybrid     =           TRUE
    X_Alpha      =   2.000000E-01
    X_Omega      =   0.000000E+00
    C_LRC        =          FALSE
    C_Hybrid     =          FALSE
    C_Alpha      =   0.000000E+00
    C_Omega      =   0.000000E+00

   => Exchange Functionals <=

    0.8000    B3_X
    0.2000      HF 

   => Correlation Functionals <=

    0.1900 VWN3RPA_C
    0.8100   LYP_C

   => Molecular Quadrature <=

    Radial Scheme    =       TREUTLER
    Pruning Scheme   =           FLAT
    Nuclear Scheme   =       TREUTLER

    BS radius alpha  =              1
    Pruning alpha    =              1
    Radial Points    =             75
    Spherical Points =            302
    Total Points     =         312681
    Total Blocks     =            276
    Max Points       =           4885
    Max Functions    =            106

  ==> Pre-Iterations <==

   -------------------------------------------------------
    Irrep   Nso     Nmo     Nalpha   Nbeta   Ndocc  Nsocc
   -------------------------------------------------------
     A        106     106       0       0       0       0
   -------------------------------------------------------
    Total     106     106      17      17      17       0
   -------------------------------------------------------

  ==> Integral Setup <==

  ==> DFJK: Density-Fitted J/K Matrices <==

    J tasked:                  Yes
    K tasked:                  Yes
    wK tasked:                  No
    OpenMP threads:              1
    Integrals threads:           1
    Memory (MB):               715
    Algorithm:                Core
    Integral Cache:           NONE
    Schwarz Cutoff:          1E-12
    Fitting Condition:       1E-12

   => Auxiliary Basis Set <=

  Basis Set: 
    Number of shells: 186
    Number of basis function: 510
    Number of Cartesian functions: 574
    Spherical Harmonics?: true
    Max angular momentum: 3

  Minimum eigenvalue in the overlap matrix is 3.1927343820E-03.
  Using Symmetric Orthogonalization.
  SCF Guess: Superposition of Atomic Densities via on-the-fly atomic UHF.

  ==> Iterations <==

                           Total Energy        Delta E     RMS |[F,P]|

   @DF-RKS iter   0:  -159.04863377073619   -1.59049e+02   3.38325e-02 
   @DF-RKS iter   1:  -158.25718261339995    7.91451e-01   5.28595e-03 
   @DF-RKS iter   2:  -158.18193803442801    7.52446e-02   6.42723e-03 DIIS
   @DF-RKS iter   3:  -158.43369810275277   -2.51760e-01   4.01238e-04 DIIS
   @DF-RKS iter   4:  -158.43460564887593   -9.07546e-04   1.05725e-04 DIIS
   @DF-RKS iter   5:  -158.43466063212946   -5.49833e-05   4.23434e-05 DIIS
   @DF-RKS iter   6:  -158.43467017730251   -9.54517e-06   7.51809e-06 DIIS
   @DF-RKS iter   7:  -158.43467052268392   -3.45381e-07   1.00561e-06 DIIS
   @DF-RKS iter   8:  -158.43467052943583   -6.75192e-09   1.58623e-07 DIIS
   @DF-RKS iter   9:  -158.43467052955856   -1.22725e-10   8.00737e-08 DIIS
   @DF-RKS iter  10:  -158.43467052959323   -3.46745e-11   1.37854e-08 DIIS
   @DF-RKS iter  11:  -158.43467052959446   -1.22213e-12   1.46742e-09 DIIS

  ==> Post-Iterations <==

    Orbital Energies (a.u.)
    -----------------------

    Doubly Occupied:                                                      

       1A    -10.169171     2A    -10.168975     3A    -10.161667  
       4A    -10.161618     5A     -0.799770     6A     -0.711444  
       7A     -0.651799     8A     -0.559611     9A     -0.474353  
      10A     -0.458010    11A     -0.407160    12A     -0.390170  
      13A     -0.377528    14A     -0.360452    15A     -0.320950  
      16A     -0.317631    17A     -0.316084  

    Virtual:                                                              

      18A      0.060518    19A      0.094815    20A      0.099331  
      21A      0.111574    22A      0.132109    23A      0.133747  
      24A      0.159296    25A      0.176194    26A      0.184097  
      27A      0.191436    28A      0.219112    29A      0.242834  
      30A      0.281513    31A      0.413033    32A      0.430327  
      33A      0.436508    34A      0.447688    35A      0.473860  
      36A      0.481066    37A      0.502348    38A      0.591752  
      39A      0.599757    40A      0.630763    41A      0.638383  
      42A      0.663194    43A      0.663490    44A      0.671876  
      45A      0.672761    46A      0.697934    47A      0.704832  
      48A      0.707345    49A      0.737338    50A      0.751250  
      51A      0.779512    52A      0.832702    53A      0.869222  
      54A      0.913710    55A      0.969215    56A      1.070715  
      57A      1.202900    58A      1.216818    59A      1.228902  
      60A      1.271891    61A      1.320000    62A      1.342100  
      63A      1.426612    64A      1.471655    65A      1.509399  
      66A      1.568087    67A      1.584317    68A      1.602399  
      69A      1.614805    70A      1.644504    71A      1.649430  
      72A      1.664856    73A      1.688755    74A      1.699761  
      75A      1.702858    76A      1.714862    77A      1.721606  
      78A      1.760946    79A      1.769322    80A      1.822073  
      81A      1.833138    82A      1.884259    83A      1.894440  
      84A      1.939374    85A      1.969691    86A      1.992718  
      87A      2.041939    88A      2.078244    89A      2.130741  
      90A      2.161486    91A      2.236114    92A      2.258021  
      93A      2.296835    94A      2.315503    95A      2.372530  
      96A      2.389359    97A      2.497260    98A      2.499755  
      99A      2.520972   100A      2.541695   101A      2.597427  
     102A      2.614289   103A      2.652221   104A      2.654078  
     105A      2.688473   106A      2.790332  

    Final Occupation by Irrep:
              A 
    DOCC [    17 ]

  Energy converged.

  @DF-RKS Final Energy:  -158.43467052959446

   => Energetics <=

    Nuclear Repulsion Energy =            136.3182422382613765
    One-Electron Energy =                -481.0180526247752937
    Two-Electron Energy =                 206.9603178394795293
    DFT Exchange-Correlation Energy =     -20.6951779825600468
    Empirical Dispersion Energy =           0.0000000000000000
    PCM Polarization Energy =               0.0000000000000000
    EFP Energy =                            0.0000000000000000
    Total Energy =                       -158.4346705295944560


  Saving occupied orbitals to File 180.

*** tstop() called on lski1497 at Tue Feb 21 18:01:39 2017
Module time:
	user time   =     116.67 seconds =       1.94 minutes
	system time =       1.31 seconds =       0.02 minutes
	total time  =        138 seconds =       2.30 minutes
Total time:
	user time   =     116.67 seconds =       1.94 minutes
	system time =       1.31 seconds =       0.02 minutes
	total time  =        138 seconds =       2.30 minutes


Properties will be evaluated at   0.000000,   0.000000,   0.000000 Bohr

Properties computed using the SCF density matrix

  Nuclear Dipole Moment: (a.u.)
     X:    -0.9267      Y:    -0.3448      Z:    -0.5001

  Electronic Dipole Moment: (a.u.)
     X:     0.9386      Y:     0.3489      Z:     0.5062

  Dipole Moment: (a.u.)
     X:     0.0119      Y:     0.0041      Z:     0.0061     Total:     0.0140

  Dipole Moment: (Debye)
     X:     0.0303      Y:     0.0105      Z:     0.0155     Total:     0.0356


*** tstart() called on lski1497
*** at Tue Feb 21 18:01:39 2017


         ------------------------------------------------------------
                                   SCF GRAD                          
                          Rob Parrish, Justin Turney,                
                       Andy Simmonett, and Alex Sokolov              
         ------------------------------------------------------------

  ==> Geometry <==

    Molecular point group: c1
    Full point group: C1

    Geometry (in Angstrom), charge = 0, multiplicity = 1:

       Center              X                  Y                   Z               Mass       
    ------------   -----------------  -----------------  -----------------  -----------------
           H         -1.694245952974     0.288222032547     0.647951285414     1.007825032070
           H         -1.553245952974     1.916222032547     0.027951285414     1.007825032070
           H         -1.255245952974     0.552222032547    -1.022048714586     1.007825032070
           C         -1.156245952974     0.923222032547    -0.024048714586    12.000000000000
           H          0.870754047026     1.579222032547    -0.302048714586     1.007825032070
           H          0.432754047026     1.316222032547     1.368951285414     1.007825032070
           C          0.332754047026     0.944222032547     0.370951285414    12.000000000000
           H          1.890754047026    -0.451777967453    -0.117048714586     1.007825032070
           H          0.943754047026    -0.904777967453     1.278951285414     1.007825032070
           C          0.904754047026    -0.483777967453     0.295951285414    12.000000000000
           H          0.399754047026    -2.344777967453    -0.650048714586     1.007825032070
           H         -0.038245952974    -0.932777967453    -1.581048714586     1.007825032070
           H         -0.985245952974    -1.385777967453    -0.185048714586     1.007825032070
           C          0.001754047026    -1.352777967453    -0.598048714586    12.000000000000

  Nuclear repulsion =  136.318242238261377

  ==> Basis Set <==

  Basis Set: CC-PVDZ
    Number of shells: 54
    Number of basis function: 106
    Number of Cartesian functions: 110
    Spherical Harmonics?: true
    Max angular momentum: 2

  ==> DFJKGrad: Density-Fitted SCF Gradients <==

    Gradient:                    1
    J tasked:                  Yes
    K tasked:                  Yes
    wK tasked:                  No
    OpenMP threads:              1
    Integrals threads:           1
    Memory (MB):               715
    Schwarz Cutoff:          0E+00
    Fitting Condition:       1E-12

   => Auxiliary Basis Set <=

  Basis Set: 
    Number of shells: 186
    Number of basis function: 510
    Number of Cartesian functions: 574
    Spherical Harmonics?: true
    Max angular momentum: 3

  ==> DFT Potential <==

   => B3LYP Composite Functional <= 

    B3LYP Hybrid-GGA Exchange-Correlation Functional (VWN1-RPA)

    P.J. Stephens et. al., J. Phys. Chem., 98, 11623-11627, 1994

    Points   =           5000
    Deriv    =              1
    GGA      =           TRUE
    Meta     =          FALSE

    X_LRC        =          FALSE
    X_Hybrid     =           TRUE
    X_Alpha      =   2.000000E-01
    X_Omega      =   0.000000E+00
    C_LRC        =          FALSE
    C_Hybrid     =          FALSE
    C_Alpha      =   0.000000E+00
    C_Omega      =   0.000000E+00

   => Exchange Functionals <=

    0.8000    B3_X
    0.2000      HF 

   => Correlation Functionals <=

    0.1900 VWN3RPA_C
    0.8100   LYP_C

   => Molecular Quadrature <=

    Radial Scheme    =       TREUTLER
    Pruning Scheme   =           FLAT
    Nuclear Scheme   =       TREUTLER

    BS radius alpha  =              1
    Pruning alpha    =              1
    Radial Points    =             75
    Spherical Points =            302
    Total Points     =         312681
    Total Blocks     =            276
    Max Points       =           4885
    Max Functions    =            106


  -Total Gradient:
     Atom            X                  Y                   Z
    ------   -----------------  -----------------  -----------------
       1        0.015105683182     0.010075836494    -0.012245685268
       2        0.011374129619    -0.019465027431    -0.000922698226
       3        0.007900333753     0.002126980459     0.016938739293
       4       -0.024999896179    -0.018033724141    -0.010428620229
       5       -0.010672054567    -0.016113606137     0.012232944578
       6       -0.004188111698    -0.012253093029    -0.019079330666
       7        0.019689766741     0.023212953222     0.008028689799
       8       -0.022677502981     0.002236683833     0.004784460870
       9       -0.003413928677     0.010882135325    -0.020042919891
      10        0.025989239161    -0.006475866977     0.016509075685
      11       -0.006394376926     0.021776601638     0.003678267564
      12        0.001975437833    -0.003736344430     0.021497139628
      13        0.016246257620     0.007200328358    -0.003256849813
      14       -0.025924342736    -0.001431524590    -0.017688390588


*** tstop() called on lski1497 at Tue Feb 21 18:02:24 2017
Module time:
	user time   =      39.01 seconds =       0.65 minutes
	system time =       0.63 seconds =       0.01 minutes
	total time  =         45 seconds =       0.75 minutes
Total time:
	user time   =     155.71 seconds =       2.60 minutes
	system time =       1.94 seconds =       0.03 minutes
	total time  =        183 seconds =       3.05 minutes

			-----------------------------------------
			 OPTKING 2.0: for geometry optimizations 
			  - R.A. King,  Bethel University        
			-----------------------------------------

	Internal coordinates to be generated automatically.
	Detected frag 1 with atoms:  1 2 3 4 5 6 7 8 9 10 11 12 13 14
	---Fragment 1 Bond Connectivity---
	 1 : 4
	 2 : 4
	 3 : 4
	 4 : 1 2 3 7
	 5 : 7
	 6 : 7
	 7 : 4 5 6 10
	 8 : 10
	 9 : 10
	 10 : 7 8 9 14
	 11 : 14
	 12 : 14
	 13 : 14
	 14 : 10 11 12 13

	Assuming in current code that numbering for constraints corresponds to unified fragment.
	Fixed dihedral atom list: 
	     4     7    10    14
	---Fragment 1 Geometry and Gradient---
	 H          -3.2016608529        0.5446607070        1.2244504769
	 H          -2.9352094681        3.6211348513        0.0528202745
	 H          -2.3720710805        1.0435484061       -1.9313921650
	 C          -2.1849881934        1.7446368014       -0.0454454844
	 H           1.6454866780        2.9842971445       -0.5707893494
	 H           0.8177866318        2.4872991716        2.5869430187
	 C           0.6288140185        1.7843210502        0.7009963381
	 H           3.5730073335       -0.8537366314       -0.2211900148
	 H           1.7834366857       -1.7097825696        2.4168676667
	 C           1.7097373665       -0.9142078676        0.5592668781
	 H           0.7554256694       -4.4309882009       -1.2284140436
	 H          -0.0722743768       -1.7626949013       -2.9877490733
	 H          -1.8618450247       -2.6187408395       -0.3496913918
	 C           0.0033146685       -2.5563798771       -1.1301482847
	             0.0151056832        0.0100758365       -0.0122456853
	             0.0113741296       -0.0194650274       -0.0009226982
	             0.0079003338        0.0021269805        0.0169387393
	            -0.0249998962       -0.0180337241       -0.0104286202
	            -0.0106720546       -0.0161136061        0.0122329446
	            -0.0041881117       -0.0122530930       -0.0190793307
	             0.0196897667        0.0232129532        0.0080286898
	            -0.0226775030        0.0022366838        0.0047844609
	            -0.0034139287        0.0108821353       -0.0200429199
	             0.0259892392       -0.0064758670        0.0165090757
	            -0.0063943769        0.0217766016        0.0036782676
	             0.0019754378       -0.0037363444        0.0214971396
	             0.0162462576        0.0072003284       -0.0032568498
	            -0.0259243427       -0.0014315246       -0.0176883906

	Previous optimization step data not found.  Starting new optimization.

	---Fragment 1 Intrafragment Coordinates---
	 - Coordinate -           - BOHR/RAD -       - ANG/DEG -
	 R(1,4)           =         2.021436	       1.069698
	 R(2,4)           =         2.023298	       1.070683
	 R(3,4)           =         2.020723	       1.069320
	 R(4,7)           =         2.911397	       1.540645
	 R(5,7)           =         2.022623	       1.070326
	 R(6,7)           =         2.021555	       1.069761
	 R(7,10)          =         2.910419	       1.540128
	 R(8,10)          =         2.021026	       1.069481
	 R(9,10)          =         2.022140	       1.070071
	 R(10,14)         =         2.909077	       1.539417
	 R(11,14)         =         2.022247	       1.070127
	 R(12,14)         =         2.021467	       1.069714
	 R(13,14)         =         2.022825	       1.070433
	 B(1,4,2)         =         1.910870	     109.484805
	 B(1,4,3)         =         1.911121	     109.499161
	 B(1,4,7)         =         1.910399	     109.457783
	 B(2,4,3)         =         1.910042	     109.437340
	 B(2,4,7)         =         1.910564	     109.467262
	 B(3,4,7)         =         1.910803	     109.480971
	 B(4,7,5)         =         1.909937	     109.431343
	 B(4,7,6)         =         1.911630	     109.528316
	 B(4,7,10)        =         1.911154	     109.501062
	 B(5,7,6)         =         1.910605	     109.469614
	 B(5,7,10)        =         1.910047	     109.437654
	 B(6,7,10)        =         1.910425	     109.459295
	 B(7,10,8)        =         1.910778	     109.479538
	 B(7,10,9)        =         1.910905	     109.486805
	 B(7,10,14)       =         1.911155	     109.501117
	 B(8,10,9)        =         1.910192	     109.445931
	 B(8,10,14)       =         1.910731	     109.476816
	 B(9,10,14)       =         1.910038	     109.437096
	 B(10,14,11)      =         1.910645	     109.471881
	 B(10,14,12)      =         1.911297	     109.509223
	 B(10,14,13)      =         1.911557	     109.524147
	 B(11,14,12)      =         1.910510	     109.464170
	 B(11,14,13)      =         1.910386	     109.457048
	 B(12,14,13)      =         1.909404	     109.400813
	 D(1,4,7,5)       =         3.140997	     179.965873
	 D(1,4,7,6)       =        -1.047644	     -60.025575
	 D(1,4,7,10)      =         1.047427	      60.013132
	 D(2,4,7,5)       =        -1.047689	     -60.028143
	 D(2,4,7,6)       =         1.046856	      59.980409
	 D(2,4,7,10)      =        -3.141259	    -179.980883
	 D(3,4,7,5)       =         1.046044	      59.933911
	 D(3,4,7,6)       =         3.140588	     179.942463
	 D(3,4,7,10)      =        -1.047526	     -60.018830
	 D(4,7,10,8)      =         2.444072	     140.034999
	 D(4,7,10,9)      =        -1.745004	     -99.981338
	 D(4,7,10,14)     =         0.349148	      20.004725
	 D(5,7,10,8)      =         0.350569	      20.086123
	 D(5,7,10,9)      =         2.444679	     140.069787
	 D(5,7,10,14)     =        -1.744354	     -99.944151
	 D(6,7,10,8)      =        -1.743306	     -99.884075
	 D(6,7,10,9)      =         0.350804	      20.099588
	 D(6,7,10,14)     =         2.444956	     140.085651
	 D(7,10,14,11)    =         3.141326	     179.984745
	 D(7,10,14,12)    =         1.046669	      59.969693
	 D(7,10,14,13)    =        -1.047194	     -59.999780
	 D(8,10,14,11)    =         1.046374	      59.952807
	 D(8,10,14,12)    =        -1.048284	     -60.062245
	 D(8,10,14,13)    =         3.141039	     179.968281
	 D(9,10,14,11)    =        -1.047176	     -59.998769
	 D(9,10,14,12)    =         3.141351	     179.986179
	 D(9,10,14,13)    =         1.047489	      60.016706

	Current energy   :      -158.4346705296

	Generating empirical Hessian (Schlegel '84) for each fragment.
	Adding user-defined constraint: Fragment 1; Coordinate 49:
		Value =     0.349148; Fixed value    =     0.349066
		Force =    -0.000041; Force constant =     0.500000
	Removing off-diagonal coupling between coordinate 49 and others.
	Taking RFO optimization step.
	Going to follow RFO solution 1.
	Using RFO vector 1.

	Determining step-restricting scale parameter for RS-RFO.
	Maximum step size allowed    0.10000

	 Iter      |step|        alpha        rfo_root  
	------------------------------------------------
	    0     0.46785       1.00000           1
	    1     0.31062       4.45711           1
	    2     0.20793      13.88440           1
	    3     0.14736      32.68072           1
	    4     0.11546      57.73383           1
	    5     0.10263      75.40417           1
	    6     0.10010      79.74889           1
	    7     0.10000      79.92851           1
	------------------------------------------------
	Norm of target step-size    0.10000
	Projected energy change by RFO approximation:        -0.0122358270

	Back-transformation to cartesian coordinates...
	Could not converge backtransformation.
	Using first guess instead.

	--- Internal Coordinate Step in ANG or DEG, aJ/ANG or AJ/DEG ---
	 ---------------------------------------------------------------------------
	   Coordinate                Previous        Force       Change         New 
	   ----------                --------       ------       ------       ------
	    1 R(1,4)          =      1.069698     0.175249     0.008543     1.078241
	    2 R(2,4)          =      1.070683     0.183846     0.009735     1.080417
	    3 R(3,4)          =      1.069320     0.142347     0.007519     1.076839
	    4 R(4,7)          =      1.540645     0.057759     0.004521     1.545166
	    5 R(5,7)          =      1.070326     0.186328     0.008760     1.079086
	    6 R(6,7)          =      1.069761     0.184979     0.008862     1.078623
	    7 R(7,10)         =      1.540128     0.278272     0.013981     1.554109
	    8 R(8,10)         =      1.069481     0.186926     0.008953     1.078433
	    9 R(9,10)         =      1.070071     0.187992     0.008836     1.078907
	   10 R(10,14)        =      1.539417     0.062819     0.004775     1.544193
	   11 R(11,14)        =      1.070127     0.187379     0.009896     1.080023
	   12 R(12,14)        =      1.069714     0.175446     0.008552     1.078267
	   13 R(13,14)        =      1.070433     0.135592     0.007212     1.077645
	   14 B(1,4,2)        =    109.484805    -0.000365    -0.219821   109.264983
	   15 B(1,4,3)        =    109.499161    -0.000329    -0.283079   109.216082
	   16 B(1,4,7)        =    109.457783     0.000389     0.246815   109.704597
	   17 B(2,4,3)        =    109.437340    -0.000432    -0.262303   109.175038
	   18 B(2,4,7)        =    109.467262     0.000100     0.077112   109.544374
	   19 B(3,4,7)        =    109.480971     0.000638     0.437676   109.918647
	   20 B(4,7,5)        =    109.431343    -0.001187    -0.747619   108.683724
	   21 B(4,7,6)        =    109.528316    -0.001364    -0.818794   108.709523
	   22 B(4,7,10)       =    109.501062     0.004349     2.702387   112.203449
	   23 B(5,7,6)        =    109.469614     0.000519     0.247865   109.717479
	   24 B(5,7,10)       =    109.437654    -0.001130    -0.672672   108.764982
	   25 B(6,7,10)       =    109.459295    -0.001187    -0.718938   108.740356
	   26 B(7,10,8)       =    109.479538    -0.001191    -0.721505   108.758033
	   27 B(7,10,9)       =    109.486805    -0.001135    -0.676359   108.810446
	   28 B(7,10,14)      =    109.501117     0.004354     2.705097   112.206214
	   29 B(8,10,9)       =    109.445931     0.000521     0.248948   109.694879
	   30 B(8,10,14)      =    109.476816    -0.001360    -0.815633   108.661183
	   31 B(9,10,14)      =    109.437096    -0.001190    -0.749293   108.687803
	   32 B(10,14,11)     =    109.471881     0.000105     0.080340   109.552221
	   33 B(10,14,12)     =    109.509223     0.000379     0.241103   109.750327
	   34 B(10,14,13)     =    109.524147     0.000634     0.436194   109.960341
	   35 B(11,14,12)     =    109.464170    -0.000363    -0.218600   109.245570
	   36 B(11,14,13)     =    109.457048    -0.000436    -0.265882   109.191167
	   37 B(12,14,13)     =    109.400813    -0.000321    -0.277521   109.123292
	   38 D(1,4,7,5)      =    179.965873     0.000134     0.353881   180.319754
	   39 D(1,4,7,6)      =    -60.025575    -0.000079    -0.278174   -60.303749
	   40 D(1,4,7,10)     =     60.013132     0.000008    -0.011879    60.001254
	   41 D(2,4,7,5)      =    -60.028143     0.000100     0.283305   -59.744837
	   42 D(2,4,7,6)      =     59.980409    -0.000113    -0.348750    59.631660
	   43 D(2,4,7,10)     =   -179.980883    -0.000026    -0.082454  -180.063338
	   44 D(3,4,7,5)      =     59.933911     0.000082     0.278223    60.212134
	   45 D(3,4,7,6)      =    179.942463    -0.000131    -0.353832   179.588631
	   46 D(3,4,7,10)     =    -60.018830    -0.000044    -0.087537   -60.106366
	   47 D(4,7,10,8)     =    140.034999     0.000127     0.348941   140.383940
	   48 D(4,7,10,9)     =    -99.981338    -0.000053    -0.183701  -100.165039
	   49 D(4,7,10,14)    =     20.004725     0.000065     0.138973    20.143698
	   50 D(5,7,10,8)     =     20.086123     0.000009     0.026460    20.112583
	   51 D(5,7,10,9)     =    140.069787    -0.000171    -0.506182   139.563605
	   52 D(5,7,10,14)    =    -99.944151    -0.000053    -0.183508  -100.127658
	   53 D(6,7,10,8)     =    -99.884075     0.000188     0.555129   -99.328946
	   54 D(6,7,10,9)     =     20.099588     0.000008     0.022487    20.122075
	   55 D(6,7,10,14)    =    140.085651     0.000126     0.345161   140.430812
	   56 D(7,10,14,11)   =    179.984745    -0.000026    -0.081508   179.903238
	   57 D(7,10,14,12)   =     59.969693     0.000008    -0.011055    59.958638
	   58 D(7,10,14,13)   =    -59.999780    -0.000044    -0.089447   -60.089227
	   59 D(8,10,14,11)   =     59.952807    -0.000112    -0.346012    59.606795
	   60 D(8,10,14,12)   =    -60.062245    -0.000078    -0.275559   -60.337805
	   61 D(8,10,14,13)   =    179.968281    -0.000131    -0.353951   179.614330
	   62 D(9,10,14,11)   =    -59.998769     0.000099     0.281858   -59.716911
	   63 D(9,10,14,12)   =    179.986179     0.000133     0.352311   180.338490
	   64 D(9,10,14,13)   =     60.016706     0.000081     0.273919    60.290624
	 ---------------------------------------------------------------------------
	 Forces used to impose fixed constraints are not included.
	  Forces zeroed: 49 

  ==> Convergence Check <==

  Measures of convergence in internal coordinates in au.
  Criteria marked as inactive (o), active & met (*), and active & unmet ( ).
  --------------------------------------------------------------------------------------------- ~
   Step     Total Energy     Delta E     MAX Force     RMS Force      MAX Disp      RMS Disp    ~
  --------------------------------------------------------------------------------------------- ~
    Convergence Criteria    1.00e-06 *    3.00e-04 *             o    1.20e-03 *             o  ~
  --------------------------------------------------------------------------------------------- ~
      1    -158.43467053   -1.58e+02      5.72e-02      1.56e-02 o    4.72e-02      1.27e-02 o  ~
  ---------------------------------------------------------------------------------------------

	Writing optimization data to binary file.
	Structure for next step:
	Cartesian Geometry (in Angstrom)
	    H    -1.7472796288   0.3639979120   0.6600371558
	    H    -1.5420565083   2.0083952008   0.0663472557
	    H    -1.3158516009   0.6444431017  -1.0197578366
	    C    -1.1822157311   0.9924910820  -0.0095166810
	    H     0.8633288228   1.5826226936  -0.3056893571
	    H     0.4270910662   1.3034815884   1.3810256490
	    C     0.3148436885   0.9446757382   0.3700426701
	    H     1.8910145322  -0.4408888424  -0.1320346419
	    H     0.9397770163  -0.9122538924   1.2766045236
	    C     0.8971013967  -0.4936148756   0.2831461292
	    H     0.4810686833  -2.4026957463  -0.6385877941
	    H    -0.0109671655  -1.0181897232  -1.6070227226
	    H    -0.9595439156  -1.4912167111  -0.2063925749
	    C     0.0382460024  -1.4181390702  -0.6068837793
			--------------------------
			 OPTKING Finished Execution 
			--------------------------

    Structure for next step:
    Molecular point group: c1
    Full point group: C1

    Geometry (in Angstrom), charge = 0, multiplicity = 1:

    H           -1.744432927074     0.365034185784     0.661554455217
    H           -1.539209806612     2.009431474588     0.067864555200
    H           -1.313004899186     0.645479375488    -1.018240537182
    C           -1.179369029394     0.993527355846    -0.007999381575
    H            0.866175524510     1.583658967421    -0.304172057618
    H            0.429937767860     1.304517862247     1.382542948425
    C            0.317690390137     0.945712012020     0.371559969528
    H            1.893861233878    -0.439852568629    -0.130517342388
    H            0.942623717977    -0.911217618555     1.278121823067
    C            0.899948098374    -0.492578601812     0.284663428705
    H            0.483915384958    -2.401659472500    -0.637070494654
    H           -0.008120463804    -1.017153449350    -1.605505423151
    H           -0.956697213890    -1.490180437272    -0.204875275447
    C            0.041092704100    -1.417102796410    -0.605366479854

gradient() will perform analytic gradient computation.

*** tstart() called on lski1497
*** at Tue Feb 21 18:02:25 2017


         ---------------------------------------------------------
                                   SCF
            by Justin Turney, Rob Parrish, and Andy Simmonett
                              RKS Reference
                        1 Threads,   1000 MiB Core
         ---------------------------------------------------------

  ==> Geometry <==

    Molecular point group: c1
    Full point group: C1

    Geometry (in Angstrom), charge = 0, multiplicity = 1:

       Center              X                  Y                   Z               Mass       
    ------------   -----------------  -----------------  -----------------  -----------------
           H         -1.744432927074     0.365034185784     0.661554455217     1.007825032070
           H         -1.539209806612     2.009431474588     0.067864555200     1.007825032070
           H         -1.313004899186     0.645479375488    -1.018240537182     1.007825032070
           C         -1.179369029394     0.993527355846    -0.007999381575    12.000000000000
           H          0.866175524510     1.583658967421    -0.304172057618     1.007825032070
           H          0.429937767860     1.304517862247     1.382542948425     1.007825032070
           C          0.317690390137     0.945712012020     0.371559969528    12.000000000000
           H          1.893861233878    -0.439852568629    -0.130517342388     1.007825032070
           H          0.942623717977    -0.911217618555     1.278121823067     1.007825032070
           C          0.899948098374    -0.492578601812     0.284663428705    12.000000000000
           H          0.483915384958    -2.401659472500    -0.637070494654     1.007825032070
           H         -0.008120463804    -1.017153449350    -1.605505423151     1.007825032070
           H         -0.956697213890    -1.490180437272    -0.204875275447     1.007825032070
           C          0.041092704100    -1.417102796410    -0.605366479854    12.000000000000

  Running in c1 symmetry.

  Rotational constants: A =      0.38749  B =      0.19050  C =      0.14219 [cm^-1]
  Rotational constants: A =  11616.63187  B =   5711.14122  C =   4262.87566 [MHz]
  Nuclear repulsion =  134.301600517381672

  Charge       = 0
  Multiplicity = 1
  Electrons    = 34
  Nalpha       = 17
  Nbeta        = 17

  ==> Algorithm <==

  SCF Algorithm Type is DF.
  DIIS enabled.
  MOM disabled.
  Fractional occupation disabled.
  Guess Type is READ.
  Energy threshold   = 1.00e-08
  Density threshold  = 1.00e-08
  Integral threshold = 0.00e+00

  ==> Primary Basis <==

  Basis Set: CC-PVDZ
    Number of shells: 54
    Number of basis function: 106
    Number of Cartesian functions: 110
    Spherical Harmonics?: true
    Max angular momentum: 2

  ==> DFT Potential <==

   => B3LYP Composite Functional <= 

    B3LYP Hybrid-GGA Exchange-Correlation Functional (VWN1-RPA)

    P.J. Stephens et. al., J. Phys. Chem., 98, 11623-11627, 1994

    Points   =           5000
    Deriv    =              1
    GGA      =           TRUE
    Meta     =          FALSE

    X_LRC        =          FALSE
    X_Hybrid     =           TRUE
    X_Alpha      =   2.000000E-01
    X_Omega      =   0.000000E+00
    C_LRC        =          FALSE
    C_Hybrid     =          FALSE
    C_Alpha      =   0.000000E+00
    C_Omega      =   0.000000E+00

   => Exchange Functionals <=

    0.8000    B3_X
    0.2000      HF 

   => Correlation Functionals <=

    0.1900 VWN3RPA_C
    0.8100   LYP_C

   => Molecular Quadrature <=

    Radial Scheme    =       TREUTLER
    Pruning Scheme   =           FLAT
    Nuclear Scheme   =       TREUTLER

    BS radius alpha  =              1
    Pruning alpha    =              1
    Radial Points    =             75
    Spherical Points =            302
    Total Points     =         312712
    Total Blocks     =            276
    Max Points       =           4883
    Max Functions    =            106

  ==> Pre-Iterations <==

   -------------------------------------------------------
    Irrep   Nso     Nmo     Nalpha   Nbeta   Ndocc  Nsocc
   -------------------------------------------------------
     A        106     106       0       0       0       0
   -------------------------------------------------------
    Total     106     106      17      17      17       0
   -------------------------------------------------------

  ==> Integral Setup <==

  ==> DFJK: Density-Fitted J/K Matrices <==

    J tasked:                  Yes
    K tasked:                  Yes
    wK tasked:                  No
    OpenMP threads:              1
    Integrals threads:           1
    Memory (MB):               715
    Algorithm:                Core
    Integral Cache:           NONE
    Schwarz Cutoff:          1E-12
    Fitting Condition:       1E-12

   => Auxiliary Basis Set <=

  Basis Set: 
    Number of shells: 186
    Number of basis function: 510
    Number of Cartesian functions: 574
    Spherical Harmonics?: true
    Max angular momentum: 3

  Minimum eigenvalue in the overlap matrix is 3.4436196528E-03.
  Using Symmetric Orthogonalization.
  SCF Guess was Projection but file not found.
  Switching over to SAD guess.

  SCF Guess: Superposition of Atomic Densities via on-the-fly atomic UHF.

  ==> Iterations <==

                           Total Energy        Delta E     RMS |[F,P]|

   @DF-RKS iter   0:  -158.96578337111202   -1.58966e+02   3.29966e-02 
   @DF-RKS iter   1:  -158.26990938319037    6.95874e-01   5.21791e-03 
   @DF-RKS iter   2:  -158.19697964420993    7.29297e-02   6.32379e-03 DIIS
   @DF-RKS iter   3:  -158.44318768670934   -2.46208e-01   3.88566e-04 DIIS
   @DF-RKS iter   4:  -158.44404770315143   -8.60016e-04   1.10116e-04 DIIS
   @DF-RKS iter   5:  -158.44410726711794   -5.95640e-05   4.50471e-05 DIIS
   @DF-RKS iter   6:  -158.44411819469298   -1.09276e-05   7.27557e-06 DIIS
   @DF-RKS iter   7:  -158.44411852224758   -3.27555e-07   9.68236e-07 DIIS
   @DF-RKS iter   8:  -158.44411852852414   -6.27657e-09   1.55533e-07 DIIS
   @DF-RKS iter   9:  -158.44411852864076   -1.16614e-10   8.04110e-08 DIIS
   @DF-RKS iter  10:  -158.44411852867626   -3.54987e-11   1.41561e-08 DIIS
   @DF-RKS iter  11:  -158.44411852867722   -9.66338e-13   1.85511e-09 DIIS

  ==> Post-Iterations <==

    Orbital Energies (a.u.)
    -----------------------

    Doubly Occupied:                                                      

       1A    -10.172855     2A    -10.172689     3A    -10.166366  
       4A    -10.166322     5A     -0.792473     6A     -0.713611  
       7A     -0.646515     8A     -0.558670     9A     -0.470048  
      10A     -0.451244    11A     -0.408967    12A     -0.385181  
      13A     -0.374160    14A     -0.366514    15A     -0.320067  
      16A     -0.318679    17A     -0.315755  

    Virtual:                                                              

      18A      0.058038    19A      0.095265    20A      0.099126  
      21A      0.109308    22A      0.130644    23A      0.131540  
      24A      0.156862    25A      0.172996    26A      0.174856  
      27A      0.190720    28A      0.211289    29A      0.237683  
      30A      0.281820    31A      0.411032    32A      0.426482  
      33A      0.434483    34A      0.441254    35A      0.473216  
      36A      0.480177    37A      0.509600    38A      0.588220  
      39A      0.591691    40A      0.620601    41A      0.636901  
      42A      0.658099    43A      0.663493    44A      0.666784  
      45A      0.667647    46A      0.692206    47A      0.694194  
      48A      0.702464    49A      0.729717    50A      0.735010  
      51A      0.762127    52A      0.831839    53A      0.873649  
      54A      0.891570    55A      0.964230    56A      1.074818  
      57A      1.208200    58A      1.208560    59A      1.222835  
      60A      1.270997    61A      1.299684    62A      1.320910  
      63A      1.413671    64A      1.455226    65A      1.493405  
      66A      1.555316    67A      1.576736    68A      1.594415  
      69A      1.606444    70A      1.636383    71A      1.648753  
      72A      1.649306    73A      1.676145    74A      1.687099  
      75A      1.696737    76A      1.707582    77A      1.709073  
      78A      1.752150    79A      1.755913    80A      1.811131  
      81A      1.814722    82A      1.859257    83A      1.864669  
      84A      1.925547    85A      1.953960    86A      1.984448  
      87A      2.032712    88A      2.061832    89A      2.126712  
      90A      2.141527    91A      2.208452    92A      2.256648  
      93A      2.273938    94A      2.284144    95A      2.352088  
      96A      2.364236    97A      2.476525    98A      2.482398  
      99A      2.494090   100A      2.515458   101A      2.572094  
     102A      2.578074   103A      2.629936   104A      2.638893  
     105A      2.660462   106A      2.765634  

    Final Occupation by Irrep:
              A 
    DOCC [    17 ]

  Energy converged.

  @DF-RKS Final Energy:  -158.44411852867722

   => Energetics <=

    Nuclear Repulsion Energy =            134.3016005173816723
    One-Electron Energy =                -477.0439379940085018
    Two-Electron Energy =                 204.9528085891301146
    DFT Exchange-Correlation Energy =     -20.6545896411804861
    Empirical Dispersion Energy =           0.0000000000000000
    PCM Polarization Energy =               0.0000000000000000
    EFP Energy =                            0.0000000000000000
    Total Energy =                       -158.4441185286772225


  Saving occupied orbitals to File 180.

*** tstop() called on lski1497 at Tue Feb 21 18:04:40 2017
Module time:
	user time   =     118.79 seconds =       1.98 minutes
	system time =       1.38 seconds =       0.02 minutes
	total time  =        135 seconds =       2.25 minutes
Total time:
	user time   =     275.17 seconds =       4.59 minutes
	system time =       3.36 seconds =       0.06 minutes
	total time  =        319 seconds =       5.32 minutes


Properties will be evaluated at   0.000000,   0.000000,   0.000000 Bohr

Properties computed using the SCF density matrix

  Nuclear Dipole Moment: (a.u.)
     X:    -0.8859      Y:    -0.3299      Z:    -0.4784

  Electronic Dipole Moment: (a.u.)
     X:     0.8987      Y:     0.3345      Z:     0.4850

  Dipole Moment: (a.u.)
     X:     0.0128      Y:     0.0046      Z:     0.0066     Total:     0.0151

  Dipole Moment: (Debye)
     X:     0.0326      Y:     0.0116      Z:     0.0169     Total:     0.0385


*** tstart() called on lski1497
*** at Tue Feb 21 18:04:40 2017


         ------------------------------------------------------------
                                   SCF GRAD                          
                          Rob Parrish, Justin Turney,                
                       Andy Simmonett, and Alex Sokolov              
         ------------------------------------------------------------

  ==> Geometry <==

    Molecular point group: c1
    Full point group: C1

    Geometry (in Angstrom), charge = 0, multiplicity = 1:

       Center              X                  Y                   Z               Mass       
    ------------   -----------------  -----------------  -----------------  -----------------
           H         -1.744432927074     0.365034185784     0.661554455217     1.007825032070
           H         -1.539209806612     2.009431474588     0.067864555200     1.007825032070
           H         -1.313004899186     0.645479375488    -1.018240537182     1.007825032070
           C         -1.179369029394     0.993527355846    -0.007999381575    12.000000000000
           H          0.866175524510     1.583658967421    -0.304172057618     1.007825032070
           H          0.429937767860     1.304517862247     1.382542948425     1.007825032070
           C          0.317690390137     0.945712012020     0.371559969528    12.000000000000
           H          1.893861233878    -0.439852568629    -0.130517342388     1.007825032070
           H          0.942623717977    -0.911217618555     1.278121823067     1.007825032070
           C          0.899948098374    -0.492578601812     0.284663428705    12.000000000000
           H          0.483915384958    -2.401659472500    -0.637070494654     1.007825032070
           H         -0.008120463804    -1.017153449350    -1.605505423151     1.007825032070
           H         -0.956697213890    -1.490180437272    -0.204875275447     1.007825032070
           C          0.041092704100    -1.417102796410    -0.605366479854    12.000000000000

  Nuclear repulsion =  134.301600517381672

  ==> Basis Set <==

  Basis Set: CC-PVDZ
    Number of shells: 54
    Number of basis function: 106
    Number of Cartesian functions: 110
    Spherical Harmonics?: true
    Max angular momentum: 2

  ==> DFJKGrad: Density-Fitted SCF Gradients <==

    Gradient:                    1
    J tasked:                  Yes
    K tasked:                  Yes
    wK tasked:                  No
    OpenMP threads:              1
    Integrals threads:           1
    Memory (MB):               715
    Schwarz Cutoff:          0E+00
    Fitting Condition:       1E-12

   => Auxiliary Basis Set <=

  Basis Set: 
    Number of shells: 186
    Number of basis function: 510
    Number of Cartesian functions: 574
    Spherical Harmonics?: true
    Max angular momentum: 3

  ==> DFT Potential <==

   => B3LYP Composite Functional <= 

    B3LYP Hybrid-GGA Exchange-Correlation Functional (VWN1-RPA)

    P.J. Stephens et. al., J. Phys. Chem., 98, 11623-11627, 1994

    Points   =           5000
    Deriv    =              1
    GGA      =           TRUE
    Meta     =          FALSE

    X_LRC        =          FALSE
    X_Hybrid     =           TRUE
    X_Alpha      =   2.000000E-01
    X_Omega      =   0.000000E+00
    C_LRC        =          FALSE
    C_Hybrid     =          FALSE
    C_Alpha      =   0.000000E+00
    C_Omega      =   0.000000E+00

   => Exchange Functionals <=

    0.8000    B3_X
    0.2000      HF 

   => Correlation Functionals <=

    0.1900 VWN3RPA_C
    0.8100   LYP_C

   => Molecular Quadrature <=

    Radial Scheme    =       TREUTLER
    Pruning Scheme   =           FLAT
    Nuclear Scheme   =       TREUTLER

    BS radius alpha  =              1
    Pruning alpha    =              1
    Radial Points    =             75
    Spherical Points =            302
    Total Points     =         312712
    Total Blocks     =            276
    Max Points       =           4883
    Max Functions    =            106


  -Total Gradient:
     Atom            X                  Y                   Z
    ------   -----------------  -----------------  -----------------
       1        0.011897510523     0.007446952058    -0.008516319134
       2        0.007490027359    -0.012826684228    -0.000772491352
       3        0.006204000955     0.002490777251     0.013646591598
       4       -0.023651893339    -0.007761766762    -0.008902633050
       5       -0.008145007583    -0.012514955548     0.007279848454
       6       -0.004792206959    -0.009756755821    -0.012879684934
       7        0.016234782125     0.020862482664     0.008658142665
       8       -0.016869230924     0.001659643560     0.001320938751
       9       -0.004258941000     0.007884510788    -0.014124302783
      10        0.023834019848    -0.006114269962     0.012900319405
      11       -0.004349654117     0.014305481074     0.002503716288
      12        0.002131301301    -0.002238338094     0.016119027815
      13        0.013510857035     0.005068397468    -0.002592504449
      14       -0.019224600152    -0.008502110913    -0.014635137263


*** tstop() called on lski1497 at Tue Feb 21 18:05:22 2017
Module time:
	user time   =      38.33 seconds =       0.64 minutes
	system time =       0.60 seconds =       0.01 minutes
	total time  =         42 seconds =       0.70 minutes
Total time:
	user time   =     313.52 seconds =       5.23 minutes
	system time =       3.96 seconds =       0.07 minutes
	total time  =        361 seconds =       6.02 minutes

			-----------------------------------------
			 OPTKING 2.0: for geometry optimizations 
			  - R.A. King,  Bethel University        
			-----------------------------------------

	Previous internal coordinate definitions found.
	---Fragment 1 Geometry and Gradient---
	 H          -3.2965004894        0.6898146403        1.2501567424
	 H          -2.9086849955        3.7972751698        0.1282454235
	 H          -2.4812196706        1.2197792441       -1.9241957527
	 C          -2.2286844752        1.8774946081       -0.0151166404
	 H           1.6368345243        2.9926817363       -0.5748018862
	 H           0.8124646354        2.4651814951        2.6126275395
	 C           0.6003478324        1.7871367033        0.7021465844
	 H           3.5788790657       -0.8312008936       -0.2466420327
	 H           1.7813006733       -1.7219517465        2.4153002101
	 C           1.7006554397       -0.9308386563        0.5379359203
	 H           0.9144675491       -4.5384786675       -1.2038887622
	 H          -0.0153454527       -1.9221414544       -3.0339655546
	 H          -1.8078957263       -2.8160329150       -0.3871581620
	 C           0.0776539568       -2.6779361874       -1.1439768570
	             0.0118975105        0.0074469521       -0.0085163191
	             0.0074900274       -0.0128266842       -0.0007724914
	             0.0062040010        0.0024907773        0.0136465916
	            -0.0236518933       -0.0077617668       -0.0089026331
	            -0.0081450076       -0.0125149555        0.0072798485
	            -0.0047922070       -0.0097567558       -0.0128796849
	             0.0162347821        0.0208624827        0.0086581427
	            -0.0168692309        0.0016596436        0.0013209388
	            -0.0042589410        0.0078845108       -0.0141243028
	             0.0238340198       -0.0061142700        0.0129003194
	            -0.0043496541        0.0143054811        0.0025037163
	             0.0021313013       -0.0022383381        0.0161190278
	             0.0135108570        0.0050683975       -0.0025925044
	            -0.0192246002       -0.0085021109       -0.0146351373

	---Fragment 1 Intrafragment Coordinates---
	 - Coordinate -           - BOHR/RAD -       - ANG/DEG -
	 R(1,4)           =         2.037580	       1.078241
	 R(2,4)           =         2.041693	       1.080417
	 R(3,4)           =         2.034932	       1.076839
	 R(4,7)           =         2.919941	       1.545166
	 R(5,7)           =         2.039177	       1.079086
	 R(6,7)           =         2.038302	       1.078623
	 R(7,10)          =         2.936840	       1.554109
	 R(8,10)          =         2.037944	       1.078433
	 R(9,10)          =         2.038838	       1.078907
	 R(10,14)         =         2.918101	       1.544193
	 R(11,14)         =         2.040947	       1.080023
	 R(12,14)         =         2.037629	       1.078267
	 R(13,14)         =         2.036453	       1.077645
	 B(1,4,2)         =         1.907034	     109.264983
	 B(1,4,3)         =         1.906180	     109.216082
	 B(1,4,7)         =         1.914706	     109.704597
	 B(2,4,3)         =         1.905464	     109.175038
	 B(2,4,7)         =         1.911910	     109.544374
	 B(3,4,7)         =         1.918442	     109.918647
	 B(4,7,5)         =         1.896889	     108.683724
	 B(4,7,6)         =         1.897339	     108.709523
	 B(4,7,10)        =         1.958320	     112.203449
	 B(5,7,6)         =         1.914931	     109.717479
	 B(5,7,10)        =         1.898307	     108.764982
	 B(6,7,10)        =         1.897877	     108.740356
	 B(7,10,8)        =         1.898186	     108.758033
	 B(7,10,9)        =         1.899101	     108.810446
	 B(7,10,14)       =         1.958368	     112.206214
	 B(8,10,9)        =         1.914537	     109.694879
	 B(8,10,14)       =         1.896495	     108.661183
	 B(9,10,14)       =         1.896960	     108.687803
	 B(10,14,11)      =         1.912047	     109.552221
	 B(10,14,12)      =         1.915505	     109.750327
	 B(10,14,13)      =         1.919170	     109.960341
	 B(11,14,12)      =         1.906695	     109.245570
	 B(11,14,13)      =         1.905745	     109.191167
	 B(12,14,13)      =         1.904561	     109.123292
	 D(1,4,7,5)       =        -3.136012	    -179.680246
	 D(1,4,7,6)       =        -1.052499	     -60.303749
	 D(1,4,7,10)      =         1.047219	      60.001254
	 D(2,4,7,5)       =        -1.042744	     -59.744837
	 D(2,4,7,6)       =         1.040769	      59.631660
	 D(2,4,7,10)      =         3.140487	     179.936662
	 D(3,4,7,5)       =         1.050900	      60.212134
	 D(3,4,7,6)       =         3.134413	     179.588631
	 D(3,4,7,10)      =        -1.049054	     -60.106366
	 D(4,7,10,8)      =         2.450162	     140.383940
	 D(4,7,10,9)      =        -1.748210	    -100.165039
	 D(4,7,10,14)     =         0.351574	      20.143698
	 D(5,7,10,8)      =         0.351031	      20.112583
	 D(5,7,10,9)      =         2.435844	     139.563605
	 D(5,7,10,14)     =        -1.747557	    -100.127658
	 D(6,7,10,8)      =        -1.733617	     -99.328946
	 D(6,7,10,9)      =         0.351196	      20.122075
	 D(6,7,10,14)     =         2.450980	     140.430812
	 D(7,10,14,11)    =         3.139904	     179.903238
	 D(7,10,14,12)    =         1.046476	      59.958638
	 D(7,10,14,13)    =        -1.048755	     -60.089227
	 D(8,10,14,11)    =         1.040335	      59.606795
	 D(8,10,14,12)    =        -1.053093	     -60.337805
	 D(8,10,14,13)    =         3.134861	     179.614330
	 D(9,10,14,11)    =        -1.042257	     -59.716911
	 D(9,10,14,12)    =        -3.135685	    -179.661510
	 D(9,10,14,13)    =         1.052270	      60.290624

	Current energy   :      -158.4441185287

	Energy change for the previous step:
		Projected    :        -0.0122358270
		Actual       :        -0.0094479991

	Performing BFGS update.
	Previous computed or guess Hessian on step 1.
	Steps to be used in Hessian update: 1
	Adding user-defined constraint: Fragment 1; Coordinate 49:
		Value =     0.351574; Fixed value    =     0.349070
		Force =    -0.001315; Force constant =     0.525000
	Removing off-diagonal coupling between coordinate 49 and others.
	Taking RFO optimization step.
	Going to follow RFO solution 1.
	Using RFO vector 1.

	Determining step-restricting scale parameter for RS-RFO.
	Maximum step size allowed    0.10000

	 Iter      |step|        alpha        rfo_root  
	------------------------------------------------
	    0     0.21712       1.00000           1
	    1     0.16575       6.53447           1
	    2     0.12775      19.63242           1
	    3     0.10755      35.05597           1
	    4     0.10081      42.83501           1
	    5     0.10001      43.88446           1
	    6     0.10000      43.89929           1
	------------------------------------------------
	Norm of target step-size    0.10000
	Projected energy change by RFO approximation:        -0.0064143740

	Back-transformation to cartesian coordinates...
	Successfully converged to displaced geometry.

	--- Internal Coordinate Step in ANG or DEG, aJ/ANG or AJ/DEG ---
	 ---------------------------------------------------------------------------
	   Coordinate                Previous        Force       Change         New 
	   ----------                --------       ------       ------       ------
	    1 R(1,4)          =      1.078241     0.130692     0.014256     1.092497
	    2 R(2,4)          =      1.080417     0.120366     0.012620     1.093038
	    3 R(3,4)          =      1.076839     0.118452     0.013888     1.090728
	    4 R(4,7)          =      1.545166     0.008970    -0.000644     1.544522
	    5 R(5,7)          =      1.079086     0.132628     0.013961     1.093047
	    6 R(6,7)          =      1.078623     0.130308     0.013717     1.092340
	    7 R(7,10)         =      1.554109     0.108806     0.005753     1.559862
	    8 R(8,10)         =      1.078433     0.131612     0.013846     1.092279
	    9 R(9,10)         =      1.078907     0.133748     0.014072     1.092978
	   10 R(10,14)        =      1.544193     0.012835    -0.000174     1.544018
	   11 R(11,14)        =      1.080023     0.122741     0.012856     1.092878
	   12 R(12,14)        =      1.078267     0.130812     0.014268     1.092535
	   13 R(13,14)        =      1.077645     0.113832     0.013433     1.091078
	   14 B(1,4,2)        =    109.264983    -0.000295    -0.495266   108.769717
	   15 B(1,4,3)        =    109.216082    -0.000289    -0.560384   108.655699
	   16 B(1,4,7)        =    109.704597     0.000340     0.619529   110.324126
	   17 B(2,4,3)        =    109.175038    -0.000307    -0.469054   108.705984
	   18 B(2,4,7)        =    109.544374     0.000121     0.240708   109.785082
	   19 B(3,4,7)        =    109.918647     0.000422     0.636642   110.555289
	   20 B(4,7,5)        =    108.683724    -0.000514    -0.356108   108.327615
	   21 B(4,7,6)        =    108.709523    -0.000553    -0.353202   108.356321
	   22 B(4,7,10)       =    112.203449     0.001883     1.398966   113.602415
	   23 B(5,7,6)        =    109.717479     0.000085    -0.225617   109.491862
	   24 B(5,7,10)       =    108.764982    -0.000433    -0.202861   108.562121
	   25 B(6,7,10)       =    108.740356    -0.000482    -0.290983   108.449374
	   26 B(7,10,8)       =    108.758033    -0.000486    -0.309100   108.448933
	   27 B(7,10,9)       =    108.810446    -0.000438    -0.208677   108.601769
	   28 B(7,10,14)      =    112.206214     0.001887     1.407610   113.613824
	   29 B(8,10,9)       =    109.694879     0.000087    -0.221770   109.473109
	   30 B(8,10,14)      =    108.661183    -0.000549    -0.340116   108.321068
	   31 B(9,10,14)      =    108.687803    -0.000515    -0.358242   108.329560
	   32 B(10,14,11)     =    109.552221     0.000125     0.255110   109.807331
	   33 B(10,14,12)     =    109.750327     0.000331     0.610126   110.360452
	   34 B(10,14,13)     =    109.960341     0.000417     0.628151   110.588492
	   35 B(11,14,12)     =    109.245570    -0.000293    -0.499231   108.746339
	   36 B(11,14,13)     =    109.191167    -0.000309    -0.477060   108.714107
	   37 B(12,14,13)     =    109.123292    -0.000281    -0.546373   108.576919
	   38 D(1,4,7,5)      =   -179.680246     0.000074     0.399551  -179.280695
	   39 D(1,4,7,6)      =    -60.303749    -0.000045    -0.274508   -60.578257
	   40 D(1,4,7,10)     =     60.001254     0.000005     0.007938    60.009192
	   41 D(2,4,7,5)      =    -59.744837     0.000056     0.324845   -59.419993
	   42 D(2,4,7,6)      =     59.631660    -0.000063    -0.349214    59.282446
	   43 D(2,4,7,10)     =    179.936662    -0.000013    -0.066768   179.869895
	   44 D(3,4,7,5)      =     60.212134     0.000046     0.295064    60.507198
	   45 D(3,4,7,6)      =    179.588631    -0.000072    -0.378995   179.209636
	   46 D(3,4,7,10)     =    -60.106366    -0.000023    -0.096549   -60.202915
	   47 D(4,7,10,8)     =    140.383940     0.000070     0.442886   140.826826
	   48 D(4,7,10,9)     =   -100.165039    -0.000030    -0.121492  -100.286531
	   49 D(4,7,10,14)    =     20.143698     0.000029     0.185751    20.329449
	   50 D(5,7,10,8)     =     20.112583     0.000011     0.136150    20.248733
	   51 D(5,7,10,9)     =    139.563605    -0.000088    -0.428228   139.135376
	   52 D(5,7,10,14)    =   -100.127658    -0.000030    -0.120985  -100.248644
	   53 D(6,7,10,8)     =    -99.328946     0.000110     0.690790   -98.638156
	   54 D(6,7,10,9)     =     20.122075     0.000010     0.126412    20.248487
	   55 D(6,7,10,14)    =    140.430812     0.000069     0.433655   140.864467
	   56 D(7,10,14,11)   =    179.903238    -0.000013    -0.067726   179.835512
	   57 D(7,10,14,12)   =     59.958638     0.000005     0.008184    59.966822
	   58 D(7,10,14,13)   =    -60.089227    -0.000023    -0.102766   -60.191993
	   59 D(8,10,14,11)   =     59.606795    -0.000062    -0.340711    59.266084
	   60 D(8,10,14,12)   =    -60.337805    -0.000044    -0.264801   -60.602606
	   61 D(8,10,14,13)   =    179.614330    -0.000072    -0.375751   179.238579
	   62 D(9,10,14,11)   =    -59.716911     0.000055     0.321539   -59.395372
	   63 D(9,10,14,12)   =   -179.661510     0.000073     0.397449  -179.264061
	   64 D(9,10,14,13)   =     60.290624     0.000045     0.286499    60.577123
	 ---------------------------------------------------------------------------
	 Forces used to impose fixed constraints are not included.
	  Forces zeroed: 49 

  ==> Convergence Check <==

  Measures of convergence in internal coordinates in au.
  Criteria marked as inactive (o), active & met (*), and active & unmet ( ).
  ---------------------------------------------------------------------------------------------
   Step     Total Energy     Delta E     MAX Force     RMS Force      MAX Disp      RMS Disp   
  ---------------------------------------------------------------------------------------------
    Convergence Criteria    1.00e-06 *    3.00e-04 *             o    1.20e-03 *             o
  ---------------------------------------------------------------------------------------------
      2    -158.44411853   -9.45e-03      2.48e-02      8.44e-03 o    2.70e-02      1.25e-02 o  ~
  ---------------------------------------------------------------------------------------------

	Writing optimization data to binary file.
	Structure for next step:
	Cartesian Geometry (in Angstrom)
	    H    -1.7978900170   0.3966436051   0.6328737839
	    H    -1.5358793313   2.0619667327   0.0718054720
	    H    -1.3242548655   0.7022923462  -1.0487432211
	    C    -1.1888548673   1.0292937286  -0.0170340278
	    H     0.8747534109   1.5938862581  -0.2715677428
	    H     0.3950841422   1.2887668811   1.4200515614
	    C     0.2986905962   0.9408667679   0.3890904589
	    H     1.9046519666  -0.4353805540  -0.0919966444
	    H     0.9076056536  -0.9332445331   1.3014420557
	    C     0.8863858077  -0.5011582551   0.2977225018
	    H     0.5416899704  -2.4308154825  -0.6401359269
	    H     0.0443015524  -1.0473750960  -1.6372169697
	    H    -0.9475401067  -1.5456241218  -0.2546119832
	    C     0.0756665696  -1.4425019883  -0.6191191294
			--------------------------
			 OPTKING Finished Execution 
			--------------------------

    Structure for next step:
    Molecular point group: c1
    Full point group: C1

    Geometry (in Angstrom), charge = 0, multiplicity = 1:

    H           -1.796475440256     0.397222323553     0.631397088566
    H           -1.534464754529     2.062545451141     0.070328776655
    H           -1.322840288806     0.702871064652    -1.050219916472
    C           -1.187440290610     1.029872447058    -0.018510723120
    H            0.876167987667     1.594464976551    -0.273044438160
    H            0.396498718921     1.289345599578     1.418574866092
    C            0.300105172954     0.941445486320     0.387613763620
    H            1.906066543307    -0.434801835496    -0.093473339755
    H            0.909020230303    -0.932665814621     1.299965360337
    C            0.887800384484    -0.500579536626     0.296245806445
    H            0.543104547102    -2.430236764083    -0.641612622177
    H            0.045716129150    -1.046796377559    -1.638693664995
    H           -0.946125529938    -1.545045403329    -0.256088678555
    C            0.077081146377    -1.441923269842    -0.620595824741

gradient() will perform analytic gradient computation.

*** tstart() called on lski1497
*** at Tue Feb 21 18:05:23 2017


         ---------------------------------------------------------
                                   SCF
            by Justin Turney, Rob Parrish, and Andy Simmonett
                              RKS Reference
                        1 Threads,   1000 MiB Core
         ---------------------------------------------------------

  ==> Geometry <==

    Molecular point group: c1
    Full point group: C1

    Geometry (in Angstrom), charge = 0, multiplicity = 1:

       Center              X                  Y                   Z               Mass       
    ------------   -----------------  -----------------  -----------------  -----------------
           H         -1.796475440256     0.397222323553     0.631397088566     1.007825032070
           H         -1.534464754529     2.062545451141     0.070328776655     1.007825032070
           H         -1.322840288806     0.702871064652    -1.050219916472     1.007825032070
           C         -1.187440290610     1.029872447058    -0.018510723120    12.000000000000
           H          0.876167987667     1.594464976551    -0.273044438160     1.007825032070
           H          0.396498718921     1.289345599578     1.418574866092     1.007825032070
           C          0.300105172954     0.941445486320     0.387613763620    12.000000000000
           H          1.906066543307    -0.434801835496    -0.093473339755     1.007825032070
           H          0.909020230303    -0.932665814621     1.299965360337     1.007825032070
           C          0.887800384484    -0.500579536626     0.296245806445    12.000000000000
           H          0.543104547102    -2.430236764083    -0.641612622177     1.007825032070
           H          0.045716129150    -1.046796377559    -1.638693664995     1.007825032070
           H         -0.946125529938    -1.545045403329    -0.256088678555     1.007825032070
           C          0.077081146377    -1.441923269842    -0.620595824741    12.000000000000

  Running in c1 symmetry.

  Rotational constants: A =      0.38992  B =      0.18287  C =      0.13847 [cm^-1]
  Rotational constants: A =  11689.63926  B =   5482.16402  C =   4151.12441 [MHz]
  Nuclear repulsion =  133.015736559863029

  Charge       = 0
  Multiplicity = 1
  Electrons    = 34
  Nalpha       = 17
  Nbeta        = 17

  ==> Algorithm <==

  SCF Algorithm Type is DF.
  DIIS enabled.
  MOM disabled.
  Fractional occupation disabled.
  Guess Type is READ.
  Energy threshold   = 1.00e-08
  Density threshold  = 1.00e-08
  Integral threshold = 0.00e+00

  ==> Primary Basis <==

  Basis Set: CC-PVDZ
    Number of shells: 54
    Number of basis function: 106
    Number of Cartesian functions: 110
    Spherical Harmonics?: true
    Max angular momentum: 2

  ==> DFT Potential <==

   => B3LYP Composite Functional <= 

    B3LYP Hybrid-GGA Exchange-Correlation Functional (VWN1-RPA)

    P.J. Stephens et. al., J. Phys. Chem., 98, 11623-11627, 1994

    Points   =           5000
    Deriv    =              1
    GGA      =           TRUE
    Meta     =          FALSE

    X_LRC        =          FALSE
    X_Hybrid     =           TRUE
    X_Alpha      =   2.000000E-01
    X_Omega      =   0.000000E+00
    C_LRC        =          FALSE
    C_Hybrid     =          FALSE
    C_Alpha      =   0.000000E+00
    C_Omega      =   0.000000E+00

   => Exchange Functionals <=

    0.8000    B3_X
    0.2000      HF 

   => Correlation Functionals <=

    0.1900 VWN3RPA_C
    0.8100   LYP_C

   => Molecular Quadrature <=

    Radial Scheme    =       TREUTLER
    Pruning Scheme   =           FLAT
    Nuclear Scheme   =       TREUTLER

    BS radius alpha  =              1
    Pruning alpha    =              1
    Radial Points    =             75
    Spherical Points =            302
    Total Points     =         312738
    Total Blocks     =            277
    Max Points       =           4810
    Max Functions    =            106

  ==> Pre-Iterations <==

   -------------------------------------------------------
    Irrep   Nso     Nmo     Nalpha   Nbeta   Ndocc  Nsocc
   -------------------------------------------------------
     A        106     106       0       0       0       0
   -------------------------------------------------------
    Total     106     106      17      17      17       0
   -------------------------------------------------------

  ==> Integral Setup <==

  ==> DFJK: Density-Fitted J/K Matrices <==

    J tasked:                  Yes
    K tasked:                  Yes
    wK tasked:                  No
    OpenMP threads:              1
    Integrals threads:           1
    Memory (MB):               715
    Algorithm:                Core
    Integral Cache:           NONE
    Schwarz Cutoff:          1E-12
    Fitting Condition:       1E-12

   => Auxiliary Basis Set <=

  Basis Set: 
    Number of shells: 186
    Number of basis function: 510
    Number of Cartesian functions: 574
    Spherical Harmonics?: true
    Max angular momentum: 3

  Minimum eigenvalue in the overlap matrix is 3.5550150974E-03.
  Using Symmetric Orthogonalization.
  SCF Guess was Projection but file not found.
  Switching over to SAD guess.

  SCF Guess: Superposition of Atomic Densities via on-the-fly atomic UHF.

  ==> Iterations <==

                           Total Energy        Delta E     RMS |[F,P]|

   @DF-RKS iter   0:  -158.89560732068088   -1.58896e+02   3.22462e-02 
   @DF-RKS iter   1:  -158.27852449961361    6.17083e-01   5.14183e-03 
   @DF-RKS iter   2:  -158.20128666537974    7.72378e-02   6.30218e-03 DIIS
   @DF-RKS iter   3:  -158.44798371532482   -2.46697e-01   3.80522e-04 DIIS
   @DF-RKS iter   4:  -158.44882046452662   -8.36749e-04   1.09584e-04 DIIS
   @DF-RKS iter   5:  -158.44888020140434   -5.97369e-05   4.49516e-05 DIIS
   @DF-RKS iter   6:  -158.44889111363420   -1.09122e-05   7.37471e-06 DIIS
   @DF-RKS iter   7:  -158.44889145047767   -3.36843e-07   9.66018e-07 DIIS
   @DF-RKS iter   8:  -158.44889145674506   -6.26738e-09   1.62874e-07 DIIS
   @DF-RKS iter   9:  -158.44889145686869   -1.23634e-10   8.77838e-08 DIIS
   @DF-RKS iter  10:  -158.44889145691076   -4.20641e-11   1.40518e-08 DIIS
   @DF-RKS iter  11:  -158.44889145691187   -1.10845e-12   2.21416e-09 DIIS

  ==> Post-Iterations <==

    Orbital Energies (a.u.)
    -----------------------

    Doubly Occupied:                                                      

       1A    -10.177219     2A    -10.177077     3A    -10.171389  
       4A    -10.171358     5A     -0.788716     6A     -0.713038  
       7A     -0.642439     8A     -0.556058     9A     -0.466250  
      10A     -0.447241    11A     -0.407498    12A     -0.384449  
      13A     -0.372570    14A     -0.364819    15A     -0.320126  
      16A     -0.319488    17A     -0.313706  

    Virtual:                                                              

      18A      0.055355    19A      0.093101    20A      0.096544  
      21A      0.107034    22A      0.127921    23A      0.130159  
      24A      0.153642    25A      0.167838    26A      0.168379  
      27A      0.190647    28A      0.206013    29A      0.234543  
      30A      0.283172    31A      0.407335    32A      0.418885  
      33A      0.431639    34A      0.442826    35A      0.476301  
      36A      0.479827    37A      0.514043    38A      0.581761  
      39A      0.590830    40A      0.610506    41A      0.635497  
      42A      0.650223    43A      0.653980    44A      0.658020  
      45A      0.663085    46A      0.681063    47A      0.686725  
      48A      0.695647    49A      0.719521    50A      0.722517  
      51A      0.753157    52A      0.828366    53A      0.874183  
      54A      0.883582    55A      0.962698    56A      1.075264  
      57A      1.198315    58A      1.207803    59A      1.218704  
      60A      1.269717    61A      1.281759    62A      1.309633  
      63A      1.408046    64A      1.442964    65A      1.479688  
      66A      1.546622    67A      1.567269    68A      1.584852  
      69A      1.600486    70A      1.625535    71A      1.638863  
      72A      1.642505    73A      1.665835    74A      1.677152  
      75A      1.689807    76A      1.695912    77A      1.702374  
      78A      1.741191    79A      1.745095    80A      1.795028  
      81A      1.801346    82A      1.838409    83A      1.841070  
      84A      1.908776    85A      1.941128    86A      1.973604  
      87A      2.030094    88A      2.053643    89A      2.118543  
      90A      2.118684    91A      2.183683    92A      2.240654  
      93A      2.247516    94A      2.256559    95A      2.322769  
      96A      2.334151    97A      2.441548    98A      2.447698  
      99A      2.458225   100A      2.485693   101A      2.547431  
     102A      2.549102   103A      2.607881   104A      2.616086  
     105A      2.631085   106A      2.739339  

    Final Occupation by Irrep:
              A 
    DOCC [    17 ]

  Energy converged.

  @DF-RKS Final Energy:  -158.44889145691187

   => Energetics <=

    Nuclear Repulsion Energy =            133.0157365598630292
    One-Electron Energy =                -474.5255940234001173
    Two-Electron Energy =                 203.6714778424441761
    DFT Exchange-Correlation Energy =     -20.6105118358189721
    Empirical Dispersion Energy =           0.0000000000000000
    PCM Polarization Energy =               0.0000000000000000
    EFP Energy =                            0.0000000000000000
    Total Energy =                       -158.4488914569118663


  Saving occupied orbitals to File 180.

*** tstop() called on lski1497 at Tue Feb 21 18:07:42 2017
Module time:
	user time   =     118.75 seconds =       1.98 minutes
	system time =       1.45 seconds =       0.02 minutes
	total time  =        139 seconds =       2.32 minutes
Total time:
	user time   =     432.90 seconds =       7.22 minutes
	system time =       5.43 seconds =       0.09 minutes
	total time  =        501 seconds =       8.35 minutes


Properties will be evaluated at   0.000000,   0.000000,   0.000000 Bohr

Properties computed using the SCF density matrix

  Nuclear Dipole Moment: (a.u.)
     X:    -0.8656      Y:    -0.3216      Z:    -0.4995

  Electronic Dipole Moment: (a.u.)
     X:     0.8780      Y:     0.3262      Z:     0.5065

  Dipole Moment: (a.u.)
     X:     0.0124      Y:     0.0046      Z:     0.0070     Total:     0.0149

  Dipole Moment: (Debye)
     X:     0.0315      Y:     0.0116      Z:     0.0177     Total:     0.0380


*** tstart() called on lski1497
*** at Tue Feb 21 18:07:42 2017


         ------------------------------------------------------------
                                   SCF GRAD                          
                          Rob Parrish, Justin Turney,                
                       Andy Simmonett, and Alex Sokolov              
         ------------------------------------------------------------

  ==> Geometry <==

    Molecular point group: c1
    Full point group: C1

    Geometry (in Angstrom), charge = 0, multiplicity = 1:

       Center              X                  Y                   Z               Mass       
    ------------   -----------------  -----------------  -----------------  -----------------
           H         -1.796475440256     0.397222323553     0.631397088566     1.007825032070
           H         -1.534464754529     2.062545451141     0.070328776655     1.007825032070
           H         -1.322840288806     0.702871064652    -1.050219916472     1.007825032070
           C         -1.187440290610     1.029872447058    -0.018510723120    12.000000000000
           H          0.876167987667     1.594464976551    -0.273044438160     1.007825032070
           H          0.396498718921     1.289345599578     1.418574866092     1.007825032070
           C          0.300105172954     0.941445486320     0.387613763620    12.000000000000
           H          1.906066543307    -0.434801835496    -0.093473339755     1.007825032070
           H          0.909020230303    -0.932665814621     1.299965360337     1.007825032070
           C          0.887800384484    -0.500579536626     0.296245806445    12.000000000000
           H          0.543104547102    -2.430236764083    -0.641612622177     1.007825032070
           H          0.045716129150    -1.046796377559    -1.638693664995     1.007825032070
           H         -0.946125529938    -1.545045403329    -0.256088678555     1.007825032070
           C          0.077081146377    -1.441923269842    -0.620595824741    12.000000000000

  Nuclear repulsion =  133.015736559863029

  ==> Basis Set <==

  Basis Set: CC-PVDZ
    Number of shells: 54
    Number of basis function: 106
    Number of Cartesian functions: 110
    Spherical Harmonics?: true
    Max angular momentum: 2

  ==> DFJKGrad: Density-Fitted SCF Gradients <==

    Gradient:                    1
    J tasked:                  Yes
    K tasked:                  Yes
    wK tasked:                  No
    OpenMP threads:              1
    Integrals threads:           1
    Memory (MB):               715
    Schwarz Cutoff:          0E+00
    Fitting Condition:       1E-12

   => Auxiliary Basis Set <=

  Basis Set: 
    Number of shells: 186
    Number of basis function: 510
    Number of Cartesian functions: 574
    Spherical Harmonics?: true
    Max angular momentum: 3

  ==> DFT Potential <==

   => B3LYP Composite Functional <= 

    B3LYP Hybrid-GGA Exchange-Correlation Functional (VWN1-RPA)

    P.J. Stephens et. al., J. Phys. Chem., 98, 11623-11627, 1994

    Points   =           5000
    Deriv    =              1
    GGA      =           TRUE
    Meta     =          FALSE

    X_LRC        =          FALSE
    X_Hybrid     =           TRUE
    X_Alpha      =   2.000000E-01
    X_Omega      =   0.000000E+00
    C_LRC        =          FALSE
    C_Hybrid     =          FALSE
    C_Alpha      =   0.000000E+00
    C_Omega      =   0.000000E+00

   => Exchange Functionals <=

    0.8000    B3_X
    0.2000      HF 

   => Correlation Functionals <=

    0.1900 VWN3RPA_C
    0.8100   LYP_C

   => Molecular Quadrature <=

    Radial Scheme    =       TREUTLER
    Pruning Scheme   =           FLAT
    Nuclear Scheme   =       TREUTLER

[...]
       3       -0.000001200648    -0.000000524991     0.000002204634
       4        0.001049779402     0.000690949666    -0.003603386204
       5        0.000015373382    -0.000005750402     0.000007293112
       6        0.000000736645     0.000009116529     0.000009545789
       7       -0.002482266329    -0.001472694714     0.006496371534
       8        0.000012160880    -0.000004595582    -0.000002014700
       9        0.000008095227     0.000014729734     0.000006702213
      10        0.003573534793     0.001874061695    -0.005851990207
      11        0.000000151879    -0.000016965261     0.000002323805
      12        0.000008853385     0.000000631689     0.000008158644
      13        0.000001404517     0.000000606269    -0.000002256018
      14       -0.002157903837    -0.001098825868     0.002949078576


*** tstop() called on lski1497 at Tue Feb 21 18:23:00 2017
Module time:
	user time   =      38.71 seconds =       0.65 minutes
	system time =       0.61 seconds =       0.01 minutes
	total time  =         44 seconds =       0.73 minutes
Total time:
	user time   =    1255.87 seconds =      20.93 minutes
	system time =      16.06 seconds =       0.27 minutes
	total time  =       1419 seconds =      23.65 minutes

			-----------------------------------------
			 OPTKING 2.0: for geometry optimizations 
			  - R.A. King,  Bethel University        
			-----------------------------------------

	Previous internal coordinate definitions found.
	---Fragment 1 Geometry and Gradient---
	 H          -3.5250672797        0.8963052523        1.1802720976
	 H          -2.8584898910        4.0415464658        0.2198945765
	 H          -2.5991449735        1.5264316641       -1.9875729219
	 C          -2.2613892338        2.0584139000       -0.0041306783
	 H           1.6361063032        3.0277361700       -0.4849932053
	 H           0.8063919364        2.4616037673        2.6785442641
	 C           0.5219043726        1.7524927206        0.7386145988
	 H           3.6333973132       -0.8242769483       -0.0581221383
	 H           1.6871454979       -1.8021677896        2.4464253628
	 C           1.6394957813       -0.9554025943        0.5370737747
	 H           1.1901173066       -4.6568128791       -1.2046135521
	 H           0.1593961374       -2.1374987954       -3.1667216082
	 H          -1.7250273440       -3.1211396418       -0.5646019061
	 C           0.2339605207       -2.8060976940       -1.1924863442
	             0.0000102348        0.0000063254        0.0000030824
	            -0.0000069697        0.0000147325       -0.0000062349
	            -0.0000012006       -0.0000005250        0.0000022046
	             0.0010497794        0.0006909497       -0.0036033862
	             0.0000153734       -0.0000057504        0.0000072931
	             0.0000007366        0.0000091165        0.0000095458
	            -0.0024822663       -0.0014726947        0.0064963715
	             0.0000121609       -0.0000045956       -0.0000020147
	             0.0000080952        0.0000147297        0.0000067022
	             0.0035735348        0.0018740617       -0.0058519902
	             0.0000001519       -0.0000169653        0.0000023238
	             0.0000088534        0.0000006317        0.0000081586
	             0.0000014045        0.0000006063       -0.0000022560
	            -0.0021579038       -0.0010988259        0.0029490786

	---Fragment 1 Intrafragment Coordinates---
	 - Coordinate -           - BOHR/RAD -       - ANG/DEG -
	 R(1,4)           =         2.085711	       1.103711
	 R(2,4)           =         2.083154	       1.102358
	 R(3,4)           =         2.081136	       1.101290
	 R(4,7)           =         2.896892	       1.532969
	 R(5,7)           =         2.089236	       1.105576
	 R(6,7)           =         2.084970	       1.103318
	 R(7,10)          =         2.936380	       1.553865
	 R(8,10)          =         2.084969	       1.103318
	 R(9,10)          =         2.089236	       1.105576
	 R(10,14)         =         2.896891	       1.532969
	 R(11,14)         =         2.083154	       1.102357
	 R(12,14)         =         2.085711	       1.103711
	 R(13,14)         =         2.081135	       1.101289
	 B(1,4,2)         =         1.870975	     107.198996
	 B(1,4,3)         =         1.875963	     107.484790
	 B(1,4,7)         =         1.958084	     112.189967
	 B(2,4,3)         =         1.874778	     107.416878
	 B(2,4,7)         =         1.926610	     110.386599
	 B(3,4,7)         =         1.953353	     111.918876
	 B(4,7,5)         =         1.873153	     107.323788
	 B(4,7,6)         =         1.911062	     109.495807
	 B(4,7,10)        =         2.032490	     116.453108
	 B(5,7,6)         =         1.838550	     105.341157
	 B(5,7,10)        =         1.896227	     108.645805
	 B(6,7,10)        =         1.902412	     109.000186
	 B(7,10,8)        =         1.902415	     109.000355
	 B(7,10,9)        =         1.896226	     108.645769
	 B(7,10,14)       =         2.032485	     116.452791
	 B(8,10,9)        =         1.838554	     105.341369
	 B(8,10,14)       =         1.911061	     109.495731
	 B(9,10,14)       =         1.873155	     107.323887
	 B(10,14,11)      =         1.926606	     110.386374
	 B(10,14,12)      =         1.958089	     112.190224
	 B(10,14,13)      =         1.953351	     111.918766
	 B(11,14,12)      =         1.870976	     107.199040
	 B(11,14,13)      =         1.874779	     107.416928
	 B(12,14,13)      =         1.875963	     107.484778
	 D(1,4,7,5)       =        -3.104657	    -177.883766
	 D(1,4,7,6)       =        -1.117511	     -64.028687
	 D(1,4,7,10)      =         1.049986	      60.159775
	 D(2,4,7,5)       =        -1.019170	     -58.394158
	 D(2,4,7,6)       =         0.967976	      55.460921
	 D(2,4,7,10)      =         3.135473	     179.649383
	 D(3,4,7,5)       =         1.068013	      61.192626
	 D(3,4,7,6)       =         3.055159	     175.047705
	 D(3,4,7,10)      =        -1.060529	     -60.763833
	 D(4,7,10,8)      =         2.531812	     145.062119
	 D(4,7,10,9)      =        -1.756475	    -100.638630
	 D(4,7,10,14)     =         0.359892	      20.620307
	 D(5,7,10,8)      =         0.415442	      23.803063
	 D(5,7,10,9)      =         2.410340	     138.102314
	 D(5,7,10,14)     =        -1.756478	    -100.638749
	 D(6,7,10,8)      =        -1.579451	     -90.495868
	 D(6,7,10,9)      =         0.415447	      23.803383
	 D(6,7,10,14)     =         2.531815	     145.062320
	 D(7,10,14,11)    =         3.135463	     179.648812
	 D(7,10,14,12)    =         1.049975	      60.159132
	 D(7,10,14,13)    =        -1.060542	     -60.764564
	 D(8,10,14,11)    =         0.967967	      55.460429
	 D(8,10,14,12)    =        -1.117521	     -64.029251
	 D(8,10,14,13)    =         3.055147	     175.047052
	 D(9,10,14,11)    =        -1.019184	     -58.394913
	 D(9,10,14,12)    =        -3.104672	    -177.884593
	 D(9,10,14,13)    =         1.067997	      61.191710

	Current energy   :      -158.4517985883

	Energy change for the previous step:
		Projected    :        -0.0000068428
		Actual       :        -0.0000018097

	Performing BFGS update.
	Previous computed or guess Hessian on step 1.
	Steps to be used in Hessian update: 7 6
	Adding user-defined constraint: Fragment 1; Coordinate 49:
		Value =     0.359892; Fixed value    =     0.349070
		Force =    -0.007305; Force constant =     0.675000
	Removing off-diagonal coupling between coordinate 49 and others.
	Taking RFO optimization step.
	Going to follow RFO solution 1.
	Rejecting RFO root 1 because normalization gives large value.
	Rejecting RFO root 2 because normalization gives large value.
	Rejecting RFO root 3 because normalization gives large value.
	Rejecting RFO root 4 because normalization gives large value.
	Rejecting RFO root 5 because normalization gives large value.
	Rejecting RFO root 6 because normalization gives large value.
	Rejecting RFO root 7 because normalization gives large value.
	Rejecting RFO root 8 because normalization gives large value.
	Rejecting RFO root 9 because normalization gives large value.
	Rejecting RFO root 10 because normalization gives large value.
	Rejecting RFO root 11 because normalization gives large value.
	Rejecting RFO root 12 because normalization gives large value.
	Rejecting RFO root 13 because normalization gives large value.
	Rejecting RFO root 14 because normalization gives large value.
	Rejecting RFO root 15 because normalization gives large value.
	Rejecting RFO root 16 because normalization gives large value.
	Rejecting RFO root 17 because normalization gives large value.
	Rejecting RFO root 18 because normalization gives large value.
	Rejecting RFO root 19 because normalization gives large value.
	Rejecting RFO root 20 because normalization gives large value.
	Rejecting RFO root 21 because normalization gives large value.
	Rejecting RFO root 22 because normalization gives large value.
	Rejecting RFO root 23 because normalization gives large value.
	Rejecting RFO root 24 because normalization gives large value.
	Rejecting RFO root 25 because normalization gives large value.
	Rejecting RFO root 26 because normalization gives large value.
	Rejecting RFO root 27 because normalization gives large value.
	Rejecting RFO root 28 because normalization gives large value.
	Rejecting RFO root 29 because normalization gives large value.
	Rejecting RFO root 30 because normalization gives large value.
	Rejecting RFO root 31 because normalization gives large value.
	Using RFO vector 32.
	Norm of target step-size    0.00137
	Projected energy change by RFO approximation:         0.0000000307

	Back-transformation to cartesian coordinates...
	Successfully converged to displaced geometry.
	First geometry is closer to target in internal coordinates, so am using that one.
	First geometry has RMS(Delta(q)) = 3.62e-08

	--- Internal Coordinate Step in ANG or DEG, aJ/ANG or AJ/DEG ---
	 ---------------------------------------------------------------------------
	   Coordinate                Previous        Force       Change         New 
	   ----------                --------       ------       ------       ------
	    1 R(1,4)          =      1.103711     0.000048     0.000015     1.103725
	    2 R(2,4)          =      1.102358    -0.000122    -0.000014     1.102344
	    3 R(3,4)          =      1.101290     0.000005     0.000010     1.101300
	    4 R(4,7)          =      1.532969     0.000010    -0.000056     1.532913
	    5 R(5,7)          =      1.105576     0.000009     0.000202     1.105779
	    6 R(6,7)          =      1.103318    -0.000087    -0.000001     1.103317
	    7 R(7,10)         =      1.553865    -0.000316    -0.000052     1.553813
	    8 R(8,10)         =      1.103318    -0.000086    -0.000001     1.103317
	    9 R(9,10)         =      1.105576     0.000009     0.000212     1.105788
	   10 R(10,14)        =      1.532969     0.000012    -0.000057     1.532912
	   11 R(11,14)        =      1.102357    -0.000121    -0.000014     1.102343
	   12 R(12,14)        =      1.103711     0.000047     0.000014     1.103725
	   13 R(13,14)        =      1.101289     0.000008     0.000010     1.101299
	   14 B(1,4,2)        =    107.198996     0.000000     0.000760   107.199757
	   15 B(1,4,3)        =    107.484790    -0.000000    -0.003143   107.481646
	   16 B(1,4,7)        =    112.189967     0.000001     0.002912   112.192880
	   17 B(2,4,3)        =    107.416878     0.000001    -0.003341   107.413538
	   18 B(2,4,7)        =    110.386599    -0.000001    -0.003080   110.383519
	   19 B(3,4,7)        =    111.918876    -0.000000     0.005461   111.924337
	   20 B(4,7,5)        =    107.323788    -0.000009     0.007731   107.331518
	   21 B(4,7,6)        =    109.495807     0.000008    -0.012423   109.483385
	   22 B(4,7,10)       =    116.453108    -0.000001     0.003394   116.456503
	   23 B(5,7,6)        =    105.341157     0.000000    -0.002894   105.338263
	   24 B(5,7,10)       =    108.645805     0.000001    -0.019236   108.626569
	   25 B(6,7,10)       =    109.000186    -0.000001     0.022276   109.022462
	   26 B(7,10,8)       =    109.000355    -0.000001     0.022438   109.022793
	   27 B(7,10,9)       =    108.645769     0.000001    -0.019065   108.626705
	   28 B(7,10,14)      =    116.452791    -0.000001     0.003372   116.456163
	   29 B(8,10,9)       =    105.341369     0.000000    -0.003056   105.338313
	   30 B(8,10,14)      =    109.495731     0.000008    -0.012382   109.483349
	   31 B(9,10,14)      =    107.323887    -0.000009     0.007519   107.331406
	   32 B(10,14,11)     =    110.386374    -0.000001    -0.003038   110.383336
	   33 B(10,14,12)     =    112.190224     0.000001     0.002269   112.192492
	   34 B(10,14,13)     =    111.918766    -0.000000     0.005410   111.924176
	   35 B(11,14,12)     =    107.199040     0.000000     0.000925   107.199966
	   36 B(11,14,13)     =    107.416928     0.000001    -0.003164   107.413764
	   37 B(12,14,13)     =    107.484778    -0.000000    -0.002785   107.481993
	   38 D(1,4,7,5)      =   -177.883766    -0.000000     0.002488  -177.881279
	   39 D(1,4,7,6)      =    -64.028687    -0.000000    -0.003027   -64.031714
	   40 D(1,4,7,10)     =     60.159775     0.000001     0.019283    60.179058
	   41 D(2,4,7,5)      =    -58.394158    -0.000000     0.003274   -58.390884
	   42 D(2,4,7,6)      =     55.460921    -0.000000    -0.002241    55.458680
	   43 D(2,4,7,10)     =    179.649383     0.000001     0.020070   179.669452
	   44 D(3,4,7,5)      =     61.192626    -0.000000     0.000565    61.193191
	   45 D(3,4,7,6)      =    175.047705    -0.000001    -0.004949   175.042756
	   46 D(3,4,7,10)     =    -60.763833     0.000001     0.017361   -60.746472
	   47 D(4,7,10,8)     =    145.062119    -0.000002     0.005194   145.067313
	   48 D(4,7,10,9)     =   -100.638630    -0.000002     0.003268  -100.635362
	   49 D(4,7,10,14)    =     20.620307    -0.000005     0.000515    20.620822
	   50 D(5,7,10,8)     =     23.803063     0.000000     0.007789    23.810851
	   51 D(5,7,10,9)     =    138.102314     0.000000     0.005863   138.108177
	   52 D(5,7,10,14)    =   -100.638749    -0.000002     0.003109  -100.635640
	   53 D(6,7,10,8)     =    -90.495868    -0.000000     0.009700   -90.486169
	   54 D(6,7,10,9)     =     23.803383     0.000000     0.007773    23.811157
	   55 D(6,7,10,14)    =    145.062320    -0.000002     0.005020   145.067341
	   56 D(7,10,14,11)   =    179.648812     0.000001     0.021121   179.669933
	   57 D(7,10,14,12)   =     60.159132     0.000001     0.020521    60.179653
	   58 D(7,10,14,13)   =    -60.764564     0.000001     0.018630   -60.745934
	   59 D(8,10,14,11)   =     55.460429    -0.000000    -0.001426    55.459003
	   60 D(8,10,14,12)   =    -64.029251    -0.000000    -0.002026   -64.031277
	   61 D(8,10,14,13)   =    175.047052    -0.000001    -0.003917   175.043135
	   62 D(9,10,14,11)   =    -58.394913    -0.000000     0.004369   -58.390544
	   63 D(9,10,14,12)   =   -177.884593    -0.000000     0.003769  -177.880824
	   64 D(9,10,14,13)   =     61.191710    -0.000000     0.001878    61.193588
	 ---------------------------------------------------------------------------
	 Forces used to impose fixed constraints are not included.
	  Forces zeroed: 49 

  ==> Convergence Check <==

  Measures of convergence in internal coordinates in au.
  Criteria marked as inactive (o), active & met (*), and active & unmet ( ).
  ---------------------------------------------------------------------------------------------
   Step     Total Energy     Delta E     MAX Force     RMS Force      MAX Disp      RMS Disp   
  ---------------------------------------------------------------------------------------------
    Convergence Criteria    1.00e-06 *    3.00e-04 *             o    1.20e-03 *             o
  ---------------------------------------------------------------------------------------------
      8    -158.45179859   -1.81e-06      1.35e-04 *    4.76e-05 o    4.00e-04 *    1.72e-04 o  ~
  ---------------------------------------------------------------------------------------------


  **** Optimization is complete! (in 8 steps) ****

  ==> Optimization Summary <==

  Measures of convergence in internal coordinates in au.
  --------------------------------------------------------------------------------------------------------------- ~
   Step         Total Energy             Delta E       MAX Force       RMS Force        MAX Disp        RMS Disp  ~
  --------------------------------------------------------------------------------------------------------------- ~
      1    -158.434670529594   -158.434670529594      0.05722333      0.01564080      0.04721285      0.01270258  ~
      2    -158.444118528677     -0.009447999083      0.02479734      0.00844434      0.02696254      0.01252745  ~
      3    -158.448891456912     -0.004772928235      0.01367495      0.00414431      0.03132268      0.01254570  ~
      4    -158.450870811119     -0.001979354207      0.00599279      0.00171468      0.04288850      0.01250851  ~
      5    -158.451590525221     -0.000719714101      0.00163070      0.00056191      0.04927957      0.01252430  ~
      6    -158.451782872094     -0.000192346874      0.00041022      0.00013954      0.01492869      0.00556167  ~
      7    -158.451796778612     -0.000013906517      0.00020137      0.00005976      0.00369030      0.00147120  ~
      8    -158.451798588309     -0.000001809697      0.00026979      0.00005834      0.00040042      0.00017153  ~
  --------------------------------------------------------------------------------------------------------------- ~

	Writing optimization data to binary file.
	Final energy is   -158.4517985883085
	Final (previous) structure:
	Cartesian Geometry (in Angstrom)
	    H    -1.8653852632   0.4743043115   0.6245730940
	    H    -1.5126477013   2.1386942772   0.1163631982
	    H    -1.3754082818   0.8077528471  -1.0517782907
	    C    -1.1966756423   1.0892657217  -0.0021858608
	    H     0.8657901665   1.6022089748  -0.2566473506
	    H     0.4267242339   1.3026246102   1.4174245768
	    C     0.2761798990   0.9273792060   0.3908580116
	    H     1.9227110479  -0.4361885746  -0.0307569109
	    H     0.8927989451  -0.9536661203   1.2945925445
	    C     0.8675838010  -0.5055772779   0.2842072009
	    H     0.6297829542  -2.4642792403  -0.6374540369
	    H     0.0843488031  -1.1311156459  -1.6757569010
	    H    -0.9128451547  -1.6516359633  -0.2987744607
	    C     0.1238065753  -1.4849229448  -0.6310365949
	Saving final (previous) structure.
			--------------------------
			 OPTKING Finished Execution 
			--------------------------

    Final optimized geometry and variables:
    Molecular point group: c1
    Full point group: C1

    Geometry (in Angstrom), charge = 0, multiplicity = 1:

    H           -1.865385263168     0.474304311476     0.624573093983
    H           -1.512647701294     2.138694277181     0.116363198182
    H           -1.375408281775     0.807752847100    -1.051778290673
    C           -1.196675642304     1.089265721721    -0.002185860789
    H            0.865790166471     1.602208974800    -0.256647350580
    H            0.426724233924     1.302624610229     1.417424576785
    C            0.276179899035     0.927379205973     0.390858011640
    H            1.922711047889    -0.436188574628    -0.030756910900
    H            0.892798945050    -0.953666120292     1.294592544491
    C            0.867583801034    -0.505577277919     0.284207200905
    H            0.629782954209    -2.464279240285    -0.637454036918
    H            0.084348803058    -1.131115645924    -1.675756901002
    H           -0.912845154650    -1.651635963268    -0.298774460654
    C            0.123806575282    -1.484922944759    -0.631036594921

	Cleaning optimization helper files.

*** Psi4 exiting successfully. Buy a developer a beer!
