    -----------------------------------------------------------------------
          Psi4: An Open-Source Ab Initio Electronic Structure Package
                              Psi4 1.0.0 Driver

                          Git: Rev {master} 6a9a71b 

    J. M. Turney, A. C. Simmonett, R. M. Parrish, E. G. Hohenstein,
    F. A. Evangelista, J. T. Fermann, B. J. Mintz, L. A. Burns, J. J. Wilke,
    M. L. Abrams, N. J. Russ, M. L. Leininger, C. L. Janssen, E. T. Seidl,
    W. D. Allen, H. F. Schaefer, R. A. King, E. F. Valeev, C. D. Sherrill,
    and T. D. Crawford, WIREs Comput. Mol. Sci. 2, 556-565 (2012)
    (doi: 10.1002/wcms.93)

                         Additional Contributions by
    A. E. DePrince, U. Bozkaya, A. Yu. Sokolov, D. G. A. Smith, R. Di Remigio,
    R. M. Richard, J. F. Gonthier, H. R. McAlexander, M. Saitow, and
    B. P. Pritchard
    -----------------------------------------------------------------------


    Psi4 started on: Thu Feb 16 16:34:20 2017

    Process ID:   2018
    PSI4DATADIR: /Users/sternc1/anaconda/share/psi4
    Memory level set to 256.000 MB

  ==> Input File <==

--------------------------------------------------------------------------

memory 1000 mb

molecule butane {
  symmetry C1
  0 1 
  H      1.604   0.760   -8.260
  H      1.745   2.388   -8.880
  H      2.043   1.024   -9.930
  C      2.142   1.395   -8.932
  H      4.169   2.051   -9.210
  H      3.731   1.788   -7.539
  C      3.631   1.416   -8.537
  H      4.266   -0.317   -9.635
  H      5.179   -0.029   -8.175
  C      4.203   -0.012   -8.612
  H      3.678   -1.968   -7.897
  H      2.304   -0.960   -8.281
  H      3.218   -0.671   -6.820
  C      3.281   -0.976   -7.844
  units Angstrom
}

dih_string = "4 7 10 14 310"
set optking fixed_dihedral = $dih_string

optimize('MP2/6-31G(d)')
--------------------------------------------------------------------------

  Memory set to 1000.000 MiB by Python script.
gradient() will perform analytic gradient computation.
    SCF Algorithm Type (re)set to DF.

*** tstart() called on lski1497
*** at Thu Feb 16 16:34:21 2017


         ---------------------------------------------------------
                                   SCF
            by Justin Turney, Rob Parrish, and Andy Simmonett
                              RHF Reference
                        1 Threads,   1000 MiB Core
         ---------------------------------------------------------

  ==> Geometry <==

    Molecular point group: c1
    Full point group: C1

    Geometry (in Angstrom), charge = 0, multiplicity = 1:

       Center              X                  Y                   Z               Mass       
    ------------   -----------------  -----------------  -----------------  -----------------
           H         -1.689331100594     0.312778941566     0.218031040365     1.007825032070
           H         -1.548331100594     1.940778941566    -0.401968959635     1.007825032070
           H         -1.250331100594     0.576778941566    -1.451968959635     1.007825032070
           C         -1.151331100594     0.947778941566    -0.453968959635    12.000000000000
           H          0.875668899406     1.603778941566    -0.731968959635     1.007825032070
           H          0.437668899406     1.340778941566     0.939031040365     1.007825032070
           C          0.337668899406     0.968778941566    -0.058968959635    12.000000000000
           H          0.972668899406    -0.764221058434    -1.156968959635     1.007825032070
           H          1.885668899406    -0.476221058434     0.303031040365     1.007825032070
           C          0.909668899406    -0.459221058434    -0.133968959635    12.000000000000
           H          0.384668899406    -2.415221058434     0.581031040365     1.007825032070
           H         -0.989331100594    -1.407221058434     0.197031040365     1.007825032070
           H         -0.075331100594    -1.118221058434     1.658031040365     1.007825032070
           C         -0.012331100594    -1.423221058434     0.634031040365    12.000000000000

  Running in c1 symmetry.

  Rotational constants: A =      0.40475  B =      0.18452  C =      0.14636 [cm^-1]
  Rotational constants: A =  12134.17430  B =   5531.74844  C =   4387.79066 [MHz]
  Nuclear repulsion =  135.191691227725556

  Charge       = 0
  Multiplicity = 1
  Electrons    = 34
  Nalpha       = 17
  Nbeta        = 17

  ==> Algorithm <==

  SCF Algorithm Type is DF.
  DIIS enabled.
  MOM disabled.
  Fractional occupation disabled.
  Guess Type is SAD.
  Energy threshold   = 1.00e-10
  Density threshold  = 1.00e-10
  Integral threshold = 0.00e+00

  ==> Primary Basis <==

  Basis Set: 6-31G(D)
    Number of shells: 44
    Number of basis function: 80
    Number of Cartesian functions: 80
    Spherical Harmonics?: false
    Max angular momentum: 2

  ==> Pre-Iterations <==

   -------------------------------------------------------
    Irrep   Nso     Nmo     Nalpha   Nbeta   Ndocc  Nsocc
   -------------------------------------------------------
     A         80      80       0       0       0       0
   -------------------------------------------------------
    Total      80      80      17      17      17       0
   -------------------------------------------------------

  ==> Integral Setup <==

  ==> DFJK: Density-Fitted J/K Matrices <==

    J tasked:                  Yes
    K tasked:                  Yes
    wK tasked:                  No
    OpenMP threads:              1
    Integrals threads:           1
    Memory (MB):               715
    Algorithm:                Core
    Integral Cache:           NONE
    Schwarz Cutoff:          1E-12
    Fitting Condition:       1E-12

   => Auxiliary Basis Set <=

  Basis Set: 
    Number of shells: 186
    Number of basis function: 574
    Number of Cartesian functions: 574
    Spherical Harmonics?: false
    Max angular momentum: 3

  Minimum eigenvalue in the overlap matrix is 5.0462327730E-03.
  Using Symmetric Orthogonalization.
  SCF Guess: Superposition of Atomic Densities via on-the-fly atomic UHF.

  ==> Iterations <==

                           Total Energy        Delta E     RMS |[F,P]|

   @DF-RHF iter   0:  -158.85223569752529   -1.58852e+02   4.63428e-02 
   @DF-RHF iter   1:  -157.17449588023035    1.67774e+00   4.70738e-03 
   @DF-RHF iter   2:  -157.27439962030755   -9.99037e-02   1.56713e-03 DIIS
   @DF-RHF iter   3:  -157.28539178753456   -1.09922e-02   6.08245e-04 DIIS
   @DF-RHF iter   4:  -157.28727158897354   -1.87980e-03   8.74804e-05 DIIS
   @DF-RHF iter   5:  -157.28733018644814   -5.85975e-05   1.91908e-05 DIIS
   @DF-RHF iter   6:  -157.28733276656735   -2.58012e-06   5.18426e-06 DIIS
   @DF-RHF iter   7:  -157.28733290897438   -1.42407e-07   1.23890e-06 DIIS
   @DF-RHF iter   8:  -157.28733291995260   -1.09782e-08   2.92699e-07 DIIS
   @DF-RHF iter   9:  -157.28733292065507   -7.02471e-10   7.71509e-08 DIIS
   @DF-RHF iter  10:  -157.28733292070089   -4.58158e-11   2.18780e-08 DIIS
   @DF-RHF iter  11:  -157.28733292070368   -2.78533e-12   5.00466e-09 DIIS
   @DF-RHF iter  12:  -157.28733292070373   -5.68434e-14   1.10080e-09 DIIS
   @DF-RHF iter  13:  -157.28733292070362    1.13687e-13   2.26598e-10 DIIS
   @DF-RHF iter  14:  -157.28733292070368   -5.68434e-14   7.39220e-11 DIIS

  ==> Post-Iterations <==

    Orbital Energies (a.u.)
    -----------------------

    Doubly Occupied:                                                      

       1A    -11.207987     2A    -11.207370     3A    -11.199304  
       4A    -11.199275     5A     -1.075105     6A     -0.972001  
       7A     -0.880971     8A     -0.779122     9A     -0.635748  
      10A     -0.629445    11A     -0.576735    12A     -0.537990  
      13A     -0.528961    14A     -0.505956    15A     -0.470029  
      16A     -0.454091    17A     -0.452638  

    Virtual:                                                              

      18A      0.235185    19A      0.282856    20A      0.290718  
      21A      0.303343    22A      0.318775    23A      0.321845  
      24A      0.344068    25A      0.351747    26A      0.371360  
      27A      0.380505    28A      0.397147    29A      0.416223  
      30A      0.446664    31A      0.715058    32A      0.728856  
      33A      0.745694    34A      0.749053    35A      0.768244  
      36A      0.836219    37A      0.861371    38A      0.927896  
      39A      0.951571    40A      0.995490    41A      1.113876  
      42A      1.127679    43A      1.177460    44A      1.180218  
      45A      1.186668    46A      1.207595    47A      1.215540  
      48A      1.224501    49A      1.240280    50A      1.268632  
      51A      1.271465    52A      1.307169    53A      1.324083  
      54A      1.575884    55A      1.717899    56A      1.724094  
      57A      1.783772    58A      1.876416    59A      1.964248  
      60A      2.046775    61A      2.166835    62A      2.272242  
      63A      2.310104    64A      2.319036    65A      2.352367  
      66A      2.457636    67A      2.492942    68A      2.651169  
      69A      2.674549    70A      2.684697    71A      2.688698  
      72A      2.752422    73A      2.800601    74A      2.935877  
      75A      2.946706    76A      3.093165    77A      4.586033  
      78A      4.693449    79A      4.807722    80A      4.950703  

    Final Occupation by Irrep:
              A 
    DOCC [    17 ]

  Energy converged.

  @DF-RHF Final Energy:  -157.28733292070368

   => Energetics <=

    Nuclear Repulsion Energy =            135.1916912277255562
    One-Electron Energy =                -478.3325892474267675
    Two-Electron Energy =                 185.8535650989974499
    DFT Exchange-Correlation Energy =       0.0000000000000000
    Empirical Dispersion Energy =           0.0000000000000000
    PCM Polarization Energy =               0.0000000000000000
    EFP Energy =                            0.0000000000000000
    Total Energy =                       -157.2873329207037898


  Saving occupied orbitals to File 180.

*** tstop() called on lski1497 at Thu Feb 16 16:34:27 2017
Module time:
	user time   =       5.04 seconds =       0.08 minutes
	system time =       0.16 seconds =       0.00 minutes
	total time  =          6 seconds =       0.10 minutes
Total time:
	user time   =       5.04 seconds =       0.08 minutes
	system time =       0.16 seconds =       0.00 minutes
	total time  =          6 seconds =       0.10 minutes


Properties will be evaluated at   0.000000,   0.000000,   0.000000 Bohr

Properties computed using the SCF density matrix

  Nuclear Dipole Moment: (a.u.)
     X:    -0.9340      Y:    -0.3808      Z:     0.1437

  Electronic Dipole Moment: (a.u.)
     X:     0.9632      Y:     0.3920      Z:    -0.1486

  Dipole Moment: (a.u.)
     X:     0.0292      Y:     0.0112      Z:    -0.0049     Total:     0.0317

  Dipole Moment: (Debye)
     X:     0.0743      Y:     0.0284      Z:    -0.0124     Total:     0.0805


  //>>>>>>>>>>>>>>>>>>>>>>>>>>>>>>>>>>>//
  //               DFMP2               //
  //<<<<<<<<<<<<<<<<<<<<<<<<<<<<<<<<<<<//


*** tstart() called on lski1497
*** at Thu Feb 16 16:34:27 2017


*** tstop() called on lski1497 at Thu Feb 16 16:34:28 2017
Module time:
	user time   =       0.54 seconds =       0.01 minutes
	system time =       0.00 seconds =       0.00 minutes
	total time  =          1 seconds =       0.02 minutes
Total time:
	user time   =       5.60 seconds =       0.09 minutes
	system time =       0.16 seconds =       0.00 minutes
	total time  =          7 seconds =       0.12 minutes
	 --------------------------------------------------------
	                          DF-MP2                         
	      2nd-Order Density-Fitted Moller-Plesset Theory     
	              RMP2 Wavefunction,   1 Threads             
	                                                         
	        Rob Parrish, Justin Turney, Andy Simmonett,      
	           Ed Hohenstein, and C. David Sherrill          
	 --------------------------------------------------------

   => Auxiliary Basis Set <=

  Basis Set: 
    Number of shells: 132
    Number of basis function: 364
    Number of Cartesian functions: 414
    Spherical Harmonics?: true
    Max angular momentum: 3

	 --------------------------------------------------------
	                 NBF =    80, NAUX =   364
	 --------------------------------------------------------
	   CLASS    FOCC     OCC    AOCC    AVIR     VIR    FVIR
	   PAIRS       0      17      17      63      63       0
	 --------------------------------------------------------

DGAS Warning! /src/lib/libfock/apps.cc:80 is not currently checking restricted

         ------------------------------------------------------------
                                     CPHF                           
                                  Rob Parrish                       
         ------------------------------------------------------------

  ==> Geometry <==

    Molecular point group: c1
    Full point group: C1

    Geometry (in Angstrom), charge = 0, multiplicity = 1:

       Center              X                  Y                   Z               Mass       
    ------------   -----------------  -----------------  -----------------  -----------------
           H         -1.689331100594     0.312778941566     0.218031040365     1.007825032070
           H         -1.548331100594     1.940778941566    -0.401968959635     1.007825032070
           H         -1.250331100594     0.576778941566    -1.451968959635     1.007825032070
           C         -1.151331100594     0.947778941566    -0.453968959635    12.000000000000
           H          0.875668899406     1.603778941566    -0.731968959635     1.007825032070
           H          0.437668899406     1.340778941566     0.939031040365     1.007825032070
           C          0.337668899406     0.968778941566    -0.058968959635    12.000000000000
           H          0.972668899406    -0.764221058434    -1.156968959635     1.007825032070
           H          1.885668899406    -0.476221058434     0.303031040365     1.007825032070
           C          0.909668899406    -0.459221058434    -0.133968959635    12.000000000000
           H          0.384668899406    -2.415221058434     0.581031040365     1.007825032070
           H         -0.989331100594    -1.407221058434     0.197031040365     1.007825032070
           H         -0.075331100594    -1.118221058434     1.658031040365     1.007825032070
           C         -0.012331100594    -1.423221058434     0.634031040365    12.000000000000

  Nuclear repulsion =  135.191691227725556
  Reference energy  = -157.287332920703676

  ==> Basis Set <==

  Basis Set: 6-31G(D)
    Number of shells: 44
    Number of basis function: 80
    Number of Cartesian functions: 80
    Spherical Harmonics?: false
    Max angular momentum: 2

  ==> CGRSolver (by Rob Parrish) <==

   Number of roots    =         1
   Preconditioning    =    JACOBI
   Convergence cutoff =     1E-06
   Maximum iterations =       100

  ==> CPHFRHamiltonian (by Rob Parrish) <== 

  ==> DFJK: Density-Fitted J/K Matrices <==

    J tasked:                  Yes
    K tasked:                  Yes
    wK tasked:                  No
    OpenMP threads:              1
    Integrals threads:           1
    Memory (MB):               715
    Algorithm:                Core
    Integral Cache:           NONE
    Schwarz Cutoff:          1E-12
    Fitting Condition:       1E-12

   => Auxiliary Basis Set <=

  Basis Set: 
    Number of shells: 186
    Number of basis function: 574
    Number of Cartesian functions: 574
    Spherical Harmonics?: false
    Max angular momentum: 3

  ==> CPHF Iterations <==

  => Iterations <=

             Iter  Converged  Remaining    Residual
  CGR           1          0          1   7.545E-02
  CGR           2          0          1   8.612E-03
  CGR           3          0          1   2.282E-03
  CGR           4          0          1   4.346E-04
  CGR           5          0          1   7.793E-05
  CGR           6          0          1   1.441E-05
  CGR           7          0          1   2.014E-06
  CGR           8          1          0   4.801E-07

    CGRSolver converged.

  ==> DFCorrGrad: Density-Fitted Correlated Gradients <==

    OpenMP threads:              1
    Integrals threads:           1
    Memory (MB):               715
    Schwarz Cutoff:          0E+00
    Fitting Condition:       1E-12

   => Auxiliary Basis Set <=

  Basis Set: 
    Number of shells: 186
    Number of basis function: 510
    Number of Cartesian functions: 574
    Spherical Harmonics?: true
    Max angular momentum: 3

	-----------------------------------------------------------
	 ==================> DF-MP2 Energies <==================== 
	-----------------------------------------------------------
	 Reference Energy          =    -157.2873329207036761 [Eh]
	 Singles Energy            =      -0.0000000000000000 [Eh]
	 Same-Spin Energy          =      -0.1252493609050224 [Eh]
	 Opposite-Spin Energy      =      -0.4211034783742734 [Eh]
	 Correlation Energy        =      -0.5463528392792958 [Eh]
	 Total Energy              =    -157.8336857599829841 [Eh]
	-----------------------------------------------------------
	 ================> DF-SCS-MP2 Energies <================== 
	-----------------------------------------------------------
	 SCS Same-Spin Scale       =       0.3333333333333333 [-]
	 SCS Opposite-Spin Scale   =       1.2000000000000000 [-]
	 SCS Same-Spin Energy      =      -0.0417497869683408 [Eh]
	 SCS Opposite-Spin Energy  =      -0.5053241740491281 [Eh]
	 SCS Correlation Energy    =      -0.5470739610174689 [Eh]
	 SCS Total Energy          =    -157.8344068817211507 [Eh]
	-----------------------------------------------------------


  -Total Gradient:
     Atom            X                  Y                   Z
    ------   -----------------  -----------------  -----------------
       1        0.012066275906     0.002225743323    -0.006589589726
       2        0.009279577855    -0.013909143936     0.000962741632
       3        0.004438913769     0.006098694512     0.016101847541
       4       -0.025832980061    -0.009640137953    -0.009601707902
       5       -0.009639815774    -0.013002320473     0.007801356052
       6       -0.003069908322    -0.007952212797    -0.016030529389
       7        0.017050045172     0.027696807755     0.013306093471
       8       -0.003362734313     0.005374675336     0.017366243776
       9       -0.018060849178     0.001804464449    -0.003895744047
      10        0.027433736368    -0.010006943847    -0.019841354674
      11       -0.003795409911     0.016896056332    -0.001925584317
      12        0.010968171650     0.007316609798     0.002776739078
      13        0.002889740348    -0.002789357756    -0.016560477214
      14       -0.020364763511    -0.010112934743     0.016129965718


			-----------------------------------------
			 OPTKING 2.0: for geometry optimizations 
			  - R.A. King,  Bethel University        
			-----------------------------------------

	Previous internal coordinate definitions found.
	---Fragment 1 Geometry and Gradient---
	 H          -3.1923731279        0.5910665397        0.4120189548
	 H          -2.9259217432        3.6675406840       -0.7596112476
	 H          -2.3627833556        1.0899542388       -2.7438236872
	 C          -2.1757004684        1.7910426341       -0.8578770065
	 H           1.6547744030        3.0307029772       -1.3832208715
	 H           0.8270743568        2.5337050043        1.7745114966
	 C           0.6381017435        1.8307268829       -0.1114351841
	 H           1.8380778379       -1.4441685054       -2.1863544780
	 H           3.5633977972       -0.8999273792        0.5726456761
	 C           1.7190250915       -0.8678020349       -0.2531646440
	 H           0.7269188717       -4.5641063508        1.0979895410
	 H          -1.8695648349       -2.6592624089        0.3723347060
	 H          -0.1423551494       -2.1131315565        3.1332245861
	 C          -0.0233024030       -2.6894980270        1.1981450260
	             0.0120662759        0.0022257433       -0.0065895897
	             0.0092795779       -0.0139091439        0.0009627416
	             0.0044389138        0.0060986945        0.0161018475
	            -0.0258329801       -0.0096401380       -0.0096017079
	            -0.0096398158       -0.0130023205        0.0078013561
	            -0.0030699083       -0.0079522128       -0.0160305294
	             0.0170500452        0.0276968078        0.0133060935
	            -0.0033627343        0.0053746753        0.0173662438
	            -0.0180608492        0.0018044644       -0.0038957440
	             0.0274337364       -0.0100069438       -0.0198413547
	            -0.0037954099        0.0168960563       -0.0019255843
	             0.0109681716        0.0073166098        0.0027767391
	             0.0028897403       -0.0027893578       -0.0165604772
	            -0.0203647635       -0.0101129347        0.0161299657

	Previous optimization step data not found.  Starting new optimization.

	---Fragment 1 Intrafragment Coordinates---
	 - Coordinate -           - BOHR/RAD -       - ANG/DEG -
	 R(1,4)           =         2.021436	       1.069698
	 R(2,4)           =         2.023298	       1.070683
	 R(3,4)           =         2.020723	       1.069320
	 R(4,7)           =         2.911397	       1.540645
	 R(5,7)           =         2.022623	       1.070326
	 R(6,7)           =         2.021555	       1.069761
	 R(7,10)          =         2.910419	       1.540128
	 R(8,10)          =         2.020791	       1.069356
	 R(9,10)          =         2.021065	       1.069502
	 R(10,14)         =         2.908708	       1.539222
	 R(11,14)         =         2.021638	       1.069805
	 R(12,14)         =         2.022761	       1.070399
	 R(13,14)         =         2.022599	       1.070313
	 B(1,4,2)         =         1.910870	     109.484805
	 B(1,4,3)         =         1.911121	     109.499161
	 B(1,4,7)         =         1.910399	     109.457783
	 B(2,4,3)         =         1.910042	     109.437340
	 B(2,4,7)         =         1.910564	     109.467262
	 B(3,4,7)         =         1.910803	     109.480971
	 B(4,7,5)         =         1.909937	     109.431343
	 B(4,7,6)         =         1.911630	     109.528316
	 B(4,7,10)        =         1.911154	     109.501062
	 B(5,7,6)         =         1.910605	     109.469614
	 B(5,7,10)        =         1.910047	     109.437654
	 B(6,7,10)        =         1.910425	     109.459295
	 B(7,10,8)        =         1.910195	     109.446104
	 B(7,10,9)        =         1.911095	     109.497662
	 B(7,10,14)       =         1.911264	     109.507336
	 B(8,10,9)        =         1.909847	     109.426158
	 B(8,10,14)       =         1.911324	     109.510772
	 B(9,10,14)       =         1.910076	     109.439273
	 B(10,14,11)      =         1.911059	     109.495620
	 B(10,14,12)      =         1.910994	     109.491883
	 B(10,14,13)      =         1.911501	     109.520963
	 B(11,14,12)      =         1.909591	     109.411478
	 B(11,14,13)      =         1.910789	     109.480122
	 B(12,14,13)      =         1.909865	     109.427182
	 D(1,4,7,5)       =         3.140997	     179.965873
	 D(1,4,7,6)       =        -1.047644	     -60.025575
	 D(1,4,7,10)      =         1.047427	      60.013132
	 D(2,4,7,5)       =        -1.047689	     -60.028143
	 D(2,4,7,6)       =         1.046856	      59.980409
	 D(2,4,7,10)      =        -3.141259	    -179.980883
	 D(3,4,7,5)       =         1.046044	      59.933911
	 D(3,4,7,6)       =         3.140588	     179.942463
	 D(3,4,7,10)      =        -1.047526	     -60.018830
	 D(4,7,10,8)      =         1.222511	      70.044695
	 D(4,7,10,9)      =        -2.967229	    -170.009685
	 D(4,7,10,14)     =        -0.872848	     -50.010483
	 D(5,7,10,8)      =        -0.870992	     -49.904181
	 D(5,7,10,9)      =         1.222454	      70.041440
	 D(5,7,10,14)     =        -2.966350	    -169.959359
	 D(6,7,10,8)      =        -2.964867	    -169.874379
	 D(6,7,10,9)      =        -0.871421	     -49.928759
	 D(6,7,10,14)     =         1.222960	      70.070442
	 D(7,10,14,11)    =         3.140663	     179.946720
	 D(7,10,14,12)    =         1.047063	      59.992297
	 D(7,10,14,13)    =        -1.047143	     -59.996900
	 D(8,10,14,11)    =         1.045995	      59.931102
	 D(8,10,14,12)    =        -1.047605	     -60.023321
	 D(8,10,14,13)    =         3.141374	     179.987482
	 D(9,10,14,11)    =        -1.047518	     -60.018353
	 D(9,10,14,12)    =        -3.141118	    -179.972776
	 D(9,10,14,13)    =         1.047861	      60.038027

	Current energy   :      -157.8336857600

	Generating empirical Hessian (Schlegel '84) for each fragment.
	Adding user-defined constraint: Fragment 1; Coordinate 49:
		Value =    -0.872848; Fixed value    =    -0.872660
		Force =     0.000094; Force constant =     0.500000
	Removing off-diagonal coupling between coordinate 49 and others.
	Taking RFO optimization step.
	Going to follow RFO solution 1.
	Using RFO vector 1.

	Determining step-restricting scale parameter for RS-RFO.
	Maximum step size allowed    0.10000

	 Iter      |step|        alpha        rfo_root  
	------------------------------------------------
	    0     0.38588       1.00000           1
	    1     0.27355       3.51494           1
	    2     0.19145      11.63209           1
	    3     0.13969      28.65605           1
	    4     0.11227      50.53337           1
	    5     0.10181      64.42283           1
	    6     0.10005      67.24126           1
	    7     0.10000      67.32415           1
	------------------------------------------------
	Norm of target step-size    0.10000
	Projected energy change by RFO approximation:        -0.0073486223

	Back-transformation to cartesian coordinates...
	Could not converge backtransformation.
	Using first guess instead.

	--- Internal Coordinate Step in ANG or DEG, aJ/ANG or AJ/DEG ---
	 ---------------------------------------------------------------------------
	   Coordinate                Previous        Force       Change         New 
	   ----------                --------       ------       ------       ------
	    1 R(1,4)          =      1.069698     0.094989     0.007926     1.077624
	    2 R(2,4)          =      1.070683     0.134241     0.010394     1.081077
	    3 R(3,4)          =      1.069320     0.144630     0.010491     1.079811
	    4 R(4,7)          =      1.540645    -0.000248     0.001056     1.541701
	    5 R(5,7)          =      1.070326     0.143888     0.010595     1.080921
	    6 R(6,7)          =      1.069761     0.148358     0.010678     1.080438
	    7 R(7,10)         =      1.540128     0.075542     0.006226     1.546354
	    8 R(8,10)         =      1.069356     0.151135     0.010870     1.080226
	    9 R(9,10)         =      1.069502     0.149141     0.010963     1.080465
	   10 R(10,14)        =      1.539222     0.005789     0.001540     1.540761
	   11 R(11,14)        =      1.069805     0.139896     0.010791     1.080596
	   12 R(12,14)        =      1.070399     0.090917     0.007642     1.078041
	   13 R(13,14)        =      1.070313     0.138484     0.010063     1.080376
	   14 B(1,4,2)        =    109.484805    -0.000475    -0.518228   108.966576
	   15 B(1,4,3)        =    109.499161    -0.000279    -0.338740   109.160421
	   16 B(1,4,7)        =    109.457783     0.000628     0.714139   110.171922
	   17 B(2,4,3)        =    109.437340    -0.000258    -0.274627   109.162714
	   18 B(2,4,7)        =    109.467262     0.000221     0.254434   109.721696
	   19 B(3,4,7)        =    109.480971     0.000163     0.155283   109.636254
	   20 B(4,7,5)        =    109.431343    -0.000749    -0.717990   108.713353
	   21 B(4,7,6)        =    109.528316    -0.000612    -0.642322   108.885994
	   22 B(4,7,10)       =    109.501062     0.002449     2.517921   112.018983
	   23 B(5,7,6)        =    109.469614     0.000252     0.139593   109.609206
	   24 B(5,7,10)       =    109.437654    -0.000728    -0.728413   108.709241
	   25 B(6,7,10)       =    109.459295    -0.000611    -0.578996   108.880299
	   26 B(7,10,8)       =    109.446104    -0.000612    -0.580173   108.865930
	   27 B(7,10,9)       =    109.497662    -0.000738    -0.739315   108.758347
	   28 B(7,10,14)      =    109.507336     0.002454     2.522987   112.030323
	   29 B(8,10,9)       =    109.426158     0.000255     0.143664   109.569822
	   30 B(8,10,14)      =    109.510772    -0.000612    -0.641170   108.869602
	   31 B(9,10,14)      =    109.439273    -0.000749    -0.717583   108.721690
	   32 B(10,14,11)     =    109.495620     0.000222     0.255687   109.751307
	   33 B(10,14,12)     =    109.491883     0.000622     0.708540   110.200423
	   34 B(10,14,13)     =    109.520963     0.000161     0.153092   109.674055
	   35 B(11,14,12)     =    109.411478    -0.000469    -0.512464   108.899014
	   36 B(11,14,13)     =    109.480122    -0.000263    -0.280430   109.199692
	   37 B(12,14,13)     =    109.427182    -0.000274    -0.333099   109.094083
	   38 D(1,4,7,5)      =    179.965873     0.000087     0.456743   180.422616
	   39 D(1,4,7,6)      =    -60.025575    -0.000034    -0.186227   -60.211802
	   40 D(1,4,7,10)     =     60.013132     0.000053     0.256775    60.269907
	   41 D(2,4,7,5)      =    -60.028143     0.000072     0.419419   -59.608724
	   42 D(2,4,7,6)      =     59.980409    -0.000048    -0.223552    59.756857
	   43 D(2,4,7,10)     =   -179.980883     0.000039     0.219450  -179.761433
	   44 D(3,4,7,5)      =     59.933911     0.000054     0.334489    60.268400
	   45 D(3,4,7,6)      =    179.942463    -0.000067    -0.308481   179.633981
	   46 D(3,4,7,10)     =    -60.018830     0.000020     0.134521   -59.884309
	   47 D(4,7,10,8)     =     70.044695     0.000034     0.229864    70.274559
	   48 D(4,7,10,9)     =   -170.009685    -0.000084    -0.383114  -170.392799
	   49 D(4,7,10,14)    =    -50.010483    -0.000053    -0.177023   -50.187506
	   50 D(5,7,10,8)     =    -49.904181     0.000003     0.023634   -49.880547
	   51 D(5,7,10,9)     =     70.041440    -0.000115    -0.589345    69.452095
	   52 D(5,7,10,14)    =   -169.959359    -0.000084    -0.383253  -170.342613
	   53 D(6,7,10,8)     =   -169.874379     0.000120     0.633957  -169.240422
	   54 D(6,7,10,9)     =    -49.928759     0.000002     0.020979   -49.907780
	   55 D(6,7,10,14)    =     70.070442     0.000033     0.227070    70.297513
	   56 D(7,10,14,11)   =    179.946720     0.000040     0.226946   180.173666
	   57 D(7,10,14,12)   =     59.992297     0.000053     0.259673    60.251969
	   58 D(7,10,14,13)   =    -59.996900     0.000020     0.134883   -59.862017
	   59 D(8,10,14,11)   =     59.931102    -0.000047    -0.217367    59.713734
	   60 D(8,10,14,12)   =    -60.023321    -0.000034    -0.184641   -60.207962
	   61 D(8,10,14,13)   =    179.987482    -0.000067    -0.309430   179.678052
	   62 D(9,10,14,11)   =    -60.018353     0.000072     0.418666   -59.599687
	   63 D(9,10,14,12)   =   -179.972776     0.000085     0.451392  -179.521384
	   64 D(9,10,14,13)   =     60.038027     0.000052     0.326603    60.364630
	 ---------------------------------------------------------------------------
	 Forces used to impose fixed constraints are not included.
	  Forces zeroed: 49 

  ==> Convergence Check <==

  Measures of convergence in internal coordinates in au.
  Criteria marked as inactive (o), active & met (*), and active & unmet ( ).
  --------------------------------------------------------------------------------------------- ~
   Step     Total Energy     Delta E     MAX Force     RMS Force      MAX Disp      RMS Disp    ~
  --------------------------------------------------------------------------------------------- ~
    Convergence Criteria    1.00e-06 *    3.00e-04 *             o    1.20e-03 *             o  ~
  --------------------------------------------------------------------------------------------- ~
      1    -157.83368576   -1.58e+02      3.23e-02      9.79e-03 o    4.40e-02      1.27e-02 o  ~
  ---------------------------------------------------------------------------------------------

	Writing optimization data to binary file.
	Structure for next step:
	Cartesian Geometry (in Angstrom)
	    H    -1.7478461259   0.3941945171   0.2072666828
	    H    -1.5323211466   2.0195624089  -0.4244086370
	    H    -1.2846524928   0.6264906656  -1.4727913301
	    C    -1.1681304010   1.0025810502  -0.4673211163
	    H     0.8783703375   1.5884571866  -0.7556432083
	    H     0.4243977305   1.3504685549   0.9345900550
	    C     0.3210015494   0.9660424517  -0.0698364993
	    H     0.9713094999  -0.7796531118  -1.1505852844
	    H     1.8833949097  -0.4604458565   0.3267046052
	    C     0.8991751939  -0.4673126348  -0.1190188793
	    H     0.4553753121  -2.4590207296   0.5902536759
	    H    -0.9704278892  -1.5049860382   0.2142138256
	    H    -0.0593104388  -1.1755960848   1.6814361880
	    C     0.0170285530  -1.4728771975   0.6455744873
			--------------------------
			 OPTKING Finished Execution 
			--------------------------

    Structure for next step:
    Molecular point group: c1
    Full point group: C1

    Geometry (in Angstrom), charge = 0, multiplicity = 1:

    H           -1.745082725217     0.395269938614     0.206836326392
    H           -1.529557745940     2.020637830455    -0.424838993383
    H           -1.281889092106     0.627566087111    -1.473221686557
    C           -1.165367000376     1.003656471766    -0.467751472741
    H            0.881133738106     1.589532608140    -0.756073564696
    H            0.427161131173     1.351543976399     0.934159698609
    C            0.323764950078     0.967117873246    -0.070266855714
    H            0.974072900533    -0.778577690251    -1.151015640810
    H            1.886158310366    -0.459370434936     0.326274248805
    C            0.901938594519    -0.466237213281    -0.119449235718
    H            0.458138712790    -2.457945308119     0.589823319475
    H           -0.967664488573    -1.503910616685     0.213783469193
    H           -0.056547038167    -1.174520663287     1.681005831564
    C            0.019791953667    -1.471801776002     0.645144130915

gradient() will perform analytic gradient computation.
    SCF Algorithm Type (re)set to DF.

*** tstart() called on lski1497
*** at Thu Feb 16 16:34:49 2017


         ---------------------------------------------------------
                                   SCF
            by Justin Turney, Rob Parrish, and Andy Simmonett
                              RHF Reference
                        1 Threads,   1000 MiB Core
         ---------------------------------------------------------

  ==> Geometry <==

    Molecular point group: c1
    Full point group: C1

    Geometry (in Angstrom), charge = 0, multiplicity = 1:

       Center              X                  Y                   Z               Mass       
    ------------   -----------------  -----------------  -----------------  -----------------
           H         -1.745082725217     0.395269938614     0.206836326392     1.007825032070
           H         -1.529557745940     2.020637830455    -0.424838993383     1.007825032070
           H         -1.281889092106     0.627566087111    -1.473221686557     1.007825032070
           C         -1.165367000376     1.003656471766    -0.467751472741    12.000000000000
           H          0.881133738106     1.589532608140    -0.756073564696     1.007825032070
           H          0.427161131173     1.351543976399     0.934159698609     1.007825032070
           C          0.323764950078     0.967117873246    -0.070266855714    12.000000000000
           H          0.974072900533    -0.778577690251    -1.151015640810     1.007825032070
           H          1.886158310366    -0.459370434936     0.326274248805     1.007825032070
           C          0.901938594519    -0.466237213281    -0.119449235718    12.000000000000
           H          0.458138712790    -2.457945308119     0.589823319475     1.007825032070
           H         -0.967664488573    -1.503910616685     0.213783469193     1.007825032070
           H         -0.056547038167    -1.174520663287     1.681005831564     1.007825032070
           C          0.019791953667    -1.471801776002     0.645144130915    12.000000000000

  Running in c1 symmetry.

  Rotational constants: A =      0.41255  B =      0.17386  C =      0.14020 [cm^-1]
  Rotational constants: A =  12367.89806  B =   5212.12757  C =   4203.23432 [MHz]
  Nuclear repulsion =  133.648261785783347

  Charge       = 0
  Multiplicity = 1
  Electrons    = 34
  Nalpha       = 17
  Nbeta        = 17

  ==> Algorithm <==

  SCF Algorithm Type is DF.
  DIIS enabled.
  MOM disabled.
  Fractional occupation disabled.
  Guess Type is READ.
  Energy threshold   = 1.00e-10
  Density threshold  = 1.00e-10
  Integral threshold = 0.00e+00

  ==> Primary Basis <==

  Basis Set: 6-31G(D)
    Number of shells: 44
    Number of basis function: 80
    Number of Cartesian functions: 80
    Spherical Harmonics?: false
    Max angular momentum: 2

  ==> Pre-Iterations <==

   -------------------------------------------------------
    Irrep   Nso     Nmo     Nalpha   Nbeta   Ndocc  Nsocc
   -------------------------------------------------------
     A         80      80       0       0       0       0
   -------------------------------------------------------
    Total      80      80      17      17      17       0
   -------------------------------------------------------

  ==> Integral Setup <==

  ==> DFJK: Density-Fitted J/K Matrices <==

    J tasked:                  Yes
    K tasked:                  Yes
    wK tasked:                  No
    OpenMP threads:              1
    Integrals threads:           1
    Memory (MB):               715
    Algorithm:                Core
    Integral Cache:           NONE
    Schwarz Cutoff:          1E-12
    Fitting Condition:       1E-12

   => Auxiliary Basis Set <=

  Basis Set: 
    Number of shells: 186
    Number of basis function: 574
    Number of Cartesian functions: 574
    Spherical Harmonics?: false
    Max angular momentum: 3

  Minimum eigenvalue in the overlap matrix is 5.1723824404E-03.
  Using Symmetric Orthogonalization.
  SCF Guess was Projection but file not found.
  Switching over to SAD guess.

  SCF Guess: Superposition of Atomic Densities via on-the-fly atomic UHF.

  ==> Iterations <==

                           Total Energy        Delta E     RMS |[F,P]|

   @DF-RHF iter   0:  -158.73048665635156   -1.58730e+02   4.54067e-02 
   @DF-RHF iter   1:  -157.17966392858420    1.55082e+00   4.69838e-03 
   @DF-RHF iter   2:  -157.27965353293439   -9.99896e-02   1.59597e-03 DIIS
   @DF-RHF iter   3:  -157.29088093950895   -1.12274e-02   6.12845e-04 DIIS
   @DF-RHF iter   4:  -157.29282168080874   -1.94074e-03   8.60863e-05 DIIS
   @DF-RHF iter   5:  -157.29287844567921   -5.67649e-05   1.84682e-05 DIIS
   @DF-RHF iter   6:  -157.29288084649767   -2.40082e-06   4.96350e-06 DIIS
   @DF-RHF iter   7:  -157.29288097142762   -1.24930e-07   1.14189e-06 DIIS
   @DF-RHF iter   8:  -157.29288098052695   -9.09932e-09   2.59546e-07 DIIS
   @DF-RHF iter   9:  -157.29288098106724   -5.40297e-10   7.06038e-08 DIIS
   @DF-RHF iter  10:  -157.29288098110464   -3.74030e-11   2.03759e-08 DIIS
   @DF-RHF iter  11:  -157.29288098110715   -2.50111e-12   4.46060e-09 DIIS
   @DF-RHF iter  12:  -157.29288098110726   -1.13687e-13   9.98728e-10 DIIS
   @DF-RHF iter  13:  -157.29288098110715    1.13687e-13   2.32038e-10 DIIS
   @DF-RHF iter  14:  -157.29288098110675    3.97904e-13   7.39864e-11 DIIS

  ==> Post-Iterations <==

    Orbital Energies (a.u.)
    -----------------------

    Doubly Occupied:                                                      

       1A    -11.212341     2A    -11.211767     3A    -11.204266  
       4A    -11.204242     5A     -1.069172     6A     -0.972699  
       7A     -0.876778     8A     -0.775060     9A     -0.632938  
      10A     -0.621605    11A     -0.575313    12A     -0.533021  
      13A     -0.530247    14A     -0.506171    15A     -0.465982  
      16A     -0.455283    17A     -0.452929  

    Virtual:                                                              

      18A      0.230456    19A      0.281433    20A      0.289206  
      21A      0.300406    22A      0.317271    23A      0.319208  
      24A      0.340015    25A      0.346224    26A      0.368415  
      27A      0.374395    28A      0.394433    29A      0.409796  
      30A      0.452626    31A      0.712874    32A      0.728833  
      33A      0.734179    34A      0.748286    35A      0.770659  
      36A      0.843620    37A      0.861085    38A      0.921867  
      39A      0.951108    40A      0.997021    41A      1.106606  
      42A      1.112797    43A      1.165575    44A      1.167370  
      45A      1.180847    46A      1.193236    47A      1.202220  
      48A      1.216072    49A      1.238429    50A      1.256847  
      51A      1.259542    52A      1.292748    53A      1.307803  
      54A      1.564428    55A      1.709461    56A      1.718219  
      57A      1.775369    58A      1.878679    59A      1.959693  
      60A      2.036471    61A      2.165971    62A      2.266355  
      63A      2.306673    64A      2.314145    65A      2.343060  
      66A      2.440541    67A      2.473464    68A      2.641813  
      69A      2.656815    70A      2.671049    71A      2.671947  
      72A      2.738731    73A      2.781264    74A      2.940852  
      75A      2.949819    76A      3.078928    77A      4.564680  
      78A      4.688407    79A      4.805225    80A      4.941714  

    Final Occupation by Irrep:
              A 
    DOCC [    17 ]

  Energy converged.

  @DF-RHF Final Energy:  -157.29288098110675

   => Energetics <=

    Nuclear Repulsion Energy =            133.6482617857833475
    One-Electron Energy =                -475.2826564791579358
    Two-Electron Energy =                 184.3415137122676697
    DFT Exchange-Correlation Energy =       0.0000000000000000
    Empirical Dispersion Energy =           0.0000000000000000
    PCM Polarization Energy =               0.0000000000000000
    EFP Energy =                            0.0000000000000000
    Total Energy =                       -157.2928809811069186


  Saving occupied orbitals to File 180.

*** tstop() called on lski1497 at Thu Feb 16 16:34:55 2017
Module time:
	user time   =       4.93 seconds =       0.08 minutes
	system time =       0.14 seconds =       0.00 minutes
	total time  =          6 seconds =       0.10 minutes
Total time:
	user time   =      28.76 seconds =       0.48 minutes
	system time =       0.85 seconds =       0.01 minutes
	total time  =         34 seconds =       0.57 minutes


Properties will be evaluated at   0.000000,   0.000000,   0.000000 Bohr

Properties computed using the SCF density matrix

  Nuclear Dipole Moment: (a.u.)
     X:    -0.8944      Y:    -0.3654      Z:     0.1376

  Electronic Dipole Moment: (a.u.)
     X:     0.9212      Y:     0.3759      Z:    -0.1420

  Dipole Moment: (a.u.)
     X:     0.0268      Y:     0.0105      Z:    -0.0044     Total:     0.0292

  Dipole Moment: (Debye)
     X:     0.0682      Y:     0.0268      Z:    -0.0112     Total:     0.0741


  //>>>>>>>>>>>>>>>>>>>>>>>>>>>>>>>>>>>//
  //               DFMP2               //
  //<<<<<<<<<<<<<<<<<<<<<<<<<<<<<<<<<<<//


*** tstart() called on lski1497
*** at Thu Feb 16 16:34:55 2017


*** tstop() called on lski1497 at Thu Feb 16 16:34:56 2017
Module time:
	user time   =       0.51 seconds =       0.01 minutes
	system time =       0.00 seconds =       0.00 minutes
	total time  =          1 seconds =       0.02 minutes
Total time:
	user time   =      29.29 seconds =       0.49 minutes
	system time =       0.85 seconds =       0.01 minutes
	total time  =         35 seconds =       0.58 minutes
	 --------------------------------------------------------
	                          DF-MP2                         
	      2nd-Order Density-Fitted Moller-Plesset Theory     
	              RMP2 Wavefunction,   1 Threads             
	                                                         
	        Rob Parrish, Justin Turney, Andy Simmonett,      
	           Ed Hohenstein, and C. David Sherrill          
	 --------------------------------------------------------

   => Auxiliary Basis Set <=

  Basis Set: 
    Number of shells: 132
    Number of basis function: 364
    Number of Cartesian functions: 414
    Spherical Harmonics?: true
    Max angular momentum: 3

	 --------------------------------------------------------
	                 NBF =    80, NAUX =   364
	 --------------------------------------------------------
	   CLASS    FOCC     OCC    AOCC    AVIR     VIR    FVIR
	   PAIRS       0      17      17      63      63       0
	 --------------------------------------------------------

DGAS Warning! /src/lib/libfock/apps.cc:80 is not currently checking restricted

         ------------------------------------------------------------
                                     CPHF                           
                                  Rob Parrish                       
         ------------------------------------------------------------

  ==> Geometry <==

    Molecular point group: c1
    Full point group: C1

    Geometry (in Angstrom), charge = 0, multiplicity = 1:

       Center              X                  Y                   Z               Mass       
    ------------   -----------------  -----------------  -----------------  -----------------
           H         -1.745082725217     0.395269938614     0.206836326392     1.007825032070
           H         -1.529557745940     2.020637830455    -0.424838993383     1.007825032070
           H         -1.281889092106     0.627566087111    -1.473221686557     1.007825032070
           C         -1.165367000376     1.003656471766    -0.467751472741    12.000000000000
           H          0.881133738106     1.589532608140    -0.756073564696     1.007825032070
           H          0.427161131173     1.351543976399     0.934159698609     1.007825032070
           C          0.323764950078     0.967117873246    -0.070266855714    12.000000000000
           H          0.974072900533    -0.778577690251    -1.151015640810     1.007825032070
           H          1.886158310366    -0.459370434936     0.326274248805     1.007825032070
           C          0.901938594519    -0.466237213281    -0.119449235718    12.000000000000
           H          0.458138712790    -2.457945308119     0.589823319475     1.007825032070
           H         -0.967664488573    -1.503910616685     0.213783469193     1.007825032070
           H         -0.056547038167    -1.174520663287     1.681005831564     1.007825032070
           C          0.019791953667    -1.471801776002     0.645144130915    12.000000000000

  Nuclear repulsion =  133.648261785783347
  Reference energy  = -157.292880981106748

  ==> Basis Set <==

  Basis Set: 6-31G(D)
    Number of shells: 44
    Number of basis function: 80
    Number of Cartesian functions: 80
    Spherical Harmonics?: false
    Max angular momentum: 2

  ==> CGRSolver (by Rob Parrish) <==

   Number of roots    =         1
   Preconditioning    =    JACOBI
   Convergence cutoff =     1E-06
   Maximum iterations =       100

  ==> CPHFRHamiltonian (by Rob Parrish) <== 

  ==> DFJK: Density-Fitted J/K Matrices <==

    J tasked:                  Yes
    K tasked:                  Yes
    wK tasked:                  No
    OpenMP threads:              1
    Integrals threads:           1
    Memory (MB):               715
    Algorithm:                Core
    Integral Cache:           NONE
    Schwarz Cutoff:          1E-12
    Fitting Condition:       1E-12

   => Auxiliary Basis Set <=

  Basis Set: 
    Number of shells: 186
    Number of basis function: 574
    Number of Cartesian functions: 574
    Spherical Harmonics?: false
    Max angular momentum: 3

  ==> CPHF Iterations <==

  => Iterations <=

             Iter  Converged  Remaining    Residual
  CGR           1          0          1   7.482E-02
  CGR           2          0          1   8.584E-03
  CGR           3          0          1   2.292E-03
  CGR           4          0          1   4.334E-04
  CGR           5          0          1   7.640E-05
  CGR           6          0          1   1.409E-05
  CGR           7          0          1   1.864E-06
  CGR           8          1          0   4.388E-07

    CGRSolver converged.

  ==> DFCorrGrad: Density-Fitted Correlated Gradients <==

    OpenMP threads:              1
    Integrals threads:           1
    Memory (MB):               715
    Schwarz Cutoff:          0E+00
    Fitting Condition:       1E-12

   => Auxiliary Basis Set <=

  Basis Set: 
    Number of shells: 186
    Number of basis function: 510
    Number of Cartesian functions: 574
    Spherical Harmonics?: true
    Max angular momentum: 3

	-----------------------------------------------------------
	 ==================> DF-MP2 Energies <==================== 
	-----------------------------------------------------------
	 Reference Energy          =    -157.2928809811067481 [Eh]
	 Singles Energy            =      -0.0000000000000000 [Eh]
	 Same-Spin Energy          =      -0.1247519098410663 [Eh]
	 Opposite-Spin Energy      =      -0.4216584166178641 [Eh]
	 Correlation Energy        =      -0.5464103264589303 [Eh]
	 Total Energy              =    -157.8392913075656736 [Eh]
	-----------------------------------------------------------
	 ================> DF-SCS-MP2 Energies <================== 
	-----------------------------------------------------------
	 SCS Same-Spin Scale       =       0.3333333333333333 [-]
	 SCS Opposite-Spin Scale   =       1.2000000000000000 [-]
	 SCS Same-Spin Energy      =      -0.0415839699470221 [Eh]
	 SCS Opposite-Spin Energy  =      -0.5059900999414368 [Eh]
	 SCS Correlation Energy    =      -0.5475740698884589 [Eh]
	 SCS Total Energy          =    -157.8404550509952173 [Eh]
	-----------------------------------------------------------


  -Total Gradient:
     Atom            X                  Y                   Z
    ------   -----------------  -----------------  -----------------
       1        0.007860382221     0.002271287929    -0.004336193100
       2        0.005001417768    -0.007112602931     0.001013227640
       3        0.003691432678     0.003218029250     0.008959957662
       4       -0.020834689641    -0.003510897870    -0.005336888421
       5       -0.006633000672    -0.008198014606     0.002222024612
       6       -0.003034330939    -0.006058381862    -0.008483777979
       7        0.013250293176     0.021430018155     0.007217206368
       8       -0.003999798157     0.003202642783     0.009754161504
       9       -0.010988296976     0.001017371608     0.000284859211
      10        0.021945019767    -0.007280565969    -0.012424267196
      11       -0.001958014689     0.008741765436    -0.001578460303
      12        0.007763831218     0.004144400857     0.001811773930
      13        0.002265342461    -0.000592323344    -0.009535142675
      14       -0.014329588215    -0.011272729437     0.010431518745


			-----------------------------------------
			 OPTKING 2.0: for geometry optimizations 
			  - R.A. King,  Bethel University        
			-----------------------------------------

	Previous internal coordinate definitions found.
	---Fragment 1 Geometry and Gradient---
	 H          -3.2977284299        0.7469519325        0.3908640112
	 H          -2.8904452443        3.8184521133       -0.8028293481
	 H          -2.4224193168        1.1859280349       -2.7839855206
	 C          -2.2022244750        1.8966358631       -0.8839221817
	 H           1.6651014515        3.0037813087       -1.4287719736
	 H           0.8072175525        2.5540479719        1.7653059948
	 C           0.6118270871        1.8275879187       -0.1327851135
	 H           1.8407310155       -1.4712986077       -2.1751043358
	 H           3.5643226499       -0.8680843156        0.6165689745
	 C           1.7044169323       -0.8810606461       -0.2257263423
	 H           0.8657566980       -4.6448434820        1.1146045406
	 H          -1.8286208719       -2.8419791939        0.4039922085
	 H          -0.1068584158       -2.2195223910        3.1766406494
	 C           0.0374013721       -2.7813022785        1.2191457237
	             0.0078603822        0.0022712879       -0.0043361931
	             0.0050014178       -0.0071126029        0.0010132276
	             0.0036914327        0.0032180292        0.0089599577
	            -0.0208346896       -0.0035108979       -0.0053368884
	            -0.0066330007       -0.0081980146        0.0022220246
	            -0.0030343309       -0.0060583819       -0.0084837780
	             0.0132502932        0.0214300182        0.0072172064
	            -0.0039997982        0.0032026428        0.0097541615
	            -0.0109882970        0.0010173716        0.0002848592
	             0.0219450198       -0.0072805660       -0.0124242672
	            -0.0019580147        0.0087417654       -0.0015784603
	             0.0077638312        0.0041444009        0.0018117739
	             0.0022653425       -0.0005923233       -0.0095351427
	            -0.0143295882       -0.0112727294        0.0104315187

	---Fragment 1 Intrafragment Coordinates---
	 - Coordinate -           - BOHR/RAD -       - ANG/DEG -
	 R(1,4)           =         2.036414	       1.077624
	 R(2,4)           =         2.042939	       1.081077
	 R(3,4)           =         2.040547	       1.079811
	 R(4,7)           =         2.913393	       1.541701
	 R(5,7)           =         2.042645	       1.080921
	 R(6,7)           =         2.041732	       1.080438
	 R(7,10)          =         2.922185	       1.546354
	 R(8,10)          =         2.041332	       1.080226
	 R(9,10)          =         2.041783	       1.080465
	 R(10,14)         =         2.911617	       1.540761
	 R(11,14)         =         2.042030	       1.080596
	 R(12,14)         =         2.037203	       1.078041
	 R(13,14)         =         2.041616	       1.080376
	 B(1,4,2)         =         1.901826	     108.966576
	 B(1,4,3)         =         1.905209	     109.160421
	 B(1,4,7)         =         1.922863	     110.171922
	 B(2,4,3)         =         1.905249	     109.162714
	 B(2,4,7)         =         1.915005	     109.721696
	 B(3,4,7)         =         1.913514	     109.636254
	 B(4,7,5)         =         1.897406	     108.713353
	 B(4,7,6)         =         1.900419	     108.885994
	 B(4,7,10)        =         1.955100	     112.018983
	 B(5,7,6)         =         1.913042	     109.609206
	 B(5,7,10)        =         1.897334	     108.709241
	 B(6,7,10)        =         1.900320	     108.880299
	 B(7,10,8)        =         1.900069	     108.865930
	 B(7,10,9)        =         1.898191	     108.758347
	 B(7,10,14)       =         1.955298	     112.030323
	 B(8,10,9)        =         1.912354	     109.569822
	 B(8,10,14)       =         1.900133	     108.869602
	 B(9,10,14)       =         1.897551	     108.721690
	 B(10,14,11)      =         1.915522	     109.751307
	 B(10,14,12)      =         1.923360	     110.200423
	 B(10,14,13)      =         1.914173	     109.674055
	 B(11,14,12)      =         1.900646	     108.899014
	 B(11,14,13)      =         1.905894	     109.199692
	 B(12,14,13)      =         1.904051	     109.094083
	 D(1,4,7,5)       =        -3.134217	    -179.577384
	 D(1,4,7,6)       =        -1.050894	     -60.211802
	 D(1,4,7,10)      =         1.051908	      60.269907
	 D(2,4,7,5)       =        -1.040368	     -59.608724
	 D(2,4,7,6)       =         1.042954	      59.756857
	 D(2,4,7,10)      =        -3.137429	    -179.761433
	 D(3,4,7,5)       =         1.051882	      60.268400
	 D(3,4,7,6)       =         3.135204	     179.633981
	 D(3,4,7,10)      =        -1.045178	     -59.884309
	 D(4,7,10,8)      =         1.226522	      70.274559
	 D(4,7,10,9)      =        -2.973915	    -170.392799
	 D(4,7,10,14)     =        -0.875937	     -50.187506
	 D(5,7,10,8)      =        -0.870580	     -49.880547
	 D(5,7,10,9)      =         1.212168	      69.452095
	 D(5,7,10,14)     =        -2.973039	    -170.342613
	 D(6,7,10,8)      =        -2.953803	    -169.240422
	 D(6,7,10,9)      =        -0.871055	     -49.907780
	 D(6,7,10,14)     =         1.226923	      70.297513
	 D(7,10,14,11)    =        -3.138562	    -179.826334
	 D(7,10,14,12)    =         1.051595	      60.251969
	 D(7,10,14,13)    =        -1.044789	     -59.862017
	 D(8,10,14,11)    =         1.042201	      59.713734
	 D(8,10,14,12)    =        -1.050827	     -60.207962
	 D(8,10,14,13)    =         3.135974	     179.678052
	 D(9,10,14,11)    =        -1.040211	     -59.599687
	 D(9,10,14,12)    =        -3.133239	    -179.521384
	 D(9,10,14,13)    =         1.053562	      60.364630

	Current energy   :      -157.8392913076

	Energy change for the previous step:
		Projected    :        -0.0073486223
		Actual       :        -0.0056055476

	Performing BFGS update.
	Previous computed or guess Hessian on step 1.
	Steps to be used in Hessian update: 1
	Adding user-defined constraint: Fragment 1; Coordinate 49:
		Value =    -0.875937; Fixed value    =    -0.872660
		Force =     0.001721; Force constant =     0.525000
	Removing off-diagonal coupling between coordinate 49 and others.
	Taking RFO optimization step.
	Going to follow RFO solution 1.
	Using RFO vector 1.

	Determining step-restricting scale parameter for RS-RFO.
	Maximum step size allowed    0.10000

	 Iter      |step|        alpha        rfo_root  
	------------------------------------------------
	    0     0.19368       1.00000           1
	    1     0.15627       4.15083           1
	    2     0.12472      13.16269           1
	    3     0.10691      24.62310           1
	    4     0.10076      30.63644           1
	    5     0.10001      31.46688           1
	    6     0.10000      31.47895           1
	------------------------------------------------
	Norm of target step-size    0.10000
	Projected energy change by RFO approximation:        -0.0036243986

	Back-transformation to cartesian coordinates...
	Could not converge backtransformation.
	Using first guess instead.

	--- Internal Coordinate Step in ANG or DEG, aJ/ANG or AJ/DEG ---
	 ---------------------------------------------------------------------------
	   Coordinate                Previous        Force       Change         New 
	   ----------                --------       ------       ------       ------
	    1 R(1,4)          =      1.077624     0.067766     0.012103     1.089727
	    2 R(2,4)          =      1.081077     0.068674     0.010332     1.091409
	    3 R(3,4)          =      1.079811     0.081253     0.012289     1.092100
	    4 R(4,7)          =      1.541701    -0.032431    -0.007558     1.534143
	    5 R(5,7)          =      1.080921     0.078685     0.011801     1.092722
	    6 R(6,7)          =      1.080438     0.085130     0.012823     1.093261
	    7 R(7,10)         =      1.546354    -0.018056    -0.008428     1.537926
	    8 R(8,10)         =      1.080226     0.086571     0.013021     1.093247
	    9 R(9,10)         =      1.080465     0.081444     0.012189     1.092654
	   10 R(10,14)        =      1.540761    -0.028649    -0.006862     1.533900
	   11 R(11,14)        =      1.080596     0.071604     0.010746     1.091342
	   12 R(12,14)        =      1.078041     0.065579     0.011793     1.089835
	   13 R(13,14)        =      1.080376     0.077982     0.011828     1.092204
	   14 B(1,4,2)        =    108.966576    -0.000276    -0.666043   108.300533
	   15 B(1,4,3)        =    109.160421    -0.000217    -0.672182   108.488239
	   16 B(1,4,7)        =    110.171922     0.000342     0.799891   110.971813
	   17 B(2,4,3)        =    109.162714    -0.000209    -0.618692   108.544022
	   18 B(2,4,7)        =    109.721696     0.000158     0.462705   110.184401
	   19 B(3,4,7)        =    109.636254     0.000193     0.645912   110.282166
	   20 B(4,7,5)        =    108.713353    -0.000198    -0.019558   108.693794
	   21 B(4,7,6)        =    108.885994    -0.000185    -0.097534   108.788460
	   22 B(4,7,10)       =    112.018983     0.000843     1.126665   113.145648
	   23 B(5,7,6)        =    109.609206    -0.000043    -0.647159   108.962047
	   24 B(5,7,10)       =    108.709241    -0.000245    -0.272053   108.437188
	   25 B(6,7,10)       =    108.880299    -0.000182    -0.137910   108.742389
	   26 B(7,10,8)       =    108.865930    -0.000182    -0.138432   108.727498
	   27 B(7,10,9)       =    108.758347    -0.000251    -0.293974   108.464373
	   28 B(7,10,14)      =    112.030323     0.000846     1.129269   113.159593
	   29 B(8,10,9)       =    109.569822    -0.000040    -0.636384   108.933438
	   30 B(8,10,14)      =    108.869602    -0.000185    -0.092192   108.777410
	   31 B(9,10,14)      =    108.721690    -0.000197    -0.016212   108.705478
	   32 B(10,14,11)     =    109.751307     0.000157     0.455341   110.206649
	   33 B(10,14,12)     =    110.200423     0.000335     0.781249   110.981672
	   34 B(10,14,13)     =    109.674055     0.000190     0.634572   110.308627
	   35 B(11,14,12)     =    108.899014    -0.000269    -0.641276   108.257738
	   36 B(11,14,13)     =    109.199692    -0.000212    -0.630458   108.569233
	   37 B(12,14,13)     =    109.094083    -0.000211    -0.648594   108.445489
	   38 D(1,4,7,5)      =   -179.577384     0.000045     0.563620  -179.013763
	   39 D(1,4,7,6)      =    -60.211802    -0.000018    -0.282447   -60.494250
	   40 D(1,4,7,10)     =     60.269907     0.000024     0.202440    60.472347
	   41 D(2,4,7,5)      =    -59.608724     0.000039     0.541312   -59.067412
	   42 D(2,4,7,6)      =     59.756857    -0.000024    -0.304756    59.452102
	   43 D(2,4,7,10)     =   -179.761433     0.000018     0.180132  -179.581301
	   44 D(3,4,7,5)      =     60.268400     0.000030     0.472312    60.740712
	   45 D(3,4,7,6)      =    179.633981    -0.000033    -0.373755   179.260226
	   46 D(3,4,7,10)     =    -59.884309     0.000009     0.111132   -59.773177
	   47 D(4,7,10,8)     =     70.274559     0.000024     0.345789    70.620348
	   48 D(4,7,10,9)     =   -170.392799    -0.000045    -0.666442  -171.059241
	   49 D(4,7,10,14)    =    -50.187506    -0.000018    -0.169437   -50.356943
	   50 D(5,7,10,8)     =    -49.880547    -0.000003    -0.158802   -50.039350
	   51 D(5,7,10,9)     =     69.452095    -0.000072    -1.171034    68.281061
	   52 D(5,7,10,14)    =   -170.342613    -0.000045    -0.674029  -171.016641
	   53 D(6,7,10,8)     =   -169.240422     0.000066     0.853439  -168.386983
	   54 D(6,7,10,9)     =    -49.907780    -0.000003    -0.158793   -50.066573
	   55 D(6,7,10,14)    =     70.297513     0.000024     0.338213    70.635725
	   56 D(7,10,14,11)   =   -179.826334     0.000019     0.201905  -179.624429
	   57 D(7,10,14,12)   =     60.251969     0.000025     0.209842    60.461812
	   58 D(7,10,14,13)   =    -59.862017     0.000009     0.108027   -59.753989
	   59 D(8,10,14,11)   =     59.713734    -0.000023    -0.287212    59.426522
	   60 D(8,10,14,12)   =    -60.207962    -0.000018    -0.279275   -60.487237
	   61 D(8,10,14,13)   =    179.678052    -0.000034    -0.381090   179.296962
	   62 D(9,10,14,11)   =    -59.599687     0.000039     0.540659   -59.059028
	   63 D(9,10,14,12)   =   -179.521384     0.000044     0.548596  -178.972788
	   64 D(9,10,14,13)   =     60.364630     0.000028     0.446781    60.811411
	 ---------------------------------------------------------------------------
	 Forces used to impose fixed constraints are not included.
	  Forces zeroed: 49 

  ==> Convergence Check <==

  Measures of convergence in internal coordinates in au.
  Criteria marked as inactive (o), active & met (*), and active & unmet ( ).
  ---------------------------------------------------------------------------------------------
   Step     Total Energy     Delta E     MAX Force     RMS Force      MAX Disp      RMS Disp   
  ---------------------------------------------------------------------------------------------
    Convergence Criteria    1.00e-06 *    3.00e-04 *             o    1.20e-03 *             o
  ---------------------------------------------------------------------------------------------
      2    -157.83929131   -5.61e-03      1.11e-02      4.71e-03 o    2.46e-02      1.25e-02 o  ~
  ---------------------------------------------------------------------------------------------

	Writing optimization data to binary file.
	Structure for next step:
	Cartesian Geometry (in Angstrom)
	    H    -1.7756337750   0.4246680793   0.2045008900
	    H    -1.5211509199   2.0531415565  -0.4349508048
	    H    -1.3004866515   0.6437183216  -1.4870129671
	    C    -1.1646975110   1.0222351460  -0.4716466122
	    H     0.8900817844   1.5834425751  -0.7634829403
	    H     0.4254835458   1.3555464970   0.9388227531
	    C     0.3157663991   0.9595748733  -0.0742855396
	    H     0.9743552334  -0.7829767863  -1.1558700532
	    H     1.8901519029  -0.4475395772   0.3317677274
	    C     0.8922379866  -0.4656993183  -0.1129023649
	    H     0.4887823303  -2.4750147754   0.5943322636
	    H    -0.9677160917  -1.5458980925   0.2210083356
	    H    -0.0546655978  -1.1976838601   1.6971443000
	    C     0.0335435652  -1.4845535558   0.6469845877
			--------------------------
			 OPTKING Finished Execution 
			--------------------------

    Structure for next step:
    Molecular point group: c1
    Full point group: C1

    Geometry (in Angstrom), charge = 0, multiplicity = 1:

    H           -1.775013353584     0.424891073208     0.204411272249
    H           -1.520530498522     2.053364550366    -0.435040422542
    H           -1.299866230151     0.643941315480    -1.487102584863
    C           -1.164077089672     1.022458139922    -0.471736229935
    H            0.890702205791     1.583665568998    -0.763572558064
    H            0.426103967121     1.355769490938     0.938733135354
    C            0.316386820495     0.959797867163    -0.074375157349
    H            0.974975654767    -0.782753792342    -1.155959670960
    H            1.890772324283    -0.447316583300     0.331678109617
    C            0.892858407952    -0.465476324378    -0.112991982668
    H            0.489402751665    -2.474791781518     0.594242645868
    H           -0.967095670320    -1.545675098560     0.220918717900
    H           -0.054045176396    -1.197460866178     1.697054682255
    C            0.034163986549    -1.484330561857     0.646894969993

gradient() will perform analytic gradient computation.
    SCF Algorithm Type (re)set to DF.

*** tstart() called on lski1497
*** at Thu Feb 16 16:35:16 2017


         ---------------------------------------------------------
                                   SCF
            by Justin Turney, Rob Parrish, and Andy Simmonett
                              RHF Reference
                        1 Threads,   1000 MiB Core
         ---------------------------------------------------------

  ==> Geometry <==

    Molecular point group: c1
    Full point group: C1

    Geometry (in Angstrom), charge = 0, multiplicity = 1:

       Center              X                  Y                   Z               Mass       
    ------------   -----------------  -----------------  -----------------  -----------------
           H         -1.775013353584     0.424891073208     0.204411272249     1.007825032070
           H         -1.520530498522     2.053364550366    -0.435040422542     1.007825032070
           H         -1.299866230151     0.643941315480    -1.487102584863     1.007825032070
           C         -1.164077089672     1.022458139922    -0.471736229935    12.000000000000
           H          0.890702205791     1.583665568998    -0.763572558064     1.007825032070
           H          0.426103967121     1.355769490938     0.938733135354     1.007825032070
           C          0.316386820495     0.959797867163    -0.074375157349    12.000000000000
           H          0.974975654767    -0.782753792342    -1.155959670960     1.007825032070
           H          1.890772324283    -0.447316583300     0.331678109617     1.007825032070
           C          0.892858407952    -0.465476324378    -0.112991982668    12.000000000000
           H          0.489402751665    -2.474791781518     0.594242645868     1.007825032070
           H         -0.967095670320    -1.545675098560     0.220918717900     1.007825032070
           H         -0.054045176396    -1.197460866178     1.697054682255     1.007825032070
           C          0.034163986549    -1.484330561857     0.646894969993    12.000000000000

  Running in c1 symmetry.

  Rotational constants: A =      0.41689  B =      0.17087  C =      0.13872 [cm^-1]
  Rotational constants: A =  12498.06775  B =   5122.43374  C =   4158.84426 [MHz]
  Nuclear repulsion =  133.137180209328136

  Charge       = 0
  Multiplicity = 1
  Electrons    = 34
  Nalpha       = 17
  Nbeta        = 17

  ==> Algorithm <==

  SCF Algorithm Type is DF.
  DIIS enabled.
  MOM disabled.
  Fractional occupation disabled.
  Guess Type is READ.
  Energy threshold   = 1.00e-10
  Density threshold  = 1.00e-10
  Integral threshold = 0.00e+00

  ==> Primary Basis <==

  Basis Set: 6-31G(D)
    Number of shells: 44
    Number of basis function: 80
    Number of Cartesian functions: 80
    Spherical Harmonics?: false
    Max angular momentum: 2

  ==> Pre-Iterations <==

   -------------------------------------------------------
    Irrep   Nso     Nmo     Nalpha   Nbeta   Ndocc  Nsocc
   -------------------------------------------------------
     A         80      80       0       0       0       0
   -------------------------------------------------------
    Total      80      80      17      17      17       0
   -------------------------------------------------------

  ==> Integral Setup <==

  ==> DFJK: Density-Fitted J/K Matrices <==

    J tasked:                  Yes
    K tasked:                  Yes
    wK tasked:                  No
    OpenMP threads:              1
    Integrals threads:           1
    Memory (MB):               715
    Algorithm:                Core
    Integral Cache:           NONE
    Schwarz Cutoff:          1E-12
    Fitting Condition:       1E-12

   => Auxiliary Basis Set <=

  Basis Set: 
    Number of shells: 186
    Number of basis function: 574
    Number of Cartesian functions: 574
    Spherical Harmonics?: false
    Max angular momentum: 3

  Minimum eigenvalue in the overlap matrix is 5.1626835512E-03.
  Using Symmetric Orthogonalization.
  SCF Guess was Projection but file not found.
  Switching over to SAD guess.

  SCF Guess: Superposition of Atomic Densities via on-the-fly atomic UHF.

  ==> Iterations <==

                           Total Energy        Delta E     RMS |[F,P]|

   @DF-RHF iter   0:  -158.66087985705840   -1.58661e+02   4.48967e-02 
   @DF-RHF iter   1:  -157.18035525915920    1.48052e+00   4.69787e-03 
   @DF-RHF iter   2:  -157.28078408858752   -1.00429e-01   1.62098e-03 DIIS
   @DF-RHF iter   3:  -157.29223222163276   -1.14481e-02   6.21023e-04 DIIS
   @DF-RHF iter   4:  -157.29423749510462   -2.00527e-03   8.59133e-05 DIIS
   @DF-RHF iter   5:  -157.29429384548504   -5.63504e-05   1.81765e-05 DIIS
   @DF-RHF iter   6:  -157.29429620667352   -2.36119e-06   4.87731e-06 DIIS
   @DF-RHF iter   7:  -157.29429632518421   -1.18511e-07   1.12194e-06 DIIS
   @DF-RHF iter   8:  -157.29429633367411   -8.48991e-09   2.51776e-07 DIIS
   @DF-RHF iter   9:  -157.29429633416314   -4.89024e-10   6.96588e-08 DIIS
   @DF-RHF iter  10:  -157.29429633419855   -3.54134e-11   2.03602e-08 DIIS
   @DF-RHF iter  11:  -157.29429633420105   -2.50111e-12   4.16600e-09 DIIS
   @DF-RHF iter  12:  -157.29429633420094    1.13687e-13   9.32747e-10 DIIS
   @DF-RHF iter  13:  -157.29429633420128   -3.41061e-13   2.27865e-10 DIIS
   @DF-RHF iter  14:  -157.29429633420122    5.68434e-14   6.99537e-11 DIIS

  ==> Post-Iterations <==

    Orbital Energies (a.u.)
    -----------------------

    Doubly Occupied:                                                      

       1A    -11.215559     2A    -11.214983     3A    -11.208653  
       4A    -11.208645     5A     -1.069186     6A     -0.972128  
       7A     -0.874217     8A     -0.770688     9A     -0.630167  
      10A     -0.618713    11A     -0.572529    12A     -0.533597  
      13A     -0.527897    14A     -0.503595    15A     -0.461890  
      16A     -0.456697    17A     -0.453895  

    Virtual:                                                              

      18A      0.227708    19A      0.278066    20A      0.285767  
      21A      0.297314    22A      0.316253    23A      0.317212  
      24A      0.334769    25A      0.341698    26A      0.366413  
      27A      0.370328    28A      0.396421    29A      0.409154  
      30A      0.458793    31A      0.710064    32A      0.730124  
      33A      0.730292    34A      0.749541    35A      0.773534  
      36A      0.850919    37A      0.865405    38A      0.925003  
      39A      0.953727    40A      1.000607    41A      1.103536  
      42A      1.109139    43A      1.153178    44A      1.155907  
      45A      1.171271    46A      1.180877    47A      1.189504  
      48A      1.204203    49A      1.235035    50A      1.245509  
      51A      1.248192    52A      1.283372    53A      1.294301  
      54A      1.556270    55A      1.707819    56A      1.719154  
      57A      1.772264    58A      1.877366    59A      1.962436  
      60A      2.032807    61A      2.166946    62A      2.264875  
      63A      2.301733    64A      2.306966    65A      2.339920  
      66A      2.433293    67A      2.460892    68A      2.625100  
      69A      2.641511    70A      2.662153    71A      2.666902  
      72A      2.731176    73A      2.772666    74A      2.941055  
      75A      2.964455    76A      3.078521    77A      4.558269  
      78A      4.681703    79A      4.801574    80A      4.938922  

    Final Occupation by Irrep:
              A 
    DOCC [    17 ]

  Energy converged.

  @DF-RHF Final Energy:  -157.29429633420122

   => Energetics <=

    Nuclear Repulsion Energy =            133.1371802093281360
    One-Electron Energy =                -474.2768742229176837
    Two-Electron Energy =                 183.8453976793884124
    DFT Exchange-Correlation Energy =       0.0000000000000000
    Empirical Dispersion Energy =           0.0000000000000000
    PCM Polarization Energy =               0.0000000000000000
    EFP Energy =                            0.0000000000000000
    Total Energy =                       -157.2942963342011069


  Saving occupied orbitals to File 180.

*** tstop() called on lski1497 at Thu Feb 16 16:35:22 2017
Module time:
	user time   =       4.90 seconds =       0.08 minutes
	system time =       0.14 seconds =       0.00 minutes
	total time  =          6 seconds =       0.10 minutes
Total time:
	user time   =      52.04 seconds =       0.87 minutes
	system time =       1.50 seconds =       0.03 minutes
	total time  =         61 seconds =       1.02 minutes


Properties will be evaluated at   0.000000,   0.000000,   0.000000 Bohr

Properties computed using the SCF density matrix

  Nuclear Dipole Moment: (a.u.)
     X:    -0.8855      Y:    -0.3622      Z:     0.1363

  Electronic Dipole Moment: (a.u.)
     X:     0.9104      Y:     0.3723      Z:    -0.1402

  Dipole Moment: (a.u.)
     X:     0.0248      Y:     0.0101      Z:    -0.0040     Total:     0.0271

  Dipole Moment: (Debye)
     X:     0.0631      Y:     0.0257      Z:    -0.0101     Total:     0.0689


  //>>>>>>>>>>>>>>>>>>>>>>>>>>>>>>>>>>>//
  //               DFMP2               //
  //<<<<<<<<<<<<<<<<<<<<<<<<<<<<<<<<<<<//


*** tstart() called on lski1497
*** at Thu Feb 16 16:35:22 2017


*** tstop() called on lski1497 at Thu Feb 16 16:35:23 2017
Module time:
	user time   =       0.51 seconds =       0.01 minutes
	system time =       0.00 seconds =       0.00 minutes
	total time  =          1 seconds =       0.02 minutes
Total time:
	user time   =      52.57 seconds =       0.88 minutes
	system time =       1.50 seconds =       0.03 minutes
	total time  =         62 seconds =       1.03 minutes
	 --------------------------------------------------------
	                          DF-MP2                         
	      2nd-Order Density-Fitted Moller-Plesset Theory     
	              RMP2 Wavefunction,   1 Threads             
	                                                         
	        Rob Parrish, Justin Turney, Andy Simmonett,      
	           Ed Hohenstein, and C. David Sherrill          
	 --------------------------------------------------------

   => Auxiliary Basis Set <=

  Basis Set: 
    Number of shells: 132
    Number of basis function: 364
    Number of Cartesian functions: 414
    Spherical Harmonics?: true
    Max angular momentum: 3

	 --------------------------------------------------------
	                 NBF =    80, NAUX =   364
	 --------------------------------------------------------
	   CLASS    FOCC     OCC    AOCC    AVIR     VIR    FVIR
	   PAIRS       0      17      17      63      63       0
	 --------------------------------------------------------

DGAS Warning! /src/lib/libfock/apps.cc:80 is not currently checking restricted

         ------------------------------------------------------------
                                     CPHF                           
                                  Rob Parrish                       
         ------------------------------------------------------------

  ==> Geometry <==

    Molecular point group: c1
    Full point group: C1

    Geometry (in Angstrom), charge = 0, multiplicity = 1:

       Center              X                  Y                   Z               Mass       
    ------------   -----------------  -----------------  -----------------  -----------------
           H         -1.775013353584     0.424891073208     0.204411272249     1.007825032070
           H         -1.520530498522     2.053364550366    -0.435040422542     1.007825032070
           H         -1.299866230151     0.643941315480    -1.487102584863     1.007825032070
           C         -1.164077089672     1.022458139922    -0.471736229935    12.000000000000
           H          0.890702205791     1.583665568998    -0.763572558064     1.007825032070
           H          0.426103967121     1.355769490938     0.938733135354     1.007825032070
           C          0.316386820495     0.959797867163    -0.074375157349    12.000000000000
           H          0.974975654767    -0.782753792342    -1.155959670960     1.007825032070
           H          1.890772324283    -0.447316583300     0.331678109617     1.007825032070
           C          0.892858407952    -0.465476324378    -0.112991982668    12.000000000000
           H          0.489402751665    -2.474791781518     0.594242645868     1.007825032070
           H         -0.967095670320    -1.545675098560     0.220918717900     1.007825032070
           H         -0.054045176396    -1.197460866178     1.697054682255     1.007825032070
           C          0.034163986549    -1.484330561857     0.646894969993    12.000000000000

  Nuclear repulsion =  133.137180209328136
  Reference energy  = -157.294296334201221

  ==> Basis Set <==

  Basis Set: 6-31G(D)
    Number of shells: 44
    Number of basis function: 80
    Number of Cartesian functions: 80
    Spherical Harmonics?: false
    Max angular momentum: 2

[...]
  CGR           1          0          1   7.661E-02
  CGR           2          0          1   8.979E-03
  CGR           3          0          1   2.392E-03
  CGR           4          0          1   4.365E-04
  CGR           5          0          1   7.949E-05
  CGR           6          0          1   1.493E-05
  CGR           7          0          1   1.930E-06
  CGR           8          1          0   4.316E-07

    CGRSolver converged.

  ==> DFCorrGrad: Density-Fitted Correlated Gradients <==

    OpenMP threads:              1
    Integrals threads:           1
    Memory (MB):               715
    Schwarz Cutoff:          0E+00
    Fitting Condition:       1E-12

   => Auxiliary Basis Set <=

  Basis Set: 
    Number of shells: 186
    Number of basis function: 510
    Number of Cartesian functions: 574
    Spherical Harmonics?: true
    Max angular momentum: 3

	-----------------------------------------------------------
	 ==================> DF-MP2 Energies <==================== 
	-----------------------------------------------------------
	 Reference Energy          =    -157.2954783481248171 [Eh]
	 Singles Energy            =      -0.0000000000000000 [Eh]
	 Same-Spin Energy          =      -0.1247074720360750 [Eh]
	 Opposite-Spin Energy      =      -0.4225830270832281 [Eh]
	 Correlation Energy        =      -0.5472904991193032 [Eh]
	 Total Energy              =    -157.8427688472441162 [Eh]
	-----------------------------------------------------------
	 ================> DF-SCS-MP2 Energies <================== 
	-----------------------------------------------------------
	 SCS Same-Spin Scale       =       0.3333333333333333 [-]
	 SCS Opposite-Spin Scale   =       1.2000000000000000 [-]
	 SCS Same-Spin Energy      =      -0.0415691573453583 [Eh]
	 SCS Opposite-Spin Energy  =      -0.5070996324998738 [Eh]
	 SCS Correlation Energy    =      -0.5486687898452320 [Eh]
	 SCS Total Energy          =    -157.8441471379700545 [Eh]
	-----------------------------------------------------------


  -Total Gradient:
     Atom            X                  Y                   Z
    ------   -----------------  -----------------  -----------------
       1        0.000010060463     0.000001581644    -0.000000512675
       2        0.000004990169    -0.000008424018     0.000001814500
       3       -0.000005510232     0.000002950664     0.000003368973
       4       -0.000597432204    -0.000298375204     0.002163590227
       5       -0.000006174456    -0.000011250581     0.000007764097
       6        0.000000256152    -0.000001331033    -0.000000907048
       7        0.000366452189     0.000238988566    -0.003836169923
       8       -0.000000505272     0.000001288991     0.000001115436
       9       -0.000014212605     0.000003004857    -0.000004777142
      10        0.001414532373     0.000488785175     0.003559322233
      11       -0.000003047012     0.000009635948    -0.000002200641
      12        0.000007810809     0.000005788168    -0.000002456653
      13       -0.000002667400    -0.000006130290    -0.000001722950
      14       -0.001174552973    -0.000426512888    -0.001888228435


			-----------------------------------------
			 OPTKING 2.0: for geometry optimizations 
			  - R.A. King,  Bethel University        
			-----------------------------------------

	Previous internal coordinate definitions found.
	---Fragment 1 Geometry and Gradient---
	 H          -3.4060047014        0.9954754421        0.4764169601
	 H          -2.8159445201        3.9367550262       -0.9746976873
	 H          -2.5239387863        1.1190122830       -2.7437925387
	 C          -2.1971193165        1.9671090345       -0.8849361257
	 H           1.7103002794        3.0112728889       -1.3885283324
	 H           0.8090450909        2.5689653457        1.7699876267
	 C           0.5834071490        1.7999435915       -0.1428868663
	 H           1.8503033103       -1.4817453078       -2.1835297076
	 H           3.5902267954       -0.8442604865        0.5642677909
	 C           1.6687056645       -0.8792138918       -0.2073283353
	 H           1.0449522475       -4.6607876889        1.2500953505
	 H          -1.7531482145       -3.1046882596        0.3258575309
	 H          -0.2289306113       -2.2444657673        3.1718790628
	 C           0.0897250638       -2.8286738178        1.2126469257
	             0.0000100605        0.0000015816       -0.0000005127
	             0.0000049902       -0.0000084240        0.0000018145
	            -0.0000055102        0.0000029507        0.0000033690
	            -0.0005974322       -0.0002983752        0.0021635902
	            -0.0000061745       -0.0000112506        0.0000077641
	             0.0000002562       -0.0000013310       -0.0000009070
	             0.0003664522        0.0002389886       -0.0038361699
	            -0.0000005053        0.0000012890        0.0000011154
	            -0.0000142126        0.0000030049       -0.0000047771
	             0.0014145324        0.0004887852        0.0035593222
	            -0.0000030470        0.0000096359       -0.0000022006
	             0.0000078108        0.0000057882       -0.0000024567
	            -0.0000026674       -0.0000061303       -0.0000017229
	            -0.0011745530       -0.0004265129       -0.0018882284

	---Fragment 1 Intrafragment Coordinates---
	 - Coordinate -           - BOHR/RAD -       - ANG/DEG -
	 R(1,4)           =         2.063676	       1.092050
	 R(2,4)           =         2.066521	       1.093556
	 R(3,4)           =         2.069161	       1.094953
	 R(4,7)           =         2.882691	       1.525455
	 R(5,7)           =         2.070949	       1.095899
	 R(6,7)           =         2.073981	       1.097503
	 R(7,10)          =         2.891351	       1.530037
	 R(8,10)          =         2.073980	       1.097503
	 R(9,10)          =         2.070948	       1.095899
	 R(10,14)         =         2.882690	       1.525454
	 R(11,14)         =         2.066519	       1.093555
	 R(12,14)         =         2.063677	       1.092051
	 R(13,14)         =         2.069162	       1.094953
	 B(1,4,2)         =         1.877578	     107.577272
	 B(1,4,3)         =         1.882963	     107.885856
	 B(1,4,7)         =         1.947565	     111.587282
	 B(2,4,3)         =         1.880043	     107.718542
	 B(2,4,7)         =         1.934023	     110.811338
	 B(3,4,7)         =         1.938886	     111.090005
	 B(4,7,5)         =         1.913578	     109.639961
	 B(4,7,6)         =         1.897430	     108.714711
	 B(4,7,10)        =         1.993309	     114.208207
	 B(5,7,6)         =         1.853212	     106.181253
	 B(5,7,10)        =         1.901103	     108.925184
	 B(6,7,10)        =         1.900013	     108.862730
	 B(7,10,8)        =         1.900013	     108.862727
	 B(7,10,9)        =         1.901103	     108.925192
	 B(7,10,14)       =         1.993309	     114.208174
	 B(8,10,9)        =         1.853212	     106.181248
	 B(8,10,14)       =         1.897430	     108.714721
	 B(9,10,14)       =         1.913579	     109.639987
	 B(10,14,11)      =         1.934023	     110.811348
	 B(10,14,12)      =         1.947565	     111.587261
	 B(10,14,13)      =         1.938887	     111.090014
	 B(11,14,12)      =         1.877577	     107.577260
	 B(11,14,13)      =         1.880044	     107.718565
	 B(12,14,13)      =         1.882963	     107.885849
	 D(1,4,7,5)       =        -3.002228	    -172.015008
	 D(1,4,7,6)       =        -0.983276	     -56.337550
	 D(1,4,7,10)      =         1.142079	      65.436335
	 D(2,4,7,5)       =        -0.910335	     -52.158372
	 D(2,4,7,6)       =         1.108617	      63.519086
	 D(2,4,7,10)      =        -3.049213	    -174.707029
	 D(3,4,7,5)       =         1.178926	      67.547463
	 D(3,4,7,6)       =        -3.085307	    -176.775079
	 D(3,4,7,10)      =        -0.959952	     -55.001193
	 D(4,7,10,8)      =         1.244625	      71.311763
	 D(4,7,10,9)      =        -3.024974	    -173.318233
	 D(4,7,10,14)     =        -0.879309	     -50.380680
	 D(5,7,10,8)      =        -0.901040	     -51.625773
	 D(5,7,10,9)      =         1.112547	      63.744231
	 D(5,7,10,14)     =        -3.024974	    -173.318216
	 D(6,7,10,8)      =        -2.914626	    -166.995781
	 D(6,7,10,9)      =        -0.901040	     -51.625777
	 D(6,7,10,14)     =         1.244625	      71.311776
	 D(7,10,14,11)    =        -3.049214	    -174.707075
	 D(7,10,14,12)    =         1.142079	      65.436313
	 D(7,10,14,13)    =        -0.959952	     -55.001198
	 D(8,10,14,11)    =         1.108617	      63.519059
	 D(8,10,14,12)    =        -0.983276	     -56.337553
	 D(8,10,14,13)    =        -3.085307	    -176.775064
	 D(9,10,14,11)    =        -0.910336	     -52.158411
	 D(9,10,14,12)    =        -3.002229	    -172.015023
	 D(9,10,14,13)    =         1.178926	      67.547466

	Current energy   :      -157.8427688472

	Energy change for the previous step:
		Projected    :        -0.0000033868
		Actual       :         0.0000015778

	Performing BFGS update.
	Previous computed or guess Hessian on step 1.
	Steps to be used in Hessian update: 9 8
	Adding user-defined constraint: Fragment 1; Coordinate 49:
		Value =    -0.879309; Fixed value    =    -0.872660
		Force =     0.004820; Force constant =     0.725000
	Removing off-diagonal coupling between coordinate 49 and others.
	Taking RFO optimization step.
	Going to follow RFO solution 1.
	Using RFO vector 1.
	Norm of target step-size    0.00089
	Projected energy change by RFO approximation:        -0.0000002734

	Back-transformation to cartesian coordinates...
	Could not converge backtransformation.
	Using first guess instead.

	--- Internal Coordinate Step in ANG or DEG, aJ/ANG or AJ/DEG ---
	 ---------------------------------------------------------------------------
	   Coordinate                Previous        Force       Change         New 
	   ----------                --------       ------       ------       ------
	    1 R(1,4)          =      1.092050     0.000057     0.000012     1.092062
	    2 R(2,4)          =      1.093556     0.000079     0.000014     1.093570
	    3 R(3,4)          =      1.094953     0.000028     0.000006     1.094959
	    4 R(4,7)          =      1.525455     0.000071     0.000008     1.525462
	    5 R(5,7)          =      1.095899     0.000120     0.000020     1.095919
	    6 R(6,7)          =      1.097503     0.000011     0.000005     1.097508
	    7 R(7,10)         =      1.530037     0.000181     0.000036     1.530073
	    8 R(8,10)         =      1.097503     0.000012     0.000005     1.097508
	    9 R(9,10)         =      1.095899     0.000123     0.000021     1.095919
	   10 R(10,14)        =      1.525454     0.000073     0.000008     1.525462
	   11 R(11,14)        =      1.093555     0.000082     0.000015     1.093570
	   12 R(12,14)        =      1.092051     0.000055     0.000011     1.092062
	   13 R(13,14)        =      1.094953     0.000024     0.000005     1.094959
	   14 B(1,4,2)        =    107.577272    -0.000000     0.000000   107.577272
	   15 B(1,4,3)        =    107.885856    -0.000000    -0.001041   107.884815
	   16 B(1,4,7)        =    111.587282     0.000001     0.004042   111.591325
	   17 B(2,4,3)        =    107.718542     0.000000    -0.000789   107.717753
	   18 B(2,4,7)        =    110.811338     0.000000     0.001699   110.813038
	   19 B(3,4,7)        =    111.090005    -0.000001    -0.004014   111.085991
	   20 B(4,7,5)        =    109.639961     0.000009     0.003170   109.643132
	   21 B(4,7,6)        =    108.714711    -0.000009    -0.004915   108.709796
	   22 B(4,7,10)       =    114.208207     0.000001     0.001306   114.209514
	   23 B(5,7,6)        =    106.181253     0.000000    -0.001257   106.179996
	   24 B(5,7,10)       =    108.925184    -0.000000     0.002036   108.927220
	   25 B(6,7,10)       =    108.862730     0.000000    -0.000576   108.862154
	   26 B(7,10,8)       =    108.862727     0.000000    -0.000565   108.862161
	   27 B(7,10,9)       =    108.925192    -0.000000     0.002021   108.927214
	   28 B(7,10,14)      =    114.208174     0.000001     0.001333   114.209508
	   29 B(8,10,9)       =    106.181248     0.000000    -0.001239   106.180008
	   30 B(8,10,14)      =    108.714721    -0.000009    -0.004935   108.709785
	   31 B(9,10,14)      =    109.639987     0.000009     0.003150   109.643136
	   32 B(10,14,11)     =    110.811348     0.000000     0.001683   110.813031
	   33 B(10,14,12)     =    111.587261     0.000001     0.004051   111.591312
	   34 B(10,14,13)     =    111.090014    -0.000001    -0.004038   111.085976
	   35 B(11,14,12)     =    107.577260    -0.000000     0.000029   107.577289
	   36 B(11,14,13)     =    107.718565     0.000000    -0.000810   107.717755
	   37 B(12,14,13)     =    107.885849    -0.000000    -0.001015   107.884834
	   38 D(1,4,7,5)      =   -172.015008     0.000001     0.004735  -172.010273
	   39 D(1,4,7,6)      =    -56.337550     0.000000     0.002222   -56.335328
	   40 D(1,4,7,10)     =     65.436335    -0.000001    -0.001266    65.435069
	   41 D(2,4,7,5)      =    -52.158372     0.000001     0.008572   -52.149801
	   42 D(2,4,7,6)      =     63.519086     0.000001     0.006059    63.525144
	   43 D(2,4,7,10)     =   -174.707029    -0.000001     0.002571  -174.704459
	   44 D(3,4,7,5)      =     67.547463     0.000001     0.006063    67.553527
	   45 D(3,4,7,6)      =   -176.775079     0.000000     0.003550  -176.771529
	   46 D(3,4,7,10)     =    -55.001193    -0.000001     0.000062   -55.001131
	   47 D(4,7,10,8)     =     71.311763     0.000003     0.016799    71.328562
	   48 D(4,7,10,9)     =   -173.318233     0.000003     0.016114  -173.302119
	   49 D(4,7,10,14)    =    -50.380680     0.000005     0.022676   -50.358004
	   50 D(5,7,10,8)     =    -51.625773    -0.000000     0.010217   -51.615556
	   51 D(5,7,10,9)     =     63.744231    -0.000000     0.009533    63.753763
	   52 D(5,7,10,14)    =   -173.318216     0.000003     0.016095  -173.302122
	   53 D(6,7,10,8)     =   -166.995781    -0.000000     0.010921  -166.984860
	   54 D(6,7,10,9)     =    -51.625777    -0.000000     0.010236   -51.615541
	   55 D(6,7,10,14)    =     71.311776     0.000003     0.016798    71.328574
	   56 D(7,10,14,11)   =   -174.707075    -0.000001     0.002581  -174.704493
	   57 D(7,10,14,12)   =     65.436313    -0.000001    -0.001286    65.435027
	   58 D(7,10,14,13)   =    -55.001198    -0.000001     0.000020   -55.001178
	   59 D(8,10,14,11)   =     63.519059     0.000001     0.006053    63.525112
	   60 D(8,10,14,12)   =    -56.337553     0.000000     0.002185   -56.335368
	   61 D(8,10,14,13)   =   -176.775064     0.000000     0.003491  -176.771573
	   62 D(9,10,14,11)   =    -52.158411     0.000001     0.008567   -52.149844
	   63 D(9,10,14,12)   =   -172.015023     0.000001     0.004699  -172.010324
	   64 D(9,10,14,13)   =     67.547466     0.000001     0.006005    67.553471
	 ---------------------------------------------------------------------------
	 Forces used to impose fixed constraints are not included.
	  Forces zeroed: 49 

  ==> Convergence Check <==

  Measures of convergence in internal coordinates in au.
  Criteria marked as inactive (o), active & met (*), and active & unmet ( ).
  ---------------------------------------------------------------------------------------------
   Step     Total Energy     Delta E     MAX Force     RMS Force      MAX Disp      RMS Disp   
  ---------------------------------------------------------------------------------------------
    Convergence Criteria    1.00e-06 *    3.00e-04 *             o    1.20e-03 *             o
  ---------------------------------------------------------------------------------------------
     10    -157.84276885    1.58e-06      1.49e-04 *    5.25e-05 o    3.96e-04 *    1.11e-04 o  ~
  ---------------------------------------------------------------------------------------------


  **** Optimization is complete! (in 10 steps) ****

  ==> Optimization Summary <==

  Measures of convergence in internal coordinates in au.
  --------------------------------------------------------------------------------------------------------------- ~
   Step         Total Energy             Delta E       MAX Force       RMS Force        MAX Disp        RMS Disp  ~
  --------------------------------------------------------------------------------------------------------------- ~
      1    -157.833685759983   -157.833685759983      0.03225462      0.00979467      0.04403444      0.01266673  ~
      2    -157.839291307566     -0.005605547583      0.01111269      0.00471360      0.02460599      0.01253847  ~
      3    -157.841654217754     -0.002362910188      0.00562539      0.00173768      0.03498409      0.01251689  ~
      4    -157.842414061454     -0.000759843700      0.00154624      0.00061984      0.02991723      0.01249392  ~
      5    -157.842644192672     -0.000230131218      0.00040826      0.00020407      0.02614552      0.01250083  ~
      6    -157.842723067682     -0.000078875010      0.00030427      0.00011477      0.02484733      0.01249951  ~
      7    -157.842769953333     -0.000046885651      0.00057128      0.00013052      0.01803649      0.00903354  ~
      8    -157.842779795402     -0.000009842069      0.00062183      0.00013418      0.00332062      0.00174022  ~
      9    -157.842770425068      0.000009370333      0.00030510      0.00006650      0.00346084      0.00173593  ~
     10    -157.842768847244      0.000001577824      0.00030052      0.00006459      0.00039577      0.00011122  ~
  --------------------------------------------------------------------------------------------------------------- ~

	Writing optimization data to binary file.
	Final energy is   -157.8427688472441
	Final (previous) structure:
	Cartesian Geometry (in Angstrom)
	    H    -1.8023800603   0.5267829157   0.2521089970
	    H    -1.4901336607   2.0832410357  -0.5157878014
	    H    -1.3356108816   0.5921557963  -1.4519524766
	    C    -1.1626654668   1.0409492679  -0.4682880288
	    H     0.9050519277   1.5934969816  -0.7347775470
	    H     0.4281282228   1.3594379106   0.9366371116
	    C     0.3087257666   0.9524891253  -0.0756124731
	    H     0.9791383408  -0.7841058458  -1.1554741555
	    H     1.8998661938  -0.4467634076   0.2985976545
	    C     0.8830410055  -0.4652599530  -0.1097134298
	    H     0.5529649134  -2.4663826190   0.6615219680
	    H    -0.9277260784  -1.6429302667   0.1724363786
	    H    -0.1211448619  -1.1877201295   1.6784861084
	    C     0.0474804588  -1.4968697149   0.6417051151
	Saving final (previous) structure.
			--------------------------
			 OPTKING Finished Execution 
			--------------------------

    Final optimized geometry and variables:
    Molecular point group: c1
    Full point group: C1

    Geometry (in Angstrom), charge = 0, multiplicity = 1:

    H           -1.802380060333     0.526782915671     0.252108997046
    H           -1.490133660706     2.083241035682    -0.515787801409
    H           -1.335610881601     0.592155796311    -1.451952476600
    C           -1.162665466821     1.040949267888    -0.468288028798
    H            0.905051927709     1.593496981643    -0.734777547008
    H            0.428128222810     1.359437910621     0.936637111562
    C            0.308725766561     0.952489125346    -0.075612473072
    H            0.979138340800    -0.784105845809    -1.155474155526
    H            1.899866193790    -0.446763407566     0.298597654511
    C            0.883041005486    -0.465259952996    -0.109713429754
    H            0.552964913420    -2.466382619044     0.661521968024
    H           -0.927726078371    -1.642930266740     0.172436378593
    H           -0.121144861872    -1.187720129533     1.678486108429
    C            0.047480458782    -1.496869714912     0.641705115146

	Cleaning optimization helper files.

*** Psi4 exiting successfully. Buy a developer a beer!
