    -----------------------------------------------------------------------
          Psi4: An Open-Source Ab Initio Electronic Structure Package
                              Psi4 1.0.0 Driver

                          Git: Rev {master} 6a9a71b 

    J. M. Turney, A. C. Simmonett, R. M. Parrish, E. G. Hohenstein,
    F. A. Evangelista, J. T. Fermann, B. J. Mintz, L. A. Burns, J. J. Wilke,
    M. L. Abrams, N. J. Russ, M. L. Leininger, C. L. Janssen, E. T. Seidl,
    W. D. Allen, H. F. Schaefer, R. A. King, E. F. Valeev, C. D. Sherrill,
    and T. D. Crawford, WIREs Comput. Mol. Sci. 2, 556-565 (2012)
    (doi: 10.1002/wcms.93)

                         Additional Contributions by
    A. E. DePrince, U. Bozkaya, A. Yu. Sokolov, D. G. A. Smith, R. Di Remigio,
    R. M. Richard, J. F. Gonthier, H. R. McAlexander, M. Saitow, and
    B. P. Pritchard
    -----------------------------------------------------------------------


    Psi4 started on: Thu Feb 16 16:33:52 2017

    Process ID:   1988
    PSI4DATADIR: /Users/sternc1/anaconda/share/psi4
    Memory level set to 256.000 MB

  ==> Input File <==

--------------------------------------------------------------------------

memory 1000 mb

molecule butane {
  symmetry C1
  0 1 
  H      1.604   0.760   -8.260
  H      1.745   2.388   -8.880
  H      2.043   1.024   -9.930
  C      2.142   1.395   -8.932
  H      4.169   2.051   -9.210
  H      3.731   1.788   -7.539
  C      3.631   1.416   -8.537
  H      5.243   0.033   -8.859
  H      4.082   -0.495   -7.665
  C      4.203   -0.012   -8.612
  H      3.851   -1.802   -9.746
  H      3.574   -0.327   -10.641
  H      2.413   -0.856   -9.448
  C      3.453   -0.810   -9.694
  units Angstrom
}

dih_string = "4 7 10 14 30"
set optking fixed_dihedral = $dih_string

optimize('MP2/6-31G(d)')
--------------------------------------------------------------------------

  Memory set to 1000.000 MiB by Python script.
gradient() will perform analytic gradient computation.
    SCF Algorithm Type (re)set to DF.

*** tstart() called on lski1497
*** at Thu Feb 16 16:33:54 2017


         ---------------------------------------------------------
                                   SCF
            by Justin Turney, Rob Parrish, and Andy Simmonett
                              RHF Reference
                        1 Threads,   1000 MiB Core
         ---------------------------------------------------------

  ==> Geometry <==

    Molecular point group: c1
    Full point group: C1

    Geometry (in Angstrom), charge = 0, multiplicity = 1:

       Center              X                  Y                   Z               Mass       
    ------------   -----------------  -----------------  -----------------  -----------------
           H         -1.733858154221     0.269838652350     0.696599809216     1.007825032070
           H         -1.592858154221     1.897838652350     0.076599809216     1.007825032070
           H         -1.294858154221     0.533838652350    -0.973400190784     1.007825032070
           C         -1.195858154221     0.904838652350     0.024599809216    12.000000000000
           H          0.831141845779     1.560838652350    -0.253400190784     1.007825032070
           H          0.393141845779     1.297838652350     1.417599809216     1.007825032070
           C          0.293141845779     0.925838652350     0.419599809216    12.000000000000
           H          1.905141845779    -0.457161347650     0.097599809216     1.007825032070
           H          0.744141845779    -0.985161347650     1.291599809216     1.007825032070
           C          0.865141845779    -0.502161347650     0.344599809216    12.000000000000
           H          0.513141845779    -2.292161347650    -0.789400190784     1.007825032070
           H          0.236141845779    -0.817161347650    -1.684400190784     1.007825032070
           H         -0.924858154221    -1.346161347650    -0.491400190784     1.007825032070
           C          0.115141845779    -1.300161347650    -0.737400190784    12.000000000000

  Running in c1 symmetry.

  Rotational constants: A =      0.38644  B =      0.20047  C =      0.14896 [cm^-1]
  Rotational constants: A =  11585.20562  B =   6009.97752  C =   4465.66260 [MHz]
  Nuclear repulsion =  136.011543648999321

  Charge       = 0
  Multiplicity = 1
  Electrons    = 34
  Nalpha       = 17
  Nbeta        = 17

  ==> Algorithm <==

  SCF Algorithm Type is DF.
  DIIS enabled.
  MOM disabled.
  Fractional occupation disabled.
  Guess Type is SAD.
  Energy threshold   = 1.00e-10
  Density threshold  = 1.00e-10
  Integral threshold = 0.00e+00

  ==> Primary Basis <==

  Basis Set: 6-31G(D)
    Number of shells: 44
    Number of basis function: 80
    Number of Cartesian functions: 80
    Spherical Harmonics?: false
    Max angular momentum: 2

  ==> Pre-Iterations <==

   -------------------------------------------------------
    Irrep   Nso     Nmo     Nalpha   Nbeta   Ndocc  Nsocc
   -------------------------------------------------------
     A         80      80       0       0       0       0
   -------------------------------------------------------
    Total      80      80      17      17      17       0
   -------------------------------------------------------

  ==> Integral Setup <==

  ==> DFJK: Density-Fitted J/K Matrices <==

    J tasked:                  Yes
    K tasked:                  Yes
    wK tasked:                  No
    OpenMP threads:              1
    Integrals threads:           1
    Memory (MB):               715
    Algorithm:                Core
    Integral Cache:           NONE
    Schwarz Cutoff:          1E-12
    Fitting Condition:       1E-12

   => Auxiliary Basis Set <=

  Basis Set: 
    Number of shells: 186
    Number of basis function: 574
    Number of Cartesian functions: 574
    Spherical Harmonics?: false
    Max angular momentum: 3

  Minimum eigenvalue in the overlap matrix is 4.3025150150E-03.
  Using Symmetric Orthogonalization.
  SCF Guess: Superposition of Atomic Densities via on-the-fly atomic UHF.

  ==> Iterations <==

                           Total Energy        Delta E     RMS |[F,P]|

   @DF-RHF iter   0:  -158.96494497720241   -1.58965e+02   4.71507e-02 
   @DF-RHF iter   1:  -157.18460273363488    1.78034e+00   4.15782e-03 
   @DF-RHF iter   2:  -157.27128831275863   -8.66856e-02   1.20920e-03 DIIS
   @DF-RHF iter   3:  -157.28006324163360   -8.77493e-03   4.23857e-04 DIIS
   @DF-RHF iter   4:  -157.28090870033853   -8.45459e-04   8.66802e-05 DIIS
   @DF-RHF iter   5:  -157.28095991589547   -5.12156e-05   1.57647e-05 DIIS
   @DF-RHF iter   6:  -157.28096180124575   -1.88535e-06   3.32281e-06 DIIS
   @DF-RHF iter   7:  -157.28096185814488   -5.68991e-08   9.17050e-07 DIIS
   @DF-RHF iter   8:  -157.28096186309747   -4.95260e-09   1.93643e-07 DIIS
   @DF-RHF iter   9:  -157.28096186338590   -2.88424e-10   5.33370e-08 DIIS
   @DF-RHF iter  10:  -157.28096186340920   -2.33058e-11   1.37940e-08 DIIS
   @DF-RHF iter  11:  -157.28096186341017   -9.66338e-13   3.54619e-09 DIIS
   @DF-RHF iter  12:  -157.28096186341028   -1.13687e-13   7.95360e-10 DIIS
   @DF-RHF iter  13:  -157.28096186341057   -2.84217e-13   1.46467e-10 DIIS
   @DF-RHF iter  14:  -157.28096186341051    5.68434e-14   2.89899e-11 DIIS

  ==> Post-Iterations <==

    Orbital Energies (a.u.)
    -----------------------

    Doubly Occupied:                                                      

       1A    -11.207414     2A    -11.206833     3A    -11.198666  
       4A    -11.198566     5A     -1.076747     6A     -0.968480  
       7A     -0.886478     8A     -0.773590     9A     -0.643911  
      10A     -0.628324    11A     -0.570630    12A     -0.539631  
      13A     -0.527978    14A     -0.509706    15A     -0.462777  
      16A     -0.454481    17A     -0.452573  

    Virtual:                                                              

      18A      0.232461    19A      0.280075    20A      0.288824  
      21A      0.305813    22A      0.312294    23A      0.318045  
      24A      0.357698    25A      0.360216    26A      0.362115  
      27A      0.377515    28A      0.402302    29A      0.425139  
      30A      0.460541    31A      0.714030    32A      0.734086  
      33A      0.758329    34A      0.771363    35A      0.781640  
      36A      0.827476    37A      0.847257    38A      0.930519  
      39A      0.946689    40A      0.999338    41A      1.123037  
      42A      1.147998    43A      1.171341    44A      1.184894  
      45A      1.190487    46A      1.210045    47A      1.213394  
      48A      1.213453    49A      1.232455    50A      1.270236  
      51A      1.272407    52A      1.303771    53A      1.330224  
      54A      1.606811    55A      1.683354    56A      1.722858  
      57A      1.750917    58A      1.946869    59A      1.980153  
      60A      2.083500    61A      2.165170    62A      2.296248  
      63A      2.308473    64A      2.321169    65A      2.360560  
      66A      2.445833    67A      2.514741    68A      2.612032  
      69A      2.662157    70A      2.690758    71A      2.733064  
      72A      2.751169    73A      2.809793    74A      2.929275  
      75A      2.957880    76A      3.097869    77A      4.591912  
      78A      4.694160    79A      4.790843    80A      4.976255  

    Final Occupation by Irrep:
              A 
    DOCC [    17 ]

  Energy converged.

  @DF-RHF Final Energy:  -157.28096186341051

   => Energetics <=

    Nuclear Repulsion Energy =            136.0115436489993215
    One-Electron Energy =                -479.9714370211711980
    Two-Electron Energy =                 186.6789315087614796
    DFT Exchange-Correlation Energy =       0.0000000000000000
    Empirical Dispersion Energy =           0.0000000000000000
    PCM Polarization Energy =               0.0000000000000000
    EFP Energy =                            0.0000000000000000
    Total Energy =                       -157.2809618634104254


  Saving occupied orbitals to File 180.

*** tstop() called on lski1497 at Thu Feb 16 16:34:00 2017
Module time:
	user time   =       4.90 seconds =       0.08 minutes
	system time =       0.16 seconds =       0.00 minutes
	total time  =          6 seconds =       0.10 minutes
Total time:
	user time   =       4.90 seconds =       0.08 minutes
	system time =       0.16 seconds =       0.00 minutes
	total time  =          6 seconds =       0.10 minutes


Properties will be evaluated at   0.000000,   0.000000,   0.000000 Bohr

Properties computed using the SCF density matrix

  Nuclear Dipole Moment: (a.u.)
     X:    -0.8658      Y:    -0.3165      Z:    -0.5737

  Electronic Dipole Moment: (a.u.)
     X:     0.8911      Y:     0.3253      Z:     0.5903

  Dipole Moment: (a.u.)
     X:     0.0253      Y:     0.0088      Z:     0.0166     Total:     0.0315

  Dipole Moment: (Debye)
     X:     0.0642      Y:     0.0225      Z:     0.0422     Total:     0.0800


  //>>>>>>>>>>>>>>>>>>>>>>>>>>>>>>>>>>>//
  //               DFMP2               //
  //<<<<<<<<<<<<<<<<<<<<<<<<<<<<<<<<<<<//


*** tstart() called on lski1497
*** at Thu Feb 16 16:34:00 2017


*** tstop() called on lski1497 at Thu Feb 16 16:34:00 2017
Module time:
	user time   =       0.53 seconds =       0.01 minutes
	system time =       0.00 seconds =       0.00 minutes
	total time  =          0 seconds =       0.00 minutes
Total time:
	user time   =       5.45 seconds =       0.09 minutes
	system time =       0.16 seconds =       0.00 minutes
	total time  =          6 seconds =       0.10 minutes
	 --------------------------------------------------------
	                          DF-MP2                         
	      2nd-Order Density-Fitted Moller-Plesset Theory     
	              RMP2 Wavefunction,   1 Threads             
	                                                         
	        Rob Parrish, Justin Turney, Andy Simmonett,      
	           Ed Hohenstein, and C. David Sherrill          
	 --------------------------------------------------------

   => Auxiliary Basis Set <=

  Basis Set: 
    Number of shells: 132
    Number of basis function: 364
    Number of Cartesian functions: 414
    Spherical Harmonics?: true
    Max angular momentum: 3

	 --------------------------------------------------------
	                 NBF =    80, NAUX =   364
	 --------------------------------------------------------
	   CLASS    FOCC     OCC    AOCC    AVIR     VIR    FVIR
	   PAIRS       0      17      17      63      63       0
	 --------------------------------------------------------

DGAS Warning! /src/lib/libfock/apps.cc:80 is not currently checking restricted

         ------------------------------------------------------------
                                     CPHF                           
                                  Rob Parrish                       
         ------------------------------------------------------------

  ==> Geometry <==

    Molecular point group: c1
    Full point group: C1

    Geometry (in Angstrom), charge = 0, multiplicity = 1:

       Center              X                  Y                   Z               Mass       
    ------------   -----------------  -----------------  -----------------  -----------------
           H         -1.733858154221     0.269838652350     0.696599809216     1.007825032070
           H         -1.592858154221     1.897838652350     0.076599809216     1.007825032070
           H         -1.294858154221     0.533838652350    -0.973400190784     1.007825032070
           C         -1.195858154221     0.904838652350     0.024599809216    12.000000000000
           H          0.831141845779     1.560838652350    -0.253400190784     1.007825032070
           H          0.393141845779     1.297838652350     1.417599809216     1.007825032070
           C          0.293141845779     0.925838652350     0.419599809216    12.000000000000
           H          1.905141845779    -0.457161347650     0.097599809216     1.007825032070
           H          0.744141845779    -0.985161347650     1.291599809216     1.007825032070
           C          0.865141845779    -0.502161347650     0.344599809216    12.000000000000
           H          0.513141845779    -2.292161347650    -0.789400190784     1.007825032070
           H          0.236141845779    -0.817161347650    -1.684400190784     1.007825032070
           H         -0.924858154221    -1.346161347650    -0.491400190784     1.007825032070
           C          0.115141845779    -1.300161347650    -0.737400190784    12.000000000000

  Nuclear repulsion =  136.011543648999321
  Reference energy  = -157.280961863410511

  ==> Basis Set <==

  Basis Set: 6-31G(D)
    Number of shells: 44
    Number of basis function: 80
    Number of Cartesian functions: 80
    Spherical Harmonics?: false
    Max angular momentum: 2

  ==> CGRSolver (by Rob Parrish) <==

   Number of roots    =         1
   Preconditioning    =    JACOBI
   Convergence cutoff =     1E-06
   Maximum iterations =       100

  ==> CPHFRHamiltonian (by Rob Parrish) <== 

  ==> DFJK: Density-Fitted J/K Matrices <==

    J tasked:                  Yes
    K tasked:                  Yes
    wK tasked:                  No
    OpenMP threads:              1
    Integrals threads:           1
    Memory (MB):               715
    Algorithm:                Core
    Integral Cache:           NONE
    Schwarz Cutoff:          1E-12
    Fitting Condition:       1E-12

   => Auxiliary Basis Set <=

  Basis Set: 
    Number of shells: 186
    Number of basis function: 574
    Number of Cartesian functions: 574
    Spherical Harmonics?: false
    Max angular momentum: 3

  ==> CPHF Iterations <==

  => Iterations <=

             Iter  Converged  Remaining    Residual
  CGR           1          0          1   7.598E-02
  CGR           2          0          1   8.721E-03
  CGR           3          0          1   2.225E-03
  CGR           4          0          1   4.323E-04
  CGR           5          0          1   7.788E-05
  CGR           6          0          1   1.414E-05
  CGR           7          0          1   1.907E-06
  CGR           8          1          0   4.875E-07

    CGRSolver converged.

  ==> DFCorrGrad: Density-Fitted Correlated Gradients <==

    OpenMP threads:              1
    Integrals threads:           1
    Memory (MB):               715
    Schwarz Cutoff:          0E+00
    Fitting Condition:       1E-12

   => Auxiliary Basis Set <=

  Basis Set: 
    Number of shells: 186
    Number of basis function: 510
    Number of Cartesian functions: 574
    Spherical Harmonics?: true
    Max angular momentum: 3

	-----------------------------------------------------------
	 ==================> DF-MP2 Energies <==================== 
	-----------------------------------------------------------
	 Reference Energy          =    -157.2809618634105107 [Eh]
	 Singles Energy            =      -0.0000000000000000 [Eh]
	 Same-Spin Energy          =      -0.1254413619120318 [Eh]
	 Opposite-Spin Energy      =      -0.4215290782399596 [Eh]
	 Correlation Energy        =      -0.5469704401519914 [Eh]
	 Total Energy              =    -157.8279323035625055 [Eh]
	-----------------------------------------------------------
	 ================> DF-SCS-MP2 Energies <================== 
	-----------------------------------------------------------
	 SCS Same-Spin Scale       =       0.3333333333333333 [-]
	 SCS Opposite-Spin Scale   =       1.2000000000000000 [-]
	 SCS Same-Spin Energy      =      -0.0418137873040106 [Eh]
	 SCS Opposite-Spin Energy  =      -0.5058348938879514 [Eh]
	 SCS Correlation Energy    =      -0.5476486811919621 [Eh]
	 SCS Total Energy          =    -157.8286105446024692 [Eh]
	-----------------------------------------------------------


  -Total Gradient:
     Atom            X                  Y                   Z
    ------   -----------------  -----------------  -----------------
       1        0.011851085047     0.008229960352    -0.009289533582
       2        0.009279064762    -0.014191498410    -0.000827832478
       3        0.006918981804    -0.001073351555     0.011722261752
       4       -0.024501005062    -0.014067220494    -0.009536894167
       5       -0.008171833872    -0.012289344925     0.009239719985
       6       -0.003954502526    -0.010413053613    -0.014285968336
       7        0.018748672075     0.024873912591     0.007988497619
       8       -0.017907996721     0.002318806249    -0.000261985784
       9       -0.000167066158     0.009312809800    -0.015060643377
      10        0.023119958676    -0.009740213230     0.019871846138
      11       -0.004904630555     0.016248929676     0.003836655326
      12       -0.000726535694    -0.004075939794     0.016509877500
      13        0.010984682805     0.007741391954     0.000277653463
      14       -0.020568874581    -0.002875188601    -0.020183654059


			-----------------------------------------
			 OPTKING 2.0: for geometry optimizations 
			  - R.A. King,  Bethel University        
			-----------------------------------------

	Previous internal coordinate definitions found.
	---Fragment 1 Geometry and Gradient---
	 H          -3.2765170647        0.5099211530        1.3163828636
	 H          -3.0100656800        3.5863952973        0.1447526613
	 H          -2.4469272924        1.0088088521       -1.8394597783
	 C          -2.2598444053        1.7098972474        0.0464869023
	 H           1.5706304661        2.9495575906       -0.4788569626
	 H           0.7429304199        2.4525596176        2.6788754055
	 C           0.5539578066        1.7495814962        0.7929287248
	 H           3.6001963328       -0.8639097456        0.1844369100
	 H           1.4062242925       -1.8616851438        2.4407699127
	 C           1.6348811546       -0.9489474216        0.6511992649
	 H           0.9696975558       -4.3315571994       -1.4917501698
	 H           0.4462434170       -1.5442111534       -3.1830550588
	 H          -1.7477286232       -2.5438762777       -0.9286117822
	 C           0.2175865550       -2.4569488756       -1.3934844109
	             0.0118510850        0.0082299604       -0.0092895336
	             0.0092790648       -0.0141914984       -0.0008278325
	             0.0069189818       -0.0010733516        0.0117222618
	            -0.0245010051       -0.0140672205       -0.0095368942
	            -0.0081718339       -0.0122893449        0.0092397200
	            -0.0039545025       -0.0104130536       -0.0142859683
	             0.0187486721        0.0248739126        0.0079884976
	            -0.0179079967        0.0023188062       -0.0002619858
	            -0.0001670662        0.0093128098       -0.0150606434
	             0.0231199587       -0.0097402132        0.0198718461
	            -0.0049046306        0.0162489297        0.0038366553
	            -0.0007265357       -0.0040759398        0.0165098775
	             0.0109846828        0.0077413920        0.0002776535
	            -0.0205688746       -0.0028751886       -0.0201836541

	Previous optimization step data not found.  Starting new optimization.

	---Fragment 1 Intrafragment Coordinates---
	 - Coordinate -           - BOHR/RAD -       - ANG/DEG -
	 R(1,4)           =         2.021436	       1.069698
	 R(2,4)           =         2.023298	       1.070683
	 R(3,4)           =         2.020723	       1.069320
	 R(4,7)           =         2.911397	       1.540645
	 R(5,7)           =         2.022623	       1.070326
	 R(6,7)           =         2.021555	       1.069761
	 R(7,10)          =         2.910419	       1.540128
	 R(8,10)          =         2.021772	       1.069876
	 R(9,10)          =         2.021865	       1.069925
	 R(10,14)         =         2.909214	       1.539490
	 R(11,14)         =         2.022247	       1.070127
	 R(12,14)         =         2.021865	       1.069925
	 R(13,14)         =         2.021417	       1.069688
	 B(1,4,2)         =         1.910870	     109.484805
	 B(1,4,3)         =         1.911121	     109.499161
	 B(1,4,7)         =         1.910399	     109.457783
	 B(2,4,3)         =         1.910042	     109.437340
	 B(2,4,7)         =         1.910564	     109.467262
	 B(3,4,7)         =         1.910803	     109.480971
	 B(4,7,5)         =         1.909937	     109.431343
	 B(4,7,6)         =         1.911630	     109.528316
	 B(4,7,10)        =         1.911154	     109.501062
	 B(5,7,6)         =         1.910605	     109.469614
	 B(5,7,10)        =         1.910047	     109.437654
	 B(6,7,10)        =         1.910425	     109.459295
	 B(7,10,8)        =         1.910567	     109.467409
	 B(7,10,9)        =         1.910771	     109.479093
	 B(7,10,14)       =         1.911240	     109.506012
	 B(8,10,9)        =         1.910561	     109.467071
	 B(8,10,14)       =         1.910398	     109.457761
	 B(9,10,14)       =         1.910262	     109.449971
	 B(10,14,11)      =         1.910781	     109.479712
	 B(10,14,12)      =         1.910262	     109.449971
	 B(10,14,13)      =         1.911671	     109.530705
	 B(11,14,12)      =         1.910709	     109.475582
	 B(11,14,13)      =         1.910182	     109.445352
	 B(12,14,13)      =         1.910193	     109.445992
	 D(1,4,7,5)       =         3.140997	     179.965873
	 D(1,4,7,6)       =        -1.047644	     -60.025575
	 D(1,4,7,10)      =         1.047427	      60.013132
	 D(2,4,7,5)       =        -1.047689	     -60.028143
	 D(2,4,7,6)       =         1.046856	      59.980409
	 D(2,4,7,10)      =        -3.141259	    -179.980883
	 D(3,4,7,5)       =         1.046044	      59.933911
	 D(3,4,7,6)       =         3.140588	     179.942463
	 D(3,4,7,10)      =        -1.047526	     -60.018830
	 D(4,7,10,8)      =         2.617862	     149.992457
	 D(4,7,10,9)      =        -1.570973	     -90.010140
	 D(4,7,10,14)     =         0.523424	      29.989969
	 D(5,7,10,8)      =         0.524359	      30.043581
	 D(5,7,10,9)      =         2.618709	     150.040984
	 D(5,7,10,14)     =        -1.570079	     -89.958907
	 D(6,7,10,8)      =        -1.569516	     -89.926618
	 D(6,7,10,9)      =         0.524834	      30.070786
	 D(6,7,10,14)     =         2.619231	     150.070894
	 D(7,10,14,11)    =         3.141237	     179.979599
	 D(7,10,14,12)    =         1.046885	      59.982071
	 D(7,10,14,13)    =        -1.047380	     -60.010432
	 D(8,10,14,11)    =         1.046695	      59.971207
	 D(8,10,14,12)    =        -1.047657	     -60.026321
	 D(8,10,14,13)    =         3.141264	     179.981177
	 D(9,10,14,11)    =        -1.047241	     -60.002472
	 D(9,10,14,12)    =         3.141593	     180.000000
	 D(9,10,14,13)    =         1.047328	      60.007497

	Current energy   :      -157.8279323036

	Generating empirical Hessian (Schlegel '84) for each fragment.
	Adding user-defined constraint: Fragment 1; Coordinate 49:
		Value =     0.523424; Fixed value    =     0.523600
		Force =     0.000088; Force constant =     0.500000
	Removing off-diagonal coupling between coordinate 49 and others.
	Taking RFO optimization step.
	Going to follow RFO solution 1.
	Using RFO vector 1.

	Determining step-restricting scale parameter for RS-RFO.
	Maximum step size allowed    0.10000

	 Iter      |step|        alpha        rfo_root  
	------------------------------------------------
	    0     0.43482       1.00000           1
	    1     0.29511       4.31299           1
	    2     0.20015      13.71652           1
	    3     0.14343      32.42030           1
	    4     0.11372      56.58613           1
	    5     0.10216      72.59960           1
	    6     0.10007      76.13251           1
	    7     0.10000      76.25327           1
	------------------------------------------------
	Norm of target step-size    0.10000
	Projected energy change by RFO approximation:        -0.0099771010

	Back-transformation to cartesian coordinates...
	Could not converge backtransformation.
	Using first guess instead.

	--- Internal Coordinate Step in ANG or DEG, aJ/ANG or AJ/DEG ---
	 ---------------------------------------------------------------------------
	   Coordinate                Previous        Force       Change         New 
	   ----------                --------       ------       ------       ------
	    1 R(1,4)          =      1.069698     0.137437     0.008027     1.077725
	    2 R(2,4)          =      1.070683     0.137114     0.008917     1.079600
	    3 R(3,4)          =      1.069320     0.092344     0.006305     1.075625
	    4 R(4,7)          =      1.540645     0.009128     0.002224     1.542869
	    5 R(5,7)          =      1.070326     0.141774     0.008027     1.078353
	    6 R(6,7)          =      1.069761     0.142681     0.008325     1.078086
	    7 R(7,10)         =      1.540128     0.177730     0.010990     1.551118
	    8 R(8,10)         =      1.069876     0.142117     0.008297     1.078172
	    9 R(9,10)         =      1.069925     0.144305     0.008167     1.078091
	   10 R(10,14)        =      1.539490     0.014248     0.002540     1.542030
	   11 R(11,14)        =      1.070127     0.140661     0.009114     1.079241
	   12 R(12,14)        =      1.069925     0.136230     0.007963     1.077888
	   13 R(13,14)        =      1.069688     0.090204     0.006187     1.075875
	   14 B(1,4,2)        =    109.484805    -0.000313    -0.237441   109.247364
	   15 B(1,4,3)        =    109.499161    -0.000273    -0.287324   109.211838
	   16 B(1,4,7)        =    109.457783     0.000299     0.228240   109.686023
	   17 B(2,4,3)        =    109.437340    -0.000440    -0.344654   109.092686
	   18 B(2,4,7)        =    109.467262     0.000116     0.107031   109.574294
	   19 B(3,4,7)        =    109.480971     0.000612     0.529487   110.010458
	   20 B(4,7,5)        =    109.431343    -0.000976    -0.772693   108.658650
	   21 B(4,7,6)        =    109.528316    -0.001155    -0.848248   108.680069
	   22 B(4,7,10)       =    109.501062     0.003665     2.827185   112.328247
	   23 B(5,7,6)        =    109.469614     0.000422     0.229503   109.699116
	   24 B(5,7,10)       =    109.437654    -0.000922    -0.669249   108.768405
	   25 B(6,7,10)       =    109.459295    -0.001033    -0.776131   108.683164
	   26 B(7,10,8)       =    109.467409    -0.001035    -0.777945   108.689463
	   27 B(7,10,9)       =    109.479093    -0.000926    -0.673116   108.805977
	   28 B(7,10,14)      =    109.506012     0.003666     2.827798   112.333810
	   29 B(8,10,9)       =    109.467071     0.000421     0.229013   109.696084
	   30 B(8,10,14)      =    109.457761    -0.001148    -0.841549   108.616212
	   31 B(9,10,14)      =    109.449971    -0.000979    -0.774171   108.675799
	   32 B(10,14,11)     =    109.479712     0.000118     0.108216   109.587928
	   33 B(10,14,12)     =    109.449971     0.000300     0.229974   109.679944
	   34 B(10,14,13)     =    109.530705     0.000607     0.525989   110.056694
	   35 B(11,14,12)     =    109.475582    -0.000314    -0.238281   109.237301
	   36 B(11,14,13)     =    109.445352    -0.000441    -0.346392   109.098960
	   37 B(12,14,13)     =    109.445992    -0.000270    -0.284672   109.161320
	   38 D(1,4,7,5)      =    179.965873     0.000110     0.367298   180.333171
	   39 D(1,4,7,6)      =    -60.025575    -0.000071    -0.318379   -60.343954
	   40 D(1,4,7,10)     =     60.013132    -0.000008    -0.064678    59.948454
	   41 D(2,4,7,5)      =    -60.028143     0.000081     0.282123   -59.746020
	   42 D(2,4,7,6)      =     59.980409    -0.000100    -0.403554    59.576855
	   43 D(2,4,7,10)     =   -179.980883    -0.000037    -0.149853  -180.130737
	   44 D(3,4,7,5)      =     59.933911     0.000059     0.251184    60.185095
	   45 D(3,4,7,6)      =    179.942463    -0.000122    -0.434492   179.507970
	   46 D(3,4,7,10)     =    -60.018830    -0.000059    -0.180792   -60.199622
	   47 D(4,7,10,8)     =    149.992457     0.000118     0.399817   150.392274
	   48 D(4,7,10,9)     =    -90.010140    -0.000039    -0.187637   -90.197776
	   49 D(4,7,10,14)    =     29.989969     0.000071     0.183877    30.173846
	   50 D(5,7,10,8)     =     30.043581     0.000008     0.027465    30.071046
	   51 D(5,7,10,9)     =    150.040984    -0.000149    -0.559988   149.480996
	   52 D(5,7,10,14)    =    -89.958907    -0.000039    -0.188475   -90.147382
	   53 D(6,7,10,8)     =    -89.926618     0.000164     0.609508   -89.317110
	   54 D(6,7,10,9)     =     30.070786     0.000007     0.022054    30.092840
	   55 D(6,7,10,14)    =    150.070894     0.000117     0.393568   150.464462
	   56 D(7,10,14,11)   =    179.979599    -0.000037    -0.148134   179.831465
	   57 D(7,10,14,12)   =     59.982071    -0.000007    -0.063732    59.918339
	   58 D(7,10,14,13)   =    -60.010432    -0.000059    -0.182027   -60.192459
	   59 D(8,10,14,11)   =     59.971207    -0.000100    -0.400588    59.570619
	   60 D(8,10,14,12)   =    -60.026321    -0.000070    -0.316186   -60.342506
	   61 D(8,10,14,13)   =    179.981177    -0.000122    -0.434481   179.546696
	   62 D(9,10,14,11)   =    -60.002472     0.000080     0.280811   -59.721661
	   63 D(9,10,14,12)   =    180.000000     0.000110     0.365213   180.365213
	   64 D(9,10,14,13)   =     60.007497     0.000058     0.246918    60.254415
	 ---------------------------------------------------------------------------
	 Forces used to impose fixed constraints are not included.
	  Forces zeroed: 49 

  ==> Convergence Check <==

  Measures of convergence in internal coordinates in au.
  Criteria marked as inactive (o), active & met (*), and active & unmet ( ).
  --------------------------------------------------------------------------------------------- ~
   Step     Total Energy     Delta E     MAX Force     RMS Force      MAX Disp      RMS Disp    ~
  --------------------------------------------------------------------------------------------- ~
    Convergence Criteria    1.00e-06 *    3.00e-04 *             o    1.20e-03 *             o  ~
  --------------------------------------------------------------------------------------------- ~
      1    -157.82793230   -1.58e+02      4.82e-02      1.26e-02 o    4.94e-02      1.27e-02 o  ~
  ---------------------------------------------------------------------------------------------

	Writing optimization data to binary file.
	Structure for next step:
	Cartesian Geometry (in Angstrom)
	    H    -1.7853979094   0.3397062914   0.7104211147
	    H    -1.5837975109   1.9857014136   0.1237506526
	    H    -1.3592401599   0.6290431657  -0.9676876918
	    C    -1.2227288010   0.9714969549   0.0427869116
	    H     0.8186451492   1.5649943600  -0.2545556988
	    H     0.3859430750   1.2787342624   1.4305823647
	    C     0.2728164808   0.9236639896   0.4189518427
	    H     1.9051552343  -0.4404513154   0.0800315319
	    H     0.7416241838  -0.9946441335   1.2830736098
	    C     0.8579884953  -0.5099031198   0.3271622197
	    H     0.5962111355  -2.3465487851  -0.7758763013
	    H     0.2660355285  -0.8950674857  -1.7125530113
	    H    -0.8932896543  -1.4535284733  -0.5189393984
	    C     0.1540205940  -1.3624559917  -0.7477508173
			--------------------------
			 OPTKING Finished Execution 
			--------------------------

    Structure for next step:
    Molecular point group: c1
    Full point group: C1

    Geometry (in Angstrom), charge = 0, multiplicity = 1:

    H           -1.782469864977     0.340757237139     0.712360905974
    H           -1.580869466449     1.986752359319     0.125690443876
    H           -1.356312115504     0.630094111404    -0.965747900515
    C           -1.219800756545     0.972547900610     0.044726702853
    H            0.821573193615     1.566045305790    -0.252615907574
    H            0.388871119440     1.279785208113     1.432522155998
    C            0.275744525164     0.924714935313     0.420891633993
    H            1.908083278731    -0.439400369699     0.081971323189
    H            0.744552228169    -0.993593187787     1.285013401082
    C            0.860916539687    -0.508852174073     0.329102010917
    H            0.599139179873    -2.345497839335    -0.773936510032
    H            0.268963572952    -0.894016539980    -1.710613220064
    H           -0.890361609927    -1.452477527504    -0.516999607175
    C            0.156948638427    -1.361405045906    -0.745811026003

gradient() will perform analytic gradient computation.
    SCF Algorithm Type (re)set to DF.

*** tstart() called on lski1497
*** at Thu Feb 16 16:34:20 2017


         ---------------------------------------------------------
                                   SCF
            by Justin Turney, Rob Parrish, and Andy Simmonett
                              RHF Reference
                        1 Threads,   1000 MiB Core
         ---------------------------------------------------------

  ==> Geometry <==

    Molecular point group: c1
    Full point group: C1

    Geometry (in Angstrom), charge = 0, multiplicity = 1:

       Center              X                  Y                   Z               Mass       
    ------------   -----------------  -----------------  -----------------  -----------------
           H         -1.782469864977     0.340757237139     0.712360905974     1.007825032070
           H         -1.580869466449     1.986752359319     0.125690443876     1.007825032070
           H         -1.356312115504     0.630094111404    -0.965747900515     1.007825032070
           C         -1.219800756545     0.972547900610     0.044726702853    12.000000000000
           H          0.821573193615     1.566045305790    -0.252615907574     1.007825032070
           H          0.388871119440     1.279785208113     1.432522155998     1.007825032070
           C          0.275744525164     0.924714935313     0.420891633993    12.000000000000
           H          1.908083278731    -0.439400369699     0.081971323189     1.007825032070
           H          0.744552228169    -0.993593187787     1.285013401082     1.007825032070
           C          0.860916539687    -0.508852174073     0.329102010917    12.000000000000
           H          0.599139179873    -2.345497839335    -0.773936510032     1.007825032070
           H          0.268963572952    -0.894016539980    -1.710613220064     1.007825032070
           H         -0.890361609927    -1.452477527504    -0.516999607175     1.007825032070
           C          0.156948638427    -1.361405045906    -0.745811026003    12.000000000000

  Running in c1 symmetry.

  Rotational constants: A =      0.39454  B =      0.18563  C =      0.14162 [cm^-1]
  Rotational constants: A =  11828.08926  B =   5565.01598  C =   4245.74871 [MHz]
  Nuclear repulsion =  134.174478947881397

  Charge       = 0
  Multiplicity = 1
  Electrons    = 34
  Nalpha       = 17
  Nbeta        = 17

  ==> Algorithm <==

  SCF Algorithm Type is DF.
  DIIS enabled.
  MOM disabled.
  Fractional occupation disabled.
  Guess Type is READ.
  Energy threshold   = 1.00e-10
  Density threshold  = 1.00e-10
  Integral threshold = 0.00e+00

  ==> Primary Basis <==

  Basis Set: 6-31G(D)
    Number of shells: 44
    Number of basis function: 80
    Number of Cartesian functions: 80
    Spherical Harmonics?: false
    Max angular momentum: 2

  ==> Pre-Iterations <==

   -------------------------------------------------------
    Irrep   Nso     Nmo     Nalpha   Nbeta   Ndocc  Nsocc
   -------------------------------------------------------
     A         80      80       0       0       0       0
   -------------------------------------------------------
    Total      80      80      17      17      17       0
   -------------------------------------------------------

  ==> Integral Setup <==

  ==> DFJK: Density-Fitted J/K Matrices <==

    J tasked:                  Yes
    K tasked:                  Yes
    wK tasked:                  No
    OpenMP threads:              1
    Integrals threads:           1
    Memory (MB):               715
    Algorithm:                Core
    Integral Cache:           NONE
    Schwarz Cutoff:          1E-12
    Fitting Condition:       1E-12

   => Auxiliary Basis Set <=

  Basis Set: 
    Number of shells: 186
    Number of basis function: 574
    Number of Cartesian functions: 574
    Spherical Harmonics?: false
    Max angular momentum: 3

  Minimum eigenvalue in the overlap matrix is 4.5036636662E-03.
  Using Symmetric Orthogonalization.
  SCF Guess was Projection but file not found.
  Switching over to SAD guess.

  SCF Guess: Superposition of Atomic Densities via on-the-fly atomic UHF.

  ==> Iterations <==

                           Total Energy        Delta E     RMS |[F,P]|

   @DF-RHF iter   0:  -158.83803824346583   -1.58838e+02   4.62127e-02 
   @DF-RHF iter   1:  -157.19184548205797    1.64619e+00   4.13622e-03 
   @DF-RHF iter   2:  -157.27863034624320   -8.67849e-02   1.22315e-03 DIIS
   @DF-RHF iter   3:  -157.28752186840583   -8.89152e-03   4.38710e-04 DIIS
   @DF-RHF iter   4:  -157.28842851410460   -9.06646e-04   8.58243e-05 DIIS
   @DF-RHF iter   5:  -157.28847968685753   -5.11728e-05   1.51363e-05 DIIS
   @DF-RHF iter   6:  -157.28848145573940   -1.76888e-06   3.04194e-06 DIIS
   @DF-RHF iter   7:  -157.28848150273993   -4.70005e-08   8.54990e-07 DIIS
   @DF-RHF iter   8:  -157.28848150689092   -4.15099e-09   1.70702e-07 DIIS
   @DF-RHF iter   9:  -157.28848150711090   -2.19984e-10   4.80017e-08 DIIS
   @DF-RHF iter  10:  -157.28848150712938   -1.84741e-11   1.29660e-08 DIIS
   @DF-RHF iter  11:  -157.28848150713046   -1.08002e-12   3.22226e-09 DIIS
   @DF-RHF iter  12:  -157.28848150713046    0.00000e+00   7.03739e-10 DIIS
   @DF-RHF iter  13:  -157.28848150713063   -1.70530e-13   1.30711e-10 DIIS
   @DF-RHF iter  14:  -157.28848150713057    5.68434e-14   2.89568e-11 DIIS

  ==> Post-Iterations <==

    Orbital Energies (a.u.)
    -----------------------

    Doubly Occupied:                                                      

       1A    -11.211328     2A    -11.210780     3A    -11.203292  
       4A    -11.203221     5A     -1.069020     6A     -0.970971  
       7A     -0.880667     8A     -0.771504     9A     -0.639931  
      10A     -0.619604    11A     -0.571662    12A     -0.533516  
      13A     -0.527460    14A     -0.513273    15A     -0.461136  
      16A     -0.453873    17A     -0.453056  

    Virtual:                                                              

      18A      0.228182    19A      0.280424    20A      0.288384  
      21A      0.302136    22A      0.310282    23A      0.316197  
      24A      0.352728    25A      0.354696    26A      0.358015  
      27A      0.375451    28A      0.395717    29A      0.420381  
      30A      0.465231    31A      0.713227    32A      0.732049  
      33A      0.741744    34A      0.774653    35A      0.779076  
      36A      0.828995    37A      0.854250    38A      0.920540  
      39A      0.946130    40A      1.000147    41A      1.114629  
      42A      1.128788    43A      1.166081    44A      1.171872  
      45A      1.179081    46A      1.193440    47A      1.201580  
      48A      1.205289    49A      1.230893    50A      1.259270  
      51A      1.261560    52A      1.292095    53A      1.317192  
      54A      1.607997    55A      1.672260    56A      1.719035  
      57A      1.721651    58A      1.935162    59A      1.985437  
      60A      2.065545    61A      2.163987    62A      2.287958  
      63A      2.292664    64A      2.318721    65A      2.355651  
      66A      2.433308    67A      2.501856    68A      2.602068  
      69A      2.657790    70A      2.675156    71A      2.710224  
      72A      2.738546    73A      2.787850    74A      2.919280  
      75A      2.967461    76A      3.084461    77A      4.564823  
      78A      4.696467    79A      4.783045    80A      4.967548  

    Final Occupation by Irrep:
              A 
    DOCC [    17 ]

  Energy converged.

  @DF-RHF Final Energy:  -157.28848150713057

   => Energetics <=

    Nuclear Repulsion Energy =            134.1744789478813971
    One-Electron Energy =                -476.3373313635185013
    Two-Electron Energy =                 184.8743709085064211
    DFT Exchange-Correlation Energy =       0.0000000000000000
    Empirical Dispersion Energy =           0.0000000000000000
    PCM Polarization Energy =               0.0000000000000000
    EFP Energy =                            0.0000000000000000
    Total Energy =                       -157.2884815071306548


  Saving occupied orbitals to File 180.

*** tstop() called on lski1497 at Thu Feb 16 16:34:26 2017
Module time:
	user time   =       4.94 seconds =       0.08 minutes
	system time =       0.13 seconds =       0.00 minutes
	total time  =          6 seconds =       0.10 minutes
Total time:
	user time   =      28.34 seconds =       0.47 minutes
	system time =       0.82 seconds =       0.01 minutes
	total time  =         32 seconds =       0.53 minutes


Properties will be evaluated at   0.000000,   0.000000,   0.000000 Bohr

Properties computed using the SCF density matrix

  Nuclear Dipole Moment: (a.u.)
     X:    -0.8239      Y:    -0.3014      Z:    -0.5459

  Electronic Dipole Moment: (a.u.)
     X:     0.8482      Y:     0.3101      Z:     0.5619

  Dipole Moment: (a.u.)
     X:     0.0243      Y:     0.0087      Z:     0.0160     Total:     0.0304

  Dipole Moment: (Debye)
     X:     0.0618      Y:     0.0220      Z:     0.0406     Total:     0.0772


  //>>>>>>>>>>>>>>>>>>>>>>>>>>>>>>>>>>>//
  //               DFMP2               //
  //<<<<<<<<<<<<<<<<<<<<<<<<<<<<<<<<<<<//


*** tstart() called on lski1497
*** at Thu Feb 16 16:34:26 2017


*** tstop() called on lski1497 at Thu Feb 16 16:34:27 2017
Module time:
	user time   =       0.53 seconds =       0.01 minutes
	system time =       0.01 seconds =       0.00 minutes
	total time  =          1 seconds =       0.02 minutes
Total time:
	user time   =      28.89 seconds =       0.48 minutes
	system time =       0.83 seconds =       0.01 minutes
	total time  =         33 seconds =       0.55 minutes
	 --------------------------------------------------------
	                          DF-MP2                         
	      2nd-Order Density-Fitted Moller-Plesset Theory     
	              RMP2 Wavefunction,   1 Threads             
	                                                         
	        Rob Parrish, Justin Turney, Andy Simmonett,      
	           Ed Hohenstein, and C. David Sherrill          
	 --------------------------------------------------------

   => Auxiliary Basis Set <=

  Basis Set: 
    Number of shells: 132
    Number of basis function: 364
    Number of Cartesian functions: 414
    Spherical Harmonics?: true
    Max angular momentum: 3

	 --------------------------------------------------------
	                 NBF =    80, NAUX =   364
	 --------------------------------------------------------
	   CLASS    FOCC     OCC    AOCC    AVIR     VIR    FVIR
	   PAIRS       0      17      17      63      63       0
	 --------------------------------------------------------

DGAS Warning! /src/lib/libfock/apps.cc:80 is not currently checking restricted

         ------------------------------------------------------------
                                     CPHF                           
                                  Rob Parrish                       
         ------------------------------------------------------------

  ==> Geometry <==

    Molecular point group: c1
    Full point group: C1

    Geometry (in Angstrom), charge = 0, multiplicity = 1:

       Center              X                  Y                   Z               Mass       
    ------------   -----------------  -----------------  -----------------  -----------------
           H         -1.782469864977     0.340757237139     0.712360905974     1.007825032070
           H         -1.580869466449     1.986752359319     0.125690443876     1.007825032070
           H         -1.356312115504     0.630094111404    -0.965747900515     1.007825032070
           C         -1.219800756545     0.972547900610     0.044726702853    12.000000000000
           H          0.821573193615     1.566045305790    -0.252615907574     1.007825032070
           H          0.388871119440     1.279785208113     1.432522155998     1.007825032070
           C          0.275744525164     0.924714935313     0.420891633993    12.000000000000
           H          1.908083278731    -0.439400369699     0.081971323189     1.007825032070
           H          0.744552228169    -0.993593187787     1.285013401082     1.007825032070
           C          0.860916539687    -0.508852174073     0.329102010917    12.000000000000
           H          0.599139179873    -2.345497839335    -0.773936510032     1.007825032070
           H          0.268963572952    -0.894016539980    -1.710613220064     1.007825032070
           H         -0.890361609927    -1.452477527504    -0.516999607175     1.007825032070
           C          0.156948638427    -1.361405045906    -0.745811026003    12.000000000000

  Nuclear repulsion =  134.174478947881397
  Reference energy  = -157.288481507130570

  ==> Basis Set <==

  Basis Set: 6-31G(D)
    Number of shells: 44
    Number of basis function: 80
    Number of Cartesian functions: 80
    Spherical Harmonics?: false
    Max angular momentum: 2

  ==> CGRSolver (by Rob Parrish) <==

   Number of roots    =         1
   Preconditioning    =    JACOBI
   Convergence cutoff =     1E-06
   Maximum iterations =       100

  ==> CPHFRHamiltonian (by Rob Parrish) <== 

  ==> DFJK: Density-Fitted J/K Matrices <==

    J tasked:                  Yes
    K tasked:                  Yes
    wK tasked:                  No
    OpenMP threads:              1
    Integrals threads:           1
    Memory (MB):               715
    Algorithm:                Core
    Integral Cache:           NONE
    Schwarz Cutoff:          1E-12
    Fitting Condition:       1E-12

   => Auxiliary Basis Set <=

  Basis Set: 
    Number of shells: 186
    Number of basis function: 574
    Number of Cartesian functions: 574
    Spherical Harmonics?: false
    Max angular momentum: 3

  ==> CPHF Iterations <==

  => Iterations <=

             Iter  Converged  Remaining    Residual
  CGR           1          0          1   7.488E-02
  CGR           2          0          1   8.616E-03
  CGR           3          0          1   2.230E-03
  CGR           4          0          1   4.317E-04
  CGR           5          0          1   7.539E-05
  CGR           6          0          1   1.372E-05
  CGR           7          0          1   1.750E-06
  CGR           8          1          0   4.360E-07

    CGRSolver converged.

  ==> DFCorrGrad: Density-Fitted Correlated Gradients <==

    OpenMP threads:              1
    Integrals threads:           1
    Memory (MB):               715
    Schwarz Cutoff:          0E+00
    Fitting Condition:       1E-12

   => Auxiliary Basis Set <=

  Basis Set: 
    Number of shells: 186
    Number of basis function: 510
    Number of Cartesian functions: 574
    Spherical Harmonics?: true
    Max angular momentum: 3

	-----------------------------------------------------------
	 ==================> DF-MP2 Energies <==================== 
	-----------------------------------------------------------
	 Reference Energy          =    -157.2884815071305695 [Eh]
	 Singles Energy            =      -0.0000000000000000 [Eh]
	 Same-Spin Energy          =      -0.1247550404448595 [Eh]
	 Opposite-Spin Energy      =      -0.4217077449049024 [Eh]
	 Correlation Energy        =      -0.5464627853497619 [Eh]
	 Total Energy              =    -157.8349442924803441 [Eh]
	-----------------------------------------------------------
	 ================> DF-SCS-MP2 Energies <================== 
	-----------------------------------------------------------
	 SCS Same-Spin Scale       =       0.3333333333333333 [-]
	 SCS Opposite-Spin Scale   =       1.2000000000000000 [-]
	 SCS Same-Spin Energy      =      -0.0415850134816198 [Eh]
	 SCS Opposite-Spin Energy  =      -0.5060492938858828 [Eh]
	 SCS Correlation Energy    =      -0.5476343073675026 [Eh]
	 SCS Total Energy          =    -157.8361158144980720 [Eh]
	-----------------------------------------------------------


  -Total Gradient:
     Atom            X                  Y                   Z
    ------   -----------------  -----------------  -----------------
       1        0.008654240084     0.005206818268    -0.005572364950
       2        0.005563001774    -0.008079267951    -0.000685168821
       3        0.004770204341     0.000800029645     0.009160052699
       4       -0.021607323475    -0.004558229178    -0.008432870865
       5       -0.005870329408    -0.009246396345     0.004518413337
       6       -0.004701577751    -0.008130281755    -0.008386965435
       7        0.014517331043     0.021057776631     0.008980670366
       8       -0.012108635285     0.001904185112    -0.002803222395
       9       -0.002090498667     0.006363811222    -0.009978398672
      10        0.021101299297    -0.008130122174     0.014689028048
      11       -0.002911196861     0.009329875509     0.002501169874
      12        0.000097419466    -0.001947782267     0.011277250369
      13        0.009206056293     0.004387012954     0.000156362361
      14       -0.014619990848    -0.008957429673    -0.015423955916


			-----------------------------------------
			 OPTKING 2.0: for geometry optimizations 
			  - R.A. King,  Bethel University        
			-----------------------------------------

	Previous internal coordinate definitions found.
	---Fragment 1 Geometry and Gradient---
	 H          -3.3683798849        0.6439378560        1.3461670201
	 H          -2.9874103434        3.7544178530        0.2375205164
	 H          -2.5630584490        1.1907053085       -1.8249990454
	 C          -2.3050893666        1.8378491833        0.0845212192
	 H           1.5525483341        2.9593967396       -0.4773748821
	 H           0.7348599167        2.4184435523        2.7070745541
	 C           0.5210816352        1.7474579787        0.7953699199
	 H           3.6057548355       -0.8303463614        0.1549033516
	 H           1.4069998029       -1.8776190124        2.4283234051
	 C           1.6268964833       -0.9615912511        0.6219126704
	 H           1.1322089654       -4.4323485616       -1.4625280482
	 H           0.5082674926       -1.6894464188       -3.2325905052
	 H          -1.6825396020       -2.7447847412       -0.9769876684
	 C           0.2965899436       -2.5726826927       -1.4093785860
	             0.0086542401        0.0052068183       -0.0055723650
	             0.0055630018       -0.0080792680       -0.0006851688
	             0.0047702043        0.0008000296        0.0091600527
	            -0.0216073235       -0.0045582292       -0.0084328709
	            -0.0058703294       -0.0092463963        0.0045184133
	            -0.0047015778       -0.0081302818       -0.0083869654
	             0.0145173310        0.0210577766        0.0089806704
	            -0.0121086353        0.0019041851       -0.0028032224
	            -0.0020904987        0.0063638112       -0.0099783987
	             0.0211012993       -0.0081301222        0.0146890280
	            -0.0029111969        0.0093298755        0.0025011699
	             0.0000974195       -0.0019477823        0.0112772504
	             0.0092060563        0.0043870130        0.0001563624
	            -0.0146199908       -0.0089574297       -0.0154239559

	---Fragment 1 Intrafragment Coordinates---
	 - Coordinate -           - BOHR/RAD -       - ANG/DEG -
	 R(1,4)           =         2.036605	       1.077725
	 R(2,4)           =         2.040149	       1.079600
	 R(3,4)           =         2.032636	       1.075625
	 R(4,7)           =         2.915599	       1.542869
	 R(5,7)           =         2.037793	       1.078353
	 R(6,7)           =         2.037287	       1.078086
	 R(7,10)          =         2.931188	       1.551118
	 R(8,10)          =         2.037450	       1.078172
	 R(9,10)          =         2.037298	       1.078091
	 R(10,14)         =         2.914014	       1.542030
	 R(11,14)         =         2.039471	       1.079241
	 R(12,14)         =         2.036913	       1.077888
	 R(13,14)         =         2.033110	       1.075875
	 B(1,4,2)         =         1.906726	     109.247364
	 B(1,4,3)         =         1.906106	     109.211838
	 B(1,4,7)         =         1.914382	     109.686023
	 B(2,4,3)         =         1.904027	     109.092686
	 B(2,4,7)         =         1.912432	     109.574294
	 B(3,4,7)         =         1.920045	     110.010458
	 B(4,7,5)         =         1.896451	     108.658650
	 B(4,7,6)         =         1.896825	     108.680069
	 B(4,7,10)        =         1.960498	     112.328247
	 B(5,7,6)         =         1.914611	     109.699116
	 B(5,7,10)        =         1.898367	     108.768405
	 B(6,7,10)        =         1.896879	     108.683164
	 B(7,10,8)        =         1.896989	     108.689463
	 B(7,10,9)        =         1.899023	     108.805977
	 B(7,10,14)       =         1.960595	     112.333810
	 B(8,10,9)        =         1.914558	     109.696084
	 B(8,10,14)       =         1.895711	     108.616212
	 B(9,10,14)       =         1.896751	     108.675799
	 B(10,14,11)      =         1.912670	     109.587928
	 B(10,14,12)      =         1.914276	     109.679944
	 B(10,14,13)      =         1.920852	     110.056694
	 B(11,14,12)      =         1.906551	     109.237301
	 B(11,14,13)      =         1.904136	     109.098960
	 B(12,14,13)      =         1.905224	     109.161320
	 D(1,4,7,5)       =        -3.135778	    -179.666829
	 D(1,4,7,6)       =        -1.053201	     -60.343954
	 D(1,4,7,10)      =         1.046298	      59.948454
	 D(2,4,7,5)       =        -1.042765	     -59.746020
	 D(2,4,7,6)       =         1.039812	      59.576855
	 D(2,4,7,10)      =         3.139311	     179.869263
	 D(3,4,7,5)       =         1.050428	      60.185095
	 D(3,4,7,6)       =         3.133005	     179.507970
	 D(3,4,7,10)      =        -1.050682	     -60.199622
	 D(4,7,10,8)      =         2.624840	     150.392274
	 D(4,7,10,9)      =        -1.574248	     -90.197776
	 D(4,7,10,14)     =         0.526633	      30.173846
	 D(5,7,10,8)      =         0.524839	      30.071046
	 D(5,7,10,9)      =         2.608936	     149.480996
	 D(5,7,10,14)     =        -1.573369	     -90.147382
	 D(6,7,10,8)      =        -1.558878	     -89.317110
	 D(6,7,10,9)      =         0.525219	      30.092840
	 D(6,7,10,14)     =         2.626100	     150.464462
	 D(7,10,14,11)    =         3.138651	     179.831465
	 D(7,10,14,12)    =         1.045772	      59.918339
	 D(7,10,14,13)    =        -1.050557	     -60.192459
	 D(8,10,14,11)    =         1.039703	      59.570619
	 D(8,10,14,12)    =        -1.053175	     -60.342506
	 D(8,10,14,13)    =         3.133681	     179.546696
	 D(9,10,14,11)    =        -1.042340	     -59.721661
	 D(9,10,14,12)    =        -3.135218	    -179.634787
	 D(9,10,14,13)    =         1.051638	      60.254415

	Current energy   :      -157.8349442925

	Energy change for the previous step:
		Projected    :        -0.0099771010
		Actual       :        -0.0070119889

	Performing BFGS update.
	Previous computed or guess Hessian on step 1.
	Steps to be used in Hessian update: 1
	Adding user-defined constraint: Fragment 1; Coordinate 49:
		Value =     0.526633; Fixed value    =     0.523600
		Force =    -0.001592; Force constant =     0.525000
	Removing off-diagonal coupling between coordinate 49 and others.
	Taking RFO optimization step.
	Going to follow RFO solution 1.
	Using RFO vector 1.

	Determining step-restricting scale parameter for RS-RFO.
	Maximum step size allowed    0.10000

	 Iter      |step|        alpha        rfo_root  
	------------------------------------------------
	    0     0.20709       1.00000           1
	    1     0.15709       5.41414           1
	    2     0.12449      14.99604           1
	    3     0.10674      26.70345           1
	    4     0.10071      32.68236           1
	    5     0.10001      33.47426           1
	------------------------------------------------
	Norm of target step-size    0.10001
	Projected energy change by RFO approximation:        -0.0045526646

	Back-transformation to cartesian coordinates...
	Successfully converged to displaced geometry.

	--- Internal Coordinate Step in ANG or DEG, aJ/ANG or AJ/DEG ---
	 ---------------------------------------------------------------------------
	   Coordinate                Previous        Force       Change         New 
	   ----------                --------       ------       ------       ------
	    1 R(1,4)          =      1.077725     0.090813     0.012648     1.090373
	    2 R(2,4)          =      1.079600     0.078282     0.010772     1.090372
	    3 R(3,4)          =      1.075625     0.077982     0.012249     1.087874
	    4 R(4,7)          =      1.542869    -0.030337    -0.006614     1.536255
	    5 R(5,7)          =      1.078353     0.093036     0.012793     1.091147
	    6 R(6,7)          =      1.078086     0.090964     0.012492     1.090577
	    7 R(7,10)         =      1.551118     0.026782    -0.002550     1.548568
	    8 R(8,10)         =      1.078172     0.090587     0.012443     1.090615
	    9 R(9,10)         =      1.078091     0.094607     0.012996     1.091087
	   10 R(10,14)        =      1.542030    -0.026691    -0.006004     1.536026
	   11 R(11,14)        =      1.079241     0.080453     0.011054     1.090296
	   12 R(12,14)        =      1.077888     0.090038     0.012548     1.090436
	   13 R(13,14)        =      1.075875     0.076618     0.012073     1.087948
	   14 B(1,4,2)        =    109.247364    -0.000248    -0.643503   108.603861
	   15 B(1,4,3)        =    109.211838    -0.000233    -0.665272   108.546565
	   16 B(1,4,7)        =    109.686023     0.000276     0.772837   110.458859
	   17 B(2,4,3)        =    109.092686    -0.000263    -0.572393   108.520293
	   18 B(2,4,7)        =    109.574294     0.000119     0.335139   109.909432
	   19 B(3,4,7)        =    110.010458     0.000341     0.732556   110.743013
	   20 B(4,7,5)        =    108.658650    -0.000317    -0.260494   108.398157
	   21 B(4,7,6)        =    108.680069    -0.000353    -0.183697   108.496371
	   22 B(4,7,10)       =    112.328247     0.001246     1.250288   113.578535
	   23 B(5,7,6)        =    109.699116    -0.000007    -0.565034   109.134083
	   24 B(5,7,10)       =    108.768405    -0.000263    -0.091699   108.676706
	   25 B(6,7,10)       =    108.683164    -0.000318    -0.197477   108.485687
	   26 B(7,10,8)       =    108.689463    -0.000321    -0.193012   108.496451
	   27 B(7,10,9)       =    108.805977    -0.000266    -0.110247   108.695730
	   28 B(7,10,14)      =    112.333810     0.001246     1.246015   113.579825
	   29 B(8,10,9)       =    109.696084    -0.000007    -0.567715   109.128369
	   30 B(8,10,14)      =    108.616212    -0.000346    -0.167757   108.448454
	   31 B(9,10,14)      =    108.675799    -0.000318    -0.255600   108.420199
	   32 B(10,14,11)     =    109.587928     0.000120     0.328086   109.916015
	   33 B(10,14,12)     =    109.679944     0.000277     0.771981   110.451926
	   34 B(10,14,13)     =    110.056694     0.000336     0.710907   110.767601
	   35 B(11,14,12)     =    109.237301    -0.000249    -0.642459   108.594842
	   36 B(11,14,13)     =    109.098960    -0.000264    -0.563112   108.535848
	   37 B(12,14,13)     =    109.161320    -0.000229    -0.646184   108.515136
	   38 D(1,4,7,5)      =   -179.666829     0.000054     0.512134  -179.154695
	   39 D(1,4,7,6)      =    -60.343954    -0.000036    -0.417391   -60.761344
	   40 D(1,4,7,10)     =     59.948454    -0.000002     0.007014    59.955469
	   41 D(2,4,7,5)      =    -59.746020     0.000040     0.410420   -59.335600
	   42 D(2,4,7,6)      =     59.576855    -0.000050    -0.519105    59.057751
	   43 D(2,4,7,10)     =    179.869263    -0.000016    -0.094700   179.774563
	   44 D(3,4,7,5)      =     60.185095     0.000031     0.374592    60.559687
	   45 D(3,4,7,6)      =    179.507970    -0.000059    -0.554933   178.953037
	   46 D(3,4,7,10)     =    -60.199622    -0.000025    -0.130528   -60.330150
	   47 D(4,7,10,8)     =    150.392274     0.000062     0.728316   151.120589
	   48 D(4,7,10,9)     =    -90.197776    -0.000018    -0.127676   -90.325452
	   49 D(4,7,10,14)    =     30.173846     0.000031     0.276288    30.450134
	   50 D(5,7,10,8)     =     30.071046     0.000013     0.316321    30.387368
	   51 D(5,7,10,9)     =    149.480996    -0.000068    -0.539670   148.941326
	   52 D(5,7,10,14)    =    -90.147382    -0.000019    -0.135706   -90.283088
	   53 D(6,7,10,8)     =    -89.317110     0.000092     1.160525   -88.156585
	   54 D(6,7,10,9)     =     30.092840     0.000012     0.304534    30.397374
	   55 D(6,7,10,14)    =    150.464462     0.000061     0.708498   151.172960
	   56 D(7,10,14,11)   =    179.831465    -0.000015    -0.082766   179.748699
	   57 D(7,10,14,12)   =     59.918339    -0.000002     0.022628    59.940967
	   58 D(7,10,14,13)   =    -60.192459    -0.000025    -0.124316   -60.316774
	   59 D(8,10,14,11)   =     59.570619    -0.000050    -0.519397    59.051222
	   60 D(8,10,14,12)   =    -60.342506    -0.000036    -0.414003   -60.756509
	   61 D(8,10,14,13)   =    179.546696    -0.000059    -0.560946   178.985749
	   62 D(9,10,14,11)   =    -59.721661     0.000040     0.400793   -59.320868
	   63 D(9,10,14,12)   =   -179.634787     0.000054     0.506187  -179.128600
	   64 D(9,10,14,13)   =     60.254415     0.000030     0.359244    60.613659
	 ---------------------------------------------------------------------------
	 Forces used to impose fixed constraints are not included.
	  Forces zeroed: 49 

  ==> Convergence Check <==

  Measures of convergence in internal coordinates in au.
  Criteria marked as inactive (o), active & met (*), and active & unmet ( ).
  ---------------------------------------------------------------------------------------------
   Step     Total Energy     Delta E     MAX Force     RMS Force      MAX Disp      RMS Disp   
  ---------------------------------------------------------------------------------------------
    Convergence Criteria    1.00e-06 *    3.00e-04 *             o    1.20e-03 *             o
  ---------------------------------------------------------------------------------------------
      2    -157.83494429   -7.01e-03      1.64e-02      5.74e-03 o    2.46e-02      1.25e-02 o  ~
  ---------------------------------------------------------------------------------------------

	Writing optimization data to binary file.
	Structure for next step:
	Cartesian Geometry (in Angstrom)
	    H    -1.7927799323   0.3771222464   0.7623000439
	    H    -1.5697566384   2.0285968244   0.1628860424
	    H    -1.4121948256   0.6571261241  -0.9417334273
	    C    -1.2211790833   0.9993541988   0.0730879074
	    H     0.8150917041   1.5689156921  -0.2984109934
	    H     0.4300188303   1.2921678935   1.4148293455
	    C     0.2781482339   0.9244480494   0.3994101331
	    H     1.9168062134  -0.4322496209   0.0343574446
	    H     0.7748436761  -0.9865211971   1.2787368641
	    C     0.8623669443  -0.5064363168   0.3028632677
	    H     0.6165981587  -2.3776800521  -0.7587988705
	    H     0.2377702887  -0.9465804783  -1.7306304965
	    H    -0.8975866950  -1.5035121447  -0.4949407462
	    C     0.1568315877  -1.3892968453  -0.7374021082
			--------------------------
			 OPTKING Finished Execution 
			--------------------------

    Structure for next step:
    Molecular point group: c1
    Full point group: C1

    Geometry (in Angstrom), charge = 0, multiplicity = 1:

    H           -1.793226358204     0.376920968784     0.764372517764
    H           -1.570203064304     2.028395546794     0.164958516239
    H           -1.412641251485     0.656924846516    -0.939660953502
    C           -1.221625509263     0.999152921256     0.075160381204
    H            0.814645278220     1.568714414538    -0.296338519582
    H            0.429572404404     1.291966615874     1.416901819363
    C            0.277701807973     0.924246771793     0.401482606972
    H            1.916359787498    -0.432450898457     0.036429918413
    H            0.774397250203    -0.986722474692     1.280809337980
    C            0.861920518359    -0.506637594409     0.304935741523
    H            0.616151732807    -2.377881329709    -0.756726396664
    H            0.237323862765    -0.946781755875    -1.728558022705
    H           -0.898033120964    -1.503713422255    -0.492868272393
    C            0.156385161759    -1.389498122891    -0.735329634351

gradient() will perform analytic gradient computation.
    SCF Algorithm Type (re)set to DF.

*** tstart() called on lski1497
*** at Thu Feb 16 16:34:48 2017


         ---------------------------------------------------------
                                   SCF
            by Justin Turney, Rob Parrish, and Andy Simmonett
                              RHF Reference
                        1 Threads,   1000 MiB Core
         ---------------------------------------------------------

  ==> Geometry <==

    Molecular point group: c1
    Full point group: C1

    Geometry (in Angstrom), charge = 0, multiplicity = 1:

       Center              X                  Y                   Z               Mass       
    ------------   -----------------  -----------------  -----------------  -----------------
           H         -1.793226358204     0.376920968784     0.764372517764     1.007825032070
           H         -1.570203064304     2.028395546794     0.164958516239     1.007825032070
           H         -1.412641251485     0.656924846516    -0.939660953502     1.007825032070
           C         -1.221625509263     0.999152921256     0.075160381204    12.000000000000
           H          0.814645278220     1.568714414538    -0.296338519582     1.007825032070
           H          0.429572404404     1.291966615874     1.416901819363     1.007825032070
           C          0.277701807973     0.924246771793     0.401482606972    12.000000000000
           H          1.916359787498    -0.432450898457     0.036429918413     1.007825032070
           H          0.774397250203    -0.986722474692     1.280809337980     1.007825032070
           C          0.861920518359    -0.506637594409     0.304935741523    12.000000000000
           H          0.616151732807    -2.377881329709    -0.756726396664     1.007825032070
           H          0.237323862765    -0.946781755875    -1.728558022705     1.007825032070
           H         -0.898033120964    -1.503713422255    -0.492868272393     1.007825032070
           C          0.156385161759    -1.389498122891    -0.735329634351    12.000000000000

  Running in c1 symmetry.

  Rotational constants: A =      0.39883  B =      0.18054  C =      0.13932 [cm^-1]
  Rotational constants: A =  11956.75288  B =   5412.41752  C =   4176.69562 [MHz]
  Nuclear repulsion =  133.397263546483430

  Charge       = 0
  Multiplicity = 1
  Electrons    = 34
  Nalpha       = 17
  Nbeta        = 17

  ==> Algorithm <==

  SCF Algorithm Type is DF.
  DIIS enabled.
  MOM disabled.
  Fractional occupation disabled.
  Guess Type is READ.
  Energy threshold   = 1.00e-10
  Density threshold  = 1.00e-10
  Integral threshold = 0.00e+00

  ==> Primary Basis <==

  Basis Set: 6-31G(D)
    Number of shells: 44
    Number of basis function: 80
    Number of Cartesian functions: 80
    Spherical Harmonics?: false
    Max angular momentum: 2

  ==> Pre-Iterations <==

   -------------------------------------------------------
    Irrep   Nso     Nmo     Nalpha   Nbeta   Ndocc  Nsocc
   -------------------------------------------------------
     A         80      80       0       0       0       0
   -------------------------------------------------------
    Total      80      80      17      17      17       0
   -------------------------------------------------------

  ==> Integral Setup <==

  ==> DFJK: Density-Fitted J/K Matrices <==

    J tasked:                  Yes
    K tasked:                  Yes
    wK tasked:                  No
    OpenMP threads:              1
    Integrals threads:           1
    Memory (MB):               715
    Algorithm:                Core
    Integral Cache:           NONE
    Schwarz Cutoff:          1E-12
    Fitting Condition:       1E-12

   => Auxiliary Basis Set <=

  Basis Set: 
    Number of shells: 186
    Number of basis function: 574
    Number of Cartesian functions: 574
    Spherical Harmonics?: false
    Max angular momentum: 3

  Minimum eigenvalue in the overlap matrix is 4.5668723609E-03.
  Using Symmetric Orthogonalization.
  SCF Guess was Projection but file not found.
  Switching over to SAD guess.

  SCF Guess: Superposition of Atomic Densities via on-the-fly atomic UHF.

  ==> Iterations <==

                           Total Energy        Delta E     RMS |[F,P]|

   @DF-RHF iter   0:  -158.75304115050676   -1.58753e+02   4.55399e-02 
   @DF-RHF iter   1:  -157.19286314626993    1.56018e+00   4.13708e-03 
   @DF-RHF iter   2:  -157.28043888287431   -8.75757e-02   1.24616e-03 DIIS
   @DF-RHF iter   3:  -157.28953403200745   -9.09515e-03   4.61378e-04 DIIS
   @DF-RHF iter   4:  -157.29053762265528   -1.00359e-03   8.59733e-05 DIIS
   @DF-RHF iter   5:  -157.29058977312127   -5.21505e-05   1.51247e-05 DIIS
   @DF-RHF iter   6:  -157.29059155879685   -1.78568e-06   3.02115e-06 DIIS
   @DF-RHF iter   7:  -157.29059160504147   -4.62446e-08   8.56732e-07 DIIS
   @DF-RHF iter   8:  -157.29059160911515   -4.07368e-09   1.67453e-07 DIIS
   @DF-RHF iter   9:  -157.29059160932195   -2.06796e-10   4.78852e-08 DIIS
   @DF-RHF iter  10:  -157.29059160933974   -1.77920e-11   1.33701e-08 DIIS
   @DF-RHF iter  11:  -157.29059160934071   -9.66338e-13   3.12649e-09 DIIS
   @DF-RHF iter  12:  -157.29059160934077   -5.68434e-14   6.72387e-10 DIIS
   @DF-RHF iter  13:  -157.29059160934105   -2.84217e-13   1.21335e-10 DIIS
   @DF-RHF iter  14:  -157.29059160934105    0.00000e+00   2.29588e-11 DIIS

  ==> Post-Iterations <==

    Orbital Energies (a.u.)
    -----------------------

    Doubly Occupied:                                                      

       1A    -11.215167     2A    -11.214621     3A    -11.207996  
       4A    -11.207974     5A     -1.067431     6A     -0.970851  
       7A     -0.876759     8A     -0.767649     9A     -0.636019  
      10A     -0.616069    11A     -0.568998    12A     -0.534185  
      13A     -0.525115    14A     -0.509892    15A     -0.457711  
      16A     -0.456396    17A     -0.452309  

    Virtual:                                                              

      18A      0.225305    19A      0.277634    20A      0.284239  
      21A      0.299155    22A      0.309051    23A      0.314472  
      24A      0.347027    25A      0.348673    26A      0.353918  
      27A      0.376893    28A      0.392599    29A      0.420222  
      30A      0.470379    31A      0.710580    32A      0.732913  
      33A      0.735326    34A      0.776025    35A      0.782472  
      36A      0.835187    37A      0.861241    38A      0.920449  
      39A      0.948071    40A      1.002006    41A      1.112038  
      42A      1.118913    43A      1.154454    44A      1.162880  
      45A      1.165804    46A      1.178889    47A      1.187223  
      48A      1.193068    49A      1.227673    50A      1.247150  
      51A      1.248582    52A      1.284029    53A      1.303283  
      54A      1.597840    55A      1.665736    56A      1.711713  
      57A      1.726033    58A      1.933962    59A      1.983756  
      60A      2.058993    61A      2.162904    62A      2.282981  
      63A      2.283321    64A      2.315625    65A      2.353348  
      66A      2.424537    67A      2.487819    68A      2.586420  
      69A      2.650242    70A      2.658457    71A      2.702700  
      72A      2.729586    73A      2.770552    74A      2.916137  
      75A      2.976678    76A      3.083001    77A      4.554262  
      78A      4.690824    79A      4.777323    80A      4.963569  

    Final Occupation by Irrep:
              A 
    DOCC [    17 ]

  Energy converged.

  @DF-RHF Final Energy:  -157.29059160934105

   => Energetics <=

    Nuclear Repulsion Energy =            133.3972635464834298
    One-Electron Energy =                -474.8054272373954632
    Two-Electron Energy =                 184.1175720815711543
    DFT Exchange-Correlation Energy =       0.0000000000000000
    Empirical Dispersion Energy =           0.0000000000000000
    PCM Polarization Energy =               0.0000000000000000
    EFP Energy =                            0.0000000000000000
    Total Energy =                       -157.2905916093408791


  Saving occupied orbitals to File 180.

*** tstop() called on lski1497 at Thu Feb 16 16:34:54 2017
Module time:
	user time   =       4.91 seconds =       0.08 minutes
	system time =       0.13 seconds =       0.00 minutes
	total time  =          6 seconds =       0.10 minutes
Total time:
	user time   =      52.14 seconds =       0.87 minutes
	system time =       1.47 seconds =       0.02 minutes
	total time  =         60 seconds =       1.00 minutes


Properties will be evaluated at   0.000000,   0.000000,   0.000000 Bohr

Properties computed using the SCF density matrix

  Nuclear Dipole Moment: (a.u.)
     X:    -0.8303      Y:    -0.3043      Z:    -0.5162

  Electronic Dipole Moment: (a.u.)
     X:     0.8532      Y:     0.3127      Z:     0.5304

  Dipole Moment: (a.u.)
     X:     0.0229      Y:     0.0084      Z:     0.0142     Total:     0.0282

  Dipole Moment: (Debye)
     X:     0.0583      Y:     0.0213      Z:     0.0360     Total:     0.0717


  //>>>>>>>>>>>>>>>>>>>>>>>>>>>>>>>>>>>//
  //               DFMP2               //
  //<<<<<<<<<<<<<<<<<<<<<<<<<<<<<<<<<<<//


*** tstart() called on lski1497
*** at Thu Feb 16 16:34:54 2017


*** tstop() called on lski1497 at Thu Feb 16 16:34:54 2017
Module time:
	user time   =       0.52 seconds =       0.01 minutes
	system time =       0.00 seconds =       0.00 minutes
	total time  =          0 seconds =       0.00 minutes
Total time:
	user time   =      52.67 seconds =       0.88 minutes
	system time =       1.47 seconds =       0.02 minutes
	total time  =         60 seconds =       1.00 minutes
	 --------------------------------------------------------
	                          DF-MP2                         
	      2nd-Order Density-Fitted Moller-Plesset Theory     
	              RMP2 Wavefunction,   1 Threads             
	                                                         
	        Rob Parrish, Justin Turney, Andy Simmonett,      
	           Ed Hohenstein, and C. David Sherrill          
	 --------------------------------------------------------

   => Auxiliary Basis Set <=

  Basis Set: 
    Number of shells: 132
    Number of basis function: 364
    Number of Cartesian functions: 414
    Spherical Harmonics?: true
    Max angular momentum: 3

	 --------------------------------------------------------
	                 NBF =    80, NAUX =   364
	 --------------------------------------------------------
	   CLASS    FOCC     OCC    AOCC    AVIR     VIR    FVIR
	   PAIRS       0      17      17      63      63       0
	 --------------------------------------------------------

DGAS Warning! /src/lib/libfock/apps.cc:80 is not currently checking restricted

         ------------------------------------------------------------
                                     CPHF                           
                                  Rob Parrish                       
         ------------------------------------------------------------

  ==> Geometry <==

    Molecular point group: c1
    Full point group: C1

    Geometry (in Angstrom), charge = 0, multiplicity = 1:

       Center              X                  Y                   Z               Mass       
    ------------   -----------------  -----------------  -----------------  -----------------
           H         -1.793226358204     0.376920968784     0.764372517764     1.007825032070
           H         -1.570203064304     2.028395546794     0.164958516239     1.007825032070
           H         -1.412641251485     0.656924846516    -0.939660953502     1.007825032070
           C         -1.221625509263     0.999152921256     0.075160381204    12.000000000000
           H          0.814645278220     1.568714414538    -0.296338519582     1.007825032070
           H          0.429572404404     1.291966615874     1.416901819363     1.007825032070
           C          0.277701807973     0.924246771793     0.401482606972    12.000000000000
           H          1.916359787498    -0.432450898457     0.036429918413     1.007825032070
           H          0.774397250203    -0.986722474692     1.280809337980     1.007825032070
           C          0.861920518359    -0.506637594409     0.304935741523    12.000000000000
           H          0.616151732807    -2.377881329709    -0.756726396664     1.007825032070
           H          0.237323862765    -0.946781755875    -1.728558022705     1.007825032070
           H         -0.898033120964    -1.503713422255    -0.492868272393     1.007825032070
           C          0.156385161759    -1.389498122891    -0.735329634351    12.000000000000

  Nuclear repulsion =  133.397263546483430
  Reference energy  = -157.290591609341050

  ==> Basis Set <==

  Basis Set: 6-31G(D)
    Number of shells: 44
    Number of basis function: 80
    Number of Cartesian functions: 80
    Spherical Harmonics?: false
    Max angular momentum: 2

  ==> CGRSolver (by Rob Parrish) <==

[...]
  CGR           7          0          1   2.106E-06
  CGR           8          1          0   4.868E-07

    CGRSolver converged.

  ==> DFCorrGrad: Density-Fitted Correlated Gradients <==

    OpenMP threads:              1
    Integrals threads:           1
    Memory (MB):               715
    Schwarz Cutoff:          0E+00
    Fitting Condition:       1E-12

   => Auxiliary Basis Set <=

  Basis Set: 
    Number of shells: 186
    Number of basis function: 510
    Number of Cartesian functions: 574
    Spherical Harmonics?: true
    Max angular momentum: 3

	-----------------------------------------------------------
	 ==================> DF-MP2 Energies <==================== 
	-----------------------------------------------------------
	 Reference Energy          =    -157.2921324916793253 [Eh]
	 Singles Energy            =      -0.0000000000000000 [Eh]
	 Same-Spin Energy          =      -0.1245751850859915 [Eh]
	 Opposite-Spin Energy      =      -0.4226787446608360 [Eh]
	 Correlation Energy        =      -0.5472539297468274 [Eh]
	 Total Energy              =    -157.8393864214261555 [Eh]
	-----------------------------------------------------------
	 ================> DF-SCS-MP2 Energies <================== 
	-----------------------------------------------------------
	 SCS Same-Spin Scale       =       0.3333333333333333 [-]
	 SCS Opposite-Spin Scale   =       1.2000000000000000 [-]
	 SCS Same-Spin Energy      =      -0.0415250616953305 [Eh]
	 SCS Opposite-Spin Energy  =      -0.5072144935930032 [Eh]
	 SCS Correlation Energy    =      -0.5487395552883336 [Eh]
	 SCS Total Energy          =    -157.8408720469676609 [Eh]
	-----------------------------------------------------------


  -Total Gradient:
     Atom            X                  Y                   Z
    ------   -----------------  -----------------  -----------------
       1       -0.000007255881     0.000006743139    -0.000011677485
       2       -0.000000650515    -0.000013558993    -0.000004730447
       3        0.000007107463     0.000003217637     0.000013887324
       4        0.000947006379     0.000755562454    -0.004521927658
       5        0.000016701681    -0.000010139560     0.000012877071
       6       -0.000008317327     0.000000674613    -0.000008010604
       7       -0.002598178487    -0.001733012714     0.007858296368
       8       -0.000008993937    -0.000006006741    -0.000002073606
       9        0.000011009887     0.000020695861     0.000003490404
      10        0.004591173938     0.002468169409    -0.006658055432
      11       -0.000011143606     0.000009573924    -0.000002417304
      12       -0.000008312140    -0.000012374378     0.000002798518
      13        0.000015422571     0.000004788096    -0.000000785260
      14       -0.002945570024    -0.001494332747     0.003318328109


			-----------------------------------------
			 OPTKING 2.0: for geometry optimizations 
			  - R.A. King,  Bethel University        
			-----------------------------------------

	Previous internal coordinate definitions found.
	---Fragment 1 Geometry and Gradient---
	 H          -3.4358829322        0.7246585507        1.4622447540
	 H          -2.9699343057        3.8756901648        0.4713477548
	 H          -2.7565401723        1.3897141692       -1.7399893020
	 C          -2.3234752096        1.9311754916        0.2029413606
	 H           1.4856324440        2.9738772399       -0.5836997337
	 H           0.9082788518        2.4827843202        2.6333602109
	 C           0.5008788039        1.7285968522        0.7498368850
	 H           3.6421057962       -0.8047359230        0.1057507473
	 H           1.4922671257       -1.8757264025        2.3762480297
	 C           1.6210661605       -0.9460931928        0.5274726828
	 H           1.2921007615       -4.4944182366       -1.4813501614
	 H           0.3812036245       -1.8511013359       -3.3009974269
	 H          -1.6369372551       -3.0099023354       -0.9046687739
	 C           0.3357142588       -2.6641983191       -1.3994776237
	            -0.0000072559        0.0000067431       -0.0000116775
	            -0.0000006505       -0.0000135590       -0.0000047304
	             0.0000071075        0.0000032176        0.0000138873
	             0.0009470064        0.0007555625       -0.0045219277
	             0.0000167017       -0.0000101396        0.0000128771
	            -0.0000083173        0.0000006746       -0.0000080106
	            -0.0025981785       -0.0017330127        0.0078582964
	            -0.0000089939       -0.0000060067       -0.0000020736
	             0.0000110099        0.0000206959        0.0000034904
	             0.0045911739        0.0024681694       -0.0066580554
	            -0.0000111436        0.0000095739       -0.0000024173
	            -0.0000083121       -0.0000123744        0.0000027985
	             0.0000154226        0.0000047881       -0.0000007853
	            -0.0029455700       -0.0014943327        0.0033183281

	---Fragment 1 Intrafragment Coordinates---
	 - Coordinate -           - BOHR/RAD -       - ANG/DEG -
	 R(1,4)           =         2.068569	       1.094640
	 R(2,4)           =         2.066661	       1.093630
	 R(3,4)           =         2.062936	       1.091659
	 R(4,7)           =         2.883940	       1.526115
	 R(5,7)           =         2.073351	       1.097170
	 R(6,7)           =         2.069404	       1.095082
	 R(7,10)          =         2.908304	       1.539008
	 R(8,10)          =         2.069404	       1.095081
	 R(9,10)          =         2.073349	       1.097169
	 R(10,14)         =         2.883947	       1.526119
	 R(11,14)         =         2.066660	       1.093629
	 R(12,14)         =         2.068568	       1.094639
	 R(13,14)         =         2.062935	       1.091658
	 B(1,4,2)         =         1.877071	     107.548233
	 B(1,4,3)         =         1.883240	     107.901709
	 B(1,4,7)         =         1.950063	     111.730385
	 B(2,4,3)         =         1.879277	     107.674669
	 B(2,4,7)         =         1.926024	     110.353061
	 B(3,4,7)         =         1.945241	     111.454092
	 B(4,7,5)         =         1.876523	     107.516827
	 B(4,7,6)         =         1.917503	     109.864804
	 B(4,7,10)        =         2.012315	     115.297134
	 B(5,7,6)         =         1.847319	     105.843555
	 B(5,7,10)        =         1.896792	     108.678178
	 B(6,7,10)        =         1.905972	     109.204152
	 B(7,10,8)        =         1.905963	     109.203656
	 B(7,10,9)        =         1.896792	     108.678195
	 B(7,10,14)       =         2.012316	     115.297197
	 B(8,10,9)        =         1.847320	     105.843619
	 B(8,10,14)       =         1.917506	     109.865022
	 B(9,10,14)       =         1.876525	     107.516973
	 B(10,14,11)      =         1.926028	     110.353276
	 B(10,14,12)      =         1.950056	     111.729998
	 B(10,14,13)      =         1.945243	     111.454197
	 B(11,14,12)      =         1.877071	     107.548255
	 B(11,14,13)      =         1.879277	     107.674668
	 B(12,14,13)      =         1.883241	     107.901762
	 D(1,4,7,5)       =         3.136430	     179.704192
	 D(1,4,7,6)       =        -1.144239	     -65.560045
	 D(1,4,7,10)      =         1.018057	      58.330385
	 D(2,4,7,5)       =        -1.059229	     -60.689342
	 D(2,4,7,6)       =         0.943288	      54.046421
	 D(2,4,7,10)      =         3.105584	     177.936851
	 D(3,4,7,5)       =         1.027931	      58.896119
	 D(3,4,7,6)       =         3.030448	     173.631882
	 D(3,4,7,10)      =        -1.090441	     -62.477688
	 D(4,7,10,8)      =         2.701536	     154.786606
	 D(4,7,10,9)      =        -1.574187	     -90.194289
	 D(4,7,10,14)     =         0.533190	      30.549563
	 D(5,7,10,8)      =         0.594162	      34.042998
	 D(5,7,10,9)      =         2.601624	     149.062103
	 D(5,7,10,14)     =        -1.574183	     -90.194045
	 D(6,7,10,8)      =        -1.413303	     -80.976287
	 D(6,7,10,9)      =         0.594159	      34.042818
	 D(6,7,10,14)     =         2.701537	     154.786670
	 D(7,10,14,11)    =         3.105571	     177.936137
	 D(7,10,14,12)    =         1.018046	      58.329752
	 D(7,10,14,13)    =        -1.090450	     -62.478193
	 D(8,10,14,11)    =         0.943283	      54.046146
	 D(8,10,14,12)    =        -1.144242	     -65.560239
	 D(8,10,14,13)    =         3.030447	     173.631816
	 D(9,10,14,11)    =        -1.059238	     -60.689883
	 D(9,10,14,12)    =         3.136422	     179.703732
	 D(9,10,14,13)    =         1.027925	      58.895786

	Current energy   :      -157.8393864214

	Energy change for the previous step:
		Projected    :         0.0000006990
		Actual       :        -0.0000053037

	Performing BFGS update.
	Previous computed or guess Hessian on step 1.
	Steps to be used in Hessian update: 11 10
	Adding user-defined constraint: Fragment 1; Coordinate 49:
		Value =     0.533190; Fixed value    =     0.523600
		Force =    -0.007433; Force constant =     0.775000
	Removing off-diagonal coupling between coordinate 49 and others.
	Taking RFO optimization step.
	Going to follow RFO solution 1.
	Rejecting RFO root 1 because normalization gives large value.
	Using RFO vector 2.
	Norm of target step-size    0.00222
	Projected energy change by RFO approximation:         0.0000003428

	Back-transformation to cartesian coordinates...
	Successfully converged to displaced geometry.

	--- Internal Coordinate Step in ANG or DEG, aJ/ANG or AJ/DEG ---
	 ---------------------------------------------------------------------------
	   Coordinate                Previous        Force       Change         New 
	   ----------                --------       ------       ------       ------
	    1 R(1,4)          =      1.094640     0.000059     0.000008     1.094648
	    2 R(2,4)          =      1.093630     0.000108     0.000019     1.093649
	    3 R(3,4)          =      1.091659     0.000127     0.000023     1.091682
	    4 R(4,7)          =      1.526115     0.000131     0.000004     1.526119
	    5 R(5,7)          =      1.097170     0.000053     0.000009     1.097179
	    6 R(6,7)          =      1.095082     0.000072     0.000021     1.095102
	    7 R(7,10)         =      1.539008     0.000186     0.000005     1.539013
	    8 R(8,10)         =      1.095081     0.000072     0.000021     1.095102
	    9 R(9,10)         =      1.097169     0.000056     0.000009     1.097179
	   10 R(10,14)        =      1.526119     0.000109    -0.000004     1.526116
	   11 R(11,14)        =      1.093629     0.000112     0.000019     1.093648
	   12 R(12,14)        =      1.094639     0.000063     0.000009     1.094648
	   13 R(13,14)        =      1.091658     0.000130     0.000023     1.091681
	   14 B(1,4,2)        =    107.548233     0.000001     0.000651   107.548884
	   15 B(1,4,3)        =    107.901709     0.000000     0.001078   107.902787
	   16 B(1,4,7)        =    111.730385    -0.000002    -0.008654   111.721731
	   17 B(2,4,3)        =    107.674669     0.000000     0.000690   107.675359
	   18 B(2,4,7)        =    110.353061    -0.000000    -0.001518   110.351543
	   19 B(3,4,7)        =    111.454092     0.000001     0.007879   111.461971
	   20 B(4,7,5)        =    107.516827     0.000005    -0.024166   107.492661
	   21 B(4,7,6)        =    109.864804    -0.000007     0.019047   109.883851
	   22 B(4,7,10)       =    115.297134     0.000002     0.003972   115.301106
	   23 B(5,7,6)        =    105.843555     0.000000    -0.001842   105.841713
	   24 B(5,7,10)       =    108.678178     0.000000     0.003651   108.681829
	   25 B(6,7,10)       =    109.204152    -0.000001    -0.001668   109.202484
	   26 B(7,10,8)       =    109.203656    -0.000001    -0.000612   109.203045
	   27 B(7,10,9)       =    108.678195     0.000000     0.003685   108.681880
	   28 B(7,10,14)      =    115.297197     0.000002     0.003452   115.300649
	   29 B(8,10,9)       =    105.843619     0.000000    -0.001816   105.841803
	   30 B(8,10,14)      =    109.865022    -0.000007     0.018508   109.883530
	   31 B(9,10,14)      =    107.516973     0.000005    -0.024196   107.492776
	   32 B(10,14,11)     =    110.353276    -0.000001    -0.002121   110.351155
	   33 B(10,14,12)     =    111.729998    -0.000001    -0.008124   111.721875
	   34 B(10,14,13)     =    111.454197     0.000001     0.007542   111.461738
	   35 B(11,14,12)     =    107.548255     0.000001     0.000794   107.549048
	   36 B(11,14,13)     =    107.674668     0.000000     0.000853   107.675521
	   37 B(12,14,13)     =    107.901762     0.000000     0.001202   107.902964
	   38 D(1,4,7,5)      =    179.704192     0.000000     0.010203   179.714395
	   39 D(1,4,7,6)      =    -65.560045     0.000000     0.004685   -65.555360
	   40 D(1,4,7,10)     =     58.330385    -0.000001     0.020917    58.351303
	   41 D(2,4,7,5)      =    -60.689342     0.000000     0.004357   -60.684985
	   42 D(2,4,7,6)      =     54.046421     0.000000    -0.001162    54.045259
	   43 D(2,4,7,10)     =    177.936851    -0.000001     0.015071   177.951922
	   44 D(3,4,7,5)      =     58.896119     0.000000     0.009337    58.905455
	   45 D(3,4,7,6)      =    173.631882     0.000000     0.003818   173.635700
	   46 D(3,4,7,10)     =    -62.477688    -0.000001     0.020051   -62.457637
	   47 D(4,7,10,8)     =    154.786606     0.000002     0.021998   154.808605
	   48 D(4,7,10,9)     =    -90.194289     0.000002     0.021514   -90.172775
	   49 D(4,7,10,14)    =     30.549563     0.000004    -0.004736    30.544827
	   50 D(5,7,10,8)     =     34.042998     0.000000     0.047883    34.090881
	   51 D(5,7,10,9)     =    149.062103     0.000000     0.047398   149.109501
	   52 D(5,7,10,14)    =    -90.194045     0.000002     0.021148   -90.172897
	   53 D(6,7,10,8)     =    -80.976287     0.000000     0.048983   -80.927304
	   54 D(6,7,10,9)     =     34.042818     0.000000     0.048498    34.091316
	   55 D(6,7,10,14)    =    154.786670     0.000002     0.022248   154.808918
	   56 D(7,10,14,11)   =    177.936137    -0.000001     0.016358   177.952496
	   57 D(7,10,14,12)   =     58.329752    -0.000001     0.022083    58.351836
	   58 D(7,10,14,13)   =    -62.478193    -0.000001     0.020924   -62.457269
	   59 D(8,10,14,11)   =     54.046146     0.000000    -0.000459    54.045688
	   60 D(8,10,14,12)   =    -65.560239     0.000000     0.005266   -65.554972
	   61 D(8,10,14,13)   =    173.631816     0.000000     0.004107   173.635923
	   62 D(9,10,14,11)   =    -60.689883     0.000000     0.005322   -60.684561
	   63 D(9,10,14,12)   =    179.703732     0.000000     0.011047   179.714779
	   64 D(9,10,14,13)   =     58.895786     0.000000     0.009888    58.905674
	 ---------------------------------------------------------------------------
	 Forces used to impose fixed constraints are not included.
	  Forces zeroed: 49 

  ==> Convergence Check <==

  Measures of convergence in internal coordinates in au.
  Criteria marked as inactive (o), active & met (*), and active & unmet ( ).
  ---------------------------------------------------------------------------------------------
   Step     Total Energy     Delta E     MAX Force     RMS Force      MAX Disp      RMS Disp   
  ---------------------------------------------------------------------------------------------
    Convergence Criteria    1.00e-06 *    3.00e-04 *             o    1.20e-03 *             o
  ---------------------------------------------------------------------------------------------
     12    -157.83938642   -5.30e-06      1.11e-04 *    3.86e-05 o    8.55e-04 *    2.78e-04 o  ~
  ---------------------------------------------------------------------------------------------


  **** Optimization is complete! (in 12 steps) ****

  ==> Optimization Summary <==

  Measures of convergence in internal coordinates in au.
  --------------------------------------------------------------------------------------------------------------- ~
   Step         Total Energy             Delta E       MAX Force       RMS Force        MAX Disp        RMS Disp  ~
  --------------------------------------------------------------------------------------------------------------- ~
      1    -157.827932303563   -157.827932303563      0.04817982      0.01258195      0.04935439      0.01267072  ~
      2    -157.834944292480     -0.007011988918      0.01637245      0.00574207      0.02455832      0.01253644  ~
      3    -157.837897625791     -0.002953333310      0.00806357      0.00233135      0.04113656      0.01251382  ~
      4    -157.838943105924     -0.001045480133      0.00325339      0.00096716      0.04623352      0.01249425  ~
      5    -157.839327221305     -0.000384115380      0.00085505      0.00028958      0.02822465      0.01249776  ~
      6    -157.839417162460     -0.000089941156      0.00030061      0.00011203      0.02340882      0.01170248  ~
      7    -157.839452755288     -0.000035592828      0.00064235      0.00014306      0.01525989      0.00766002  ~
      8    -157.839409139997      0.000043615291      0.00015318      0.00006707      0.00895920      0.00453268  ~
      9    -157.839412013506     -0.000002873509      0.00009147      0.00002819      0.02566018      0.01249855  ~
     10    -157.839359382307      0.000052631200      0.00062824      0.00019845      0.02543582      0.01249893  ~
     11    -157.839381117708     -0.000021735402      0.00046609      0.00010494      0.00216755      0.00062416  ~
     12    -157.839386421426     -0.000005303718      0.00021456      0.00004701      0.00085491      0.00027810  ~
  --------------------------------------------------------------------------------------------------------------- ~

	Writing optimization data to binary file.
	Final energy is   -157.8393864214262
	Final (previous) structure:
	Cartesian Geometry (in Angstrom)
	    H    -1.8181909391   0.3834727890   0.7737865972
	    H    -1.5716215456   2.0509269027   0.2494264891
	    H    -1.4586982337   0.7354050648  -0.9207626818
	    C    -1.2295301256   1.0219340559   0.1073919427
	    H     0.7861628297   1.5737080565  -0.3088805957
	    H     0.4806404674   1.3138328761   1.3935142056
	    C     0.2650536473   0.9147340570   0.3967965897
	    H     1.9273193786  -0.4258479094   0.0559608853
	    H     0.7896737520  -0.9925916618   1.2574562993
	    C     0.8578312657  -0.5006509548   0.2791265219
	    H     0.6837502742  -2.3783436967  -0.7838967434
	    H     0.2017242699  -0.9795606378  -1.7468126039
	    H    -0.8662298873  -1.5927717160  -0.4787300965
	    C     0.1776523343  -1.4098330296  -0.7405716624
	Saving final (previous) structure.
			--------------------------
			 OPTKING Finished Execution 
			--------------------------

    Final optimized geometry and variables:
    Molecular point group: c1
    Full point group: C1

    Geometry (in Angstrom), charge = 0, multiplicity = 1:

    H           -1.818190939082     0.383472789017     0.773786597185
    H           -1.571621545582     2.050926902745     0.249426489145
    H           -1.458698233749     0.735405064821    -0.920762681805
    C           -1.229530125623     1.021934055926     0.107391942707
    H            0.786162829706     1.573708056511    -0.308880595720
    H            0.480640467434     1.313832876095     1.393514205614
    C            0.265053647283     0.914734057008     0.396796589724
    H            1.927319378635    -0.425847909406     0.055960885289
    H            0.789673752039    -0.992591661758     1.257456299278
    C            0.857831265735    -0.500650954817     0.279126521874
    H            0.683750274214    -2.378343696668    -0.783896743370
    H            0.201724269906    -0.979560637769    -1.746812603913
    H           -0.866229887286    -1.592771715976    -0.478730096458
    C            0.177652334336    -1.409833029609    -0.740571662402

	Cleaning optimization helper files.

*** Psi4 exiting successfully. Buy a developer a beer!
