 Entering Gaussian System, Link 0=g09
 Initial command:
 /softlib/exe/x86_64/pkg/gaussian/09revB.01/dist/g09/l1.exe /zenodotus/hwlab/hwlab_store011/chs2057/Weinsteinlab/parameters/Cy3B-2/torsion-scan/Gau-2938.inp -scrdir=/zenodotus/hwlab/hwlab_store011/chs2057/Weinsteinlab/parameters/Cy3B-2/torsion-scan/
 Entering Link 1 = /softlib/exe/x86_64/pkg/gaussian/09revB.01/dist/g09/l1.exe PID=      2939.
  
 Copyright (c) 1988,1990,1992,1993,1995,1998,2003,2009,2010,
            Gaussian, Inc.  All Rights Reserved.
  
 This is part of the Gaussian(R) 09 program.  It is based on
 the Gaussian(R) 03 system (copyright 2003, Gaussian, Inc.),
 the Gaussian(R) 98 system (copyright 1998, Gaussian, Inc.),
 the Gaussian(R) 94 system (copyright 1995, Gaussian, Inc.),
 the Gaussian 92(TM) system (copyright 1992, Gaussian, Inc.),
 the Gaussian 90(TM) system (copyright 1990, Gaussian, Inc.),
 the Gaussian 88(TM) system (copyright 1988, Gaussian, Inc.),
 the Gaussian 86(TM) system (copyright 1986, Carnegie Mellon
 University), and the Gaussian 82(TM) system (copyright 1983,
 Carnegie Mellon University). Gaussian is a federally registered
 trademark of Gaussian, Inc.
  
 This software contains proprietary and confidential information,
 including trade secrets, belonging to Gaussian, Inc.
  
 This software is provided under written license and may be
 used, copied, transmitted, or stored only in accord with that
 written license.
  
 The following legend is applicable only to US Government
 contracts under FAR:
  
                    RESTRICTED RIGHTS LEGEND
  
 Use, reproduction and disclosure by the US Government is
 subject to restrictions as set forth in subparagraphs (a)
 and (c) of the Commercial Computer Software - Restricted
 Rights clause in FAR 52.227-19.
  
 Gaussian, Inc.
 340 Quinnipiac St., Bldg. 40, Wallingford CT 06492
  
  
 ---------------------------------------------------------------
 Warning -- This program may not be used in any manner that
 competes with the business of Gaussian, Inc. or will provide
 assistance to any competitor of Gaussian, Inc.  The licensee
 of this program is prohibited from giving any competitor of
 Gaussian, Inc. access to this program.  By using this program,
 the user acknowledges that Gaussian, Inc. is engaged in the
 business of creating and licensing software in the field of
 computational chemistry and represents and warrants to the
 licensee that it is not a competitor of Gaussian, Inc. and that
 it will not use this program in any manner prohibited above.
 ---------------------------------------------------------------
  

 Cite this work as:
 Gaussian 09, Revision B.01,
 M. J. Frisch, G. W. Trucks, H. B. Schlegel, G. E. Scuseria, 
 M. A. Robb, J. R. Cheeseman, G. Scalmani, V. Barone, B. Mennucci, 
 G. A. Petersson, H. Nakatsuji, M. Caricato, X. Li, H. P. Hratchian, 
 A. F. Izmaylov, J. Bloino, G. Zheng, J. L. Sonnenberg, M. Hada, 
 M. Ehara, K. Toyota, R. Fukuda, J. Hasegawa, M. Ishida, T. Nakajima, 
 Y. Honda, O. Kitao, H. Nakai, T. Vreven, J. A. Montgomery, Jr., 
 J. E. Peralta, F. Ogliaro, M. Bearpark, J. J. Heyd, E. Brothers, 
 K. N. Kudin, V. N. Staroverov, T. Keith, R. Kobayashi, J. Normand, 
 K. Raghavachari, A. Rendell, J. C. Burant, S. S. Iyengar, J. Tomasi, 
 M. Cossi, N. Rega, J. M. Millam, M. Klene, J. E. Knox, J. B. Cross, 
 V. Bakken, C. Adamo, J. Jaramillo, R. Gomperts, R. E. Stratmann, 
 O. Yazyev, A. J. Austin, R. Cammi, C. Pomelli, J. W. Ochterski, 
 R. L. Martin, K. Morokuma, V. G. Zakrzewski, G. A. Voth, 
 P. Salvador, J. J. Dannenberg, S. Dapprich, A. D. Daniels, 
 O. Farkas, J. B. Foresman, J. V. Ortiz, J. Cioslowski, 
 and D. J. Fox, Gaussian, Inc., Wallingford CT, 2010.
 
 ******************************************
 Gaussian 09:  EM64L-G09RevB.01 12-Aug-2010
                20-Mar-2015 
 ******************************************
 %chk=CY3.scan26.neg.chk
 %nproc=16
 Will use up to   16 processors via shared memory.
 %mem=50GB
 ------------------------------------------------------
 # opt=modredundant B3LYP/cc-pVDZ Geom=PrintInputOrient
 ------------------------------------------------------
 1/14=-1,18=120,19=15,26=3,38=1/1,3;
 2/9=2110,12=2,17=6,18=5,40=1/2;
 3/5=16,11=2,16=1,25=1,30=1,71=1,74=-5/1,2,3;
 4//1;
 5/5=2,38=5/2;
 6/7=2,8=2,9=2,10=2,28=1/1;
 7//1,2,3,16;
 1/14=-1,18=20,19=15/3(2);
 2/9=2110/2;
 99//99;
 2/9=2110/2;
 3/5=16,11=2,16=1,25=1,30=1,71=1,74=-5/1,2,3;
 4/5=5,16=3/1;
 5/5=2,38=5/2;
 7//1,2,3,16;
 1/14=-1,18=20,19=15/3(-5);
 2/9=2110/2;
 6/7=2,8=2,9=2,10=2,19=2,28=1/1;
 99/9=1/99;
 -------------------------------
 CY3 Dihedral Scan at MP2/6-31G*
 -------------------------------
 Symbolic Z-matrix:
 Charge =  0 Multiplicity = 1
 C1                   -6.866     1.559     0.204 
 C2                   -5.528     1.941     0.085 
 C3                   -5.112     3.284     0.118 
 C4                   -6.048     4.293     0.278 
 C5                   -7.402     3.933     0.38 
 C6                   -7.8       2.586     0.356 
 C7                   -3.608     3.311    -0.018 
 C8                   -3.256     1.847    -0.151 
 N9                   -4.381     1.124    -0.068 
 C10                  -4.424    -0.346    -0.086 
 C11                  -3.049    -0.951     0.205 
 C12                  -1.995    -0.24     -0.654 
 C13                  -1.986     1.241    -0.326 
 O14                  -0.721    -0.87     -0.623 
 C15                   0.301    -0.281     0.182 
 C16                   0.423     1.213    -0.059 
 C17                  -0.795     1.925    -0.194 
 C18                   1.599    -1.004    -0.175 
 C19                   2.807    -0.344     0.489 
 N20                   2.816     1.091     0.213 
 C21                   1.665     1.806    -0.026 
 C22                   2.039     3.264    -0.215 
 C23                   3.535     3.254     0.002 
 C24                   3.937     1.927     0.26 
 C25                   5.265     1.59      0.526 
 C26                   6.211     2.623     0.515 
 C27                   5.811     3.932     0.239 
 C28                   4.47      4.273    -0.008 
 S29                  -8.67      5.263     0.51 
 S30                   7.042     5.231     0.247 
 O31                  -8.999     5.486    -0.937 
 O32                  -9.754     4.626     1.323 
 O33                  -7.919     6.38      1.171 
 O34                   8.251     4.739     0.926 
 O35                   7.349     5.305    -1.39 
 O36                   6.413     6.52      0.61 
 H37                  -7.178     0.513     0.182 
 H38                  -5.787     5.351     0.34 
 H39                  -8.863     2.37      0.474 
 H40                  -3.111     3.758     0.858 
 H41                  -3.264     3.872    -0.903 
 H42                  -4.799    -0.66     -1.075 
 H43                  -5.165    -0.663     0.661 
 H44                  -3.071    -2.024    -0.033 
 H45                  -2.801    -0.845     1.274 
 H46                  -2.312    -0.335    -1.71 
 H47                   0.064    -0.446     1.254 
 H48                  -0.799     3.016    -0.117 
 H49                   1.709    -0.977    -1.271 
 H50                   1.544    -2.059     0.129 
 H51                   3.738    -0.78      0.099 
 H52                   2.8      -0.501     1.583 
 H53                   1.511     3.909     0.507 
 H54                   1.764     3.619    -1.222 
 H55                   5.569     0.568     0.75 
 H56                   7.26      2.42      0.729 
 H57                   4.194     5.314    -0.186 
 H58                   7.465     6.255    -1.585 
 
 The following ModRedundant input section has been read:
 D      16      21      22      23 S   2 -15.00                                

 GradGradGradGradGradGradGradGradGradGradGradGradGradGradGradGradGradGrad
 Berny optimization.
 Initialization pass.
                           ----------------------------
                           !    Initial Parameters    !
                           ! (Angstroms and Degrees)  !
 --------------------------                            --------------------------
 ! Name  Definition              Value          Derivative Info.                !
 --------------------------------------------------------------------------------
 ! R1    R(1,2)                  1.3965         estimate D2E/DX2                !
 ! R2    R(1,6)                  1.3965         estimate D2E/DX2                !
 ! R3    R(1,37)                 1.0918         estimate D2E/DX2                !
 ! R4    R(2,3)                  1.4063         estimate D2E/DX2                !
 ! R5    R(2,9)                  1.4165         estimate D2E/DX2                !
 ! R6    R(3,4)                  1.3856         estimate D2E/DX2                !
 ! R7    R(3,7)                  1.5104         estimate D2E/DX2                !
 ! R8    R(4,5)                  1.4047         estimate D2E/DX2                !
 ! R9    R(4,38)                 1.0915         estimate D2E/DX2                !
 ! R10   R(5,6)                  1.4048         estimate D2E/DX2                !
 ! R11   R(5,29)                 1.8422         estimate D2E/DX2                !
 ! R12   R(6,39)                 1.0911         estimate D2E/DX2                !
 ! R13   R(7,8)                  1.5116         estimate D2E/DX2                !
 ! R14   R(7,40)                 1.1019         estimate D2E/DX2                !
 ! R15   R(7,41)                 1.1029         estimate D2E/DX2                !
 ! R16   R(8,9)                  1.3399         estimate D2E/DX2                !
 ! R17   R(8,13)                 1.418          estimate D2E/DX2                !
 ! R18   R(9,10)                 1.4707         estimate D2E/DX2                !
 ! R19   R(10,11)                1.5301         estimate D2E/DX2                !
 ! R20   R(10,42)                1.1033         estimate D2E/DX2                !
 ! R21   R(10,43)                1.0989         estimate D2E/DX2                !
 ! R22   R(11,12)                1.5344         estimate D2E/DX2                !
 ! R23   R(11,44)                1.0993         estimate D2E/DX2                !
 ! R24   R(11,45)                1.1025         estimate D2E/DX2                !
 ! R25   R(12,13)                1.5169         estimate D2E/DX2                !
 ! R26   R(12,14)                1.4216         estimate D2E/DX2                !
 ! R27   R(12,46)                1.1066         estimate D2E/DX2                !
 ! R28   R(13,17)                1.3798         estimate D2E/DX2                !
 ! R29   R(14,15)                1.4281         estimate D2E/DX2                !
 ! R30   R(15,16)                1.5182         estimate D2E/DX2                !
 ! R31   R(15,18)                1.5281         estimate D2E/DX2                !
 ! R32   R(15,47)                1.1102         estimate D2E/DX2                !
 ! R33   R(16,17)                1.4173         estimate D2E/DX2                !
 ! R34   R(16,21)                1.3767         estimate D2E/DX2                !
 ! R35   R(17,48)                1.0937         estimate D2E/DX2                !
 ! R36   R(18,19)                1.5283         estimate D2E/DX2                !
 ! R37   R(18,49)                1.1018         estimate D2E/DX2                !
 ! R38   R(18,50)                1.0993         estimate D2E/DX2                !
 ! R39   R(19,20)                1.4613         estimate D2E/DX2                !
 ! R40   R(19,51)                1.0995         estimate D2E/DX2                !
 ! R41   R(19,52)                1.1052         estimate D2E/DX2                !
 ! R42   R(20,21)                1.3759         estimate D2E/DX2                !
 ! R43   R(20,24)                1.3992         estimate D2E/DX2                !
 ! R44   R(21,22)                1.517          estimate D2E/DX2                !
 ! R45   R(22,23)                1.5117         estimate D2E/DX2                !
 ! R46   R(22,53)                1.1028         estimate D2E/DX2                !
 ! R47   R(22,54)                1.1026         estimate D2E/DX2                !
 ! R48   R(23,24)                1.4104         estimate D2E/DX2                !
 ! R49   R(23,28)                1.383          estimate D2E/DX2                !
 ! R50   R(24,25)                1.3957         estimate D2E/DX2                !
 ! R51   R(25,26)                1.4008         estimate D2E/DX2                !
 ! R52   R(25,55)                1.0895         estimate D2E/DX2                !
 ! R53   R(26,27)                1.3963         estimate D2E/DX2                !
 ! R54   R(26,56)                1.0897         estimate D2E/DX2                !
 ! R55   R(27,28)                1.4056         estimate D2E/DX2                !
 ! R56   R(27,30)                1.7896         estimate D2E/DX2                !
 ! R57   R(28,57)                1.0916         estimate D2E/DX2                !
 ! R58   R(29,31)                1.5006         estimate D2E/DX2                !
 ! R59   R(29,32)                1.4973         estimate D2E/DX2                !
 ! R60   R(29,33)                1.4995         estimate D2E/DX2                !
 ! R61   R(30,34)                1.4713         estimate D2E/DX2                !
 ! R62   R(30,35)                1.6672         estimate D2E/DX2                !
 ! R63   R(30,36)                1.4795         estimate D2E/DX2                !
 ! R64   R(35,58)                0.9767         estimate D2E/DX2                !
 ! A1    A(2,1,6)              116.673          estimate D2E/DX2                !
 ! A2    A(2,1,37)             122.2861         estimate D2E/DX2                !
 ! A3    A(6,1,37)             121.0409         estimate D2E/DX2                !
 ! A4    A(1,2,3)              122.862          estimate D2E/DX2                !
 ! A5    A(1,2,9)              128.8461         estimate D2E/DX2                !
 ! A6    A(3,2,9)              108.2886         estimate D2E/DX2                !
 ! A7    A(2,3,4)              119.8882         estimate D2E/DX2                !
 ! A8    A(2,3,7)              108.0299         estimate D2E/DX2                !
 ! A9    A(4,3,7)              132.0722         estimate D2E/DX2                !
 ! A10   A(3,4,5)              118.2223         estimate D2E/DX2                !
 ! A11   A(3,4,38)             123.4294         estimate D2E/DX2                !
 ! A12   A(5,4,38)             118.3446         estimate D2E/DX2                !
 ! A13   A(4,5,6)              121.1699         estimate D2E/DX2                !
 ! A14   A(4,5,29)             118.9176         estimate D2E/DX2                !
 ! A15   A(6,5,29)             119.8989         estimate D2E/DX2                !
 ! A16   A(1,6,5)              121.1673         estimate D2E/DX2                !
 ! A17   A(1,6,39)             121.1827         estimate D2E/DX2                !
 ! A18   A(5,6,39)             117.6449         estimate D2E/DX2                !
 ! A19   A(3,7,8)              102.8555         estimate D2E/DX2                !
 ! A20   A(3,7,40)             112.6314         estimate D2E/DX2                !
 ! A21   A(3,7,41)             113.076          estimate D2E/DX2                !
 ! A22   A(8,7,40)             110.9656         estimate D2E/DX2                !
 ! A23   A(8,7,41)             110.4522         estimate D2E/DX2                !
 ! A24   A(40,7,41)            106.9125         estimate D2E/DX2                !
 ! A25   A(7,8,9)              108.7624         estimate D2E/DX2                !
 ! A26   A(7,8,13)             129.2959         estimate D2E/DX2                !
 ! A27   A(9,8,13)             121.9402         estimate D2E/DX2                !
 ! A28   A(2,9,8)              112.0457         estimate D2E/DX2                !
 ! A29   A(2,9,10)             123.6506         estimate D2E/DX2                !
 ! A30   A(8,9,10)             124.2722         estimate D2E/DX2                !
 ! A31   A(9,10,11)            111.5055         estimate D2E/DX2                !
 ! A32   A(9,10,42)            107.7796         estimate D2E/DX2                !
 ! A33   A(9,10,43)            107.4408         estimate D2E/DX2                !
 ! A34   A(11,10,42)           111.3071         estimate D2E/DX2                !
 ! A35   A(11,10,43)           111.2604         estimate D2E/DX2                !
 ! A36   A(42,10,43)           107.3405         estimate D2E/DX2                !
 ! A37   A(10,11,12)           109.1227         estimate D2E/DX2                !
 ! A38   A(10,11,44)           109.073          estimate D2E/DX2                !
 ! A39   A(10,11,45)           110.397          estimate D2E/DX2                !
 ! A40   A(12,11,44)           110.1718         estimate D2E/DX2                !
 ! A41   A(12,11,45)           110.1058         estimate D2E/DX2                !
 ! A42   A(44,11,45)           107.955          estimate D2E/DX2                !
 ! A43   A(11,12,13)           109.5988         estimate D2E/DX2                !
 ! A44   A(11,12,14)           113.4559         estimate D2E/DX2                !
 ! A45   A(11,12,46)           107.3176         estimate D2E/DX2                !
 ! A46   A(13,12,14)           115.0013         estimate D2E/DX2                !
 ! A47   A(13,12,46)           106.9686         estimate D2E/DX2                !
 ! A48   A(14,12,46)           103.8557         estimate D2E/DX2                !
 ! A49   A(8,13,12)            116.0154         estimate D2E/DX2                !
 ! A50   A(8,13,17)            123.3276         estimate D2E/DX2                !
 ! A51   A(12,13,17)           120.6509         estimate D2E/DX2                !
 ! A52   A(12,14,15)           118.0898         estimate D2E/DX2                !
 ! A53   A(14,15,16)           111.9556         estimate D2E/DX2                !
 ! A54   A(14,15,18)           106.3233         estimate D2E/DX2                !
 ! A55   A(14,15,47)           109.2822         estimate D2E/DX2                !
 ! A56   A(16,15,18)           111.1158         estimate D2E/DX2                !
 ! A57   A(16,15,47)           108.4621         estimate D2E/DX2                !
 ! A58   A(18,15,47)           109.6698         estimate D2E/DX2                !
 ! A59   A(15,16,17)           116.1304         estimate D2E/DX2                !
 ! A60   A(15,16,21)           119.5088         estimate D2E/DX2                !
 ! A61   A(17,16,21)           124.1387         estimate D2E/DX2                !
 ! A62   A(13,17,16)           120.1249         estimate D2E/DX2                !
 ! A63   A(13,17,48)           119.8731         estimate D2E/DX2                !
 ! A64   A(16,17,48)           119.8385         estimate D2E/DX2                !
 ! A65   A(15,18,19)           111.443          estimate D2E/DX2                !
 ! A66   A(15,18,49)           107.7942         estimate D2E/DX2                !
 ! A67   A(15,18,50)           110.3023         estimate D2E/DX2                !
 ! A68   A(19,18,49)           110.0397         estimate D2E/DX2                !
 ! A69   A(19,18,50)           109.5022         estimate D2E/DX2                !
 ! A70   A(49,18,50)           107.6731         estimate D2E/DX2                !
 ! A71   A(18,19,20)           110.2964         estimate D2E/DX2                !
 ! A72   A(18,19,51)           110.1157         estimate D2E/DX2                !
 ! A73   A(18,19,52)           111.3275         estimate D2E/DX2                !
 ! A74   A(20,19,51)           108.4927         estimate D2E/DX2                !
 ! A75   A(20,19,52)           109.0554         estimate D2E/DX2                !
 ! A76   A(51,19,52)           107.4653         estimate D2E/DX2                !
 ! A77   A(19,20,21)           122.5439         estimate D2E/DX2                !
 ! A78   A(19,20,24)           125.825          estimate D2E/DX2                !
 ! A79   A(21,20,24)           111.4419         estimate D2E/DX2                !
 ! A80   A(16,21,20)           122.3448         estimate D2E/DX2                !
 ! A81   A(16,21,22)           129.3021         estimate D2E/DX2                !
 ! A82   A(20,21,22)           108.3512         estimate D2E/DX2                !
 ! A83   A(21,22,23)           102.6935         estimate D2E/DX2                !
 ! A84   A(21,22,53)           111.2555         estimate D2E/DX2                !
 ! A85   A(21,22,54)           111.207          estimate D2E/DX2                !
 ! A86   A(23,22,53)           112.5638         estimate D2E/DX2                !
 ! A87   A(23,22,54)           112.3373         estimate D2E/DX2                !
 ! A88   A(53,22,54)           106.8712         estimate D2E/DX2                !
 ! A89   A(22,23,24)           108.3343         estimate D2E/DX2                !
 ! A90   A(22,23,28)           131.5397         estimate D2E/DX2                !
 ! A91   A(24,23,28)           120.1244         estimate D2E/DX2                !
 ! A92   A(20,24,23)           109.1272         estimate D2E/DX2                !
 ! A93   A(20,24,25)           128.6425         estimate D2E/DX2                !
 ! A94   A(23,24,25)           122.2266         estimate D2E/DX2                !
 ! A95   A(24,25,26)           117.5833         estimate D2E/DX2                !
 ! A96   A(24,25,55)           122.0844         estimate D2E/DX2                !
 ! A97   A(26,25,55)           120.3266         estimate D2E/DX2                !
 ! A98   A(25,26,27)           119.9625         estimate D2E/DX2                !
 ! A99   A(25,26,56)           120.7445         estimate D2E/DX2                !
 ! A100  A(27,26,56)           119.2907         estimate D2E/DX2                !
 ! A101  A(26,27,28)           122.3773         estimate D2E/DX2                !
 ! A102  A(26,27,30)           118.8507         estimate D2E/DX2                !
 ! A103  A(28,27,30)           118.7472         estimate D2E/DX2                !
 ! A104  A(23,28,27)           117.7097         estimate D2E/DX2                !
 ! A105  A(23,28,57)           122.2019         estimate D2E/DX2                !
 ! A106  A(27,28,57)           120.0832         estimate D2E/DX2                !
 ! A107  A(5,29,31)            100.9617         estimate D2E/DX2                !
 ! A108  A(5,29,32)            103.2672         estimate D2E/DX2                !
 ! A109  A(5,29,33)            102.9545         estimate D2E/DX2                !
 ! A110  A(31,29,32)           115.3465         estimate D2E/DX2                !
 ! A111  A(31,29,33)           115.0978         estimate D2E/DX2                !
 ! A112  A(32,29,33)           116.1133         estimate D2E/DX2                !
 ! A113  A(27,30,34)           108.9387         estimate D2E/DX2                !
 ! A114  A(27,30,35)            98.8872         estimate D2E/DX2                !
 ! A115  A(27,30,36)           109.9406         estimate D2E/DX2                !
 ! A116  A(34,30,35)           108.4614         estimate D2E/DX2                !
 ! A117  A(34,30,36)           121.8335         estimate D2E/DX2                !
 ! A118  A(35,30,36)           106.2917         estimate D2E/DX2                !
 ! A119  A(30,35,58)           105.1339         estimate D2E/DX2                !
 ! D1    D(6,1,2,3)              0.2296         estimate D2E/DX2                !
 ! D2    D(6,1,2,9)            179.4844         estimate D2E/DX2                !
 ! D3    D(37,1,2,3)          -179.6939         estimate D2E/DX2                !
 ! D4    D(37,1,2,9)            -0.4391         estimate D2E/DX2                !
 ! D5    D(2,1,6,5)              0.2993         estimate D2E/DX2                !
 ! D6    D(2,1,6,39)          -178.854          estimate D2E/DX2                !
 ! D7    D(37,1,6,5)          -179.7762         estimate D2E/DX2                !
 ! D8    D(37,1,6,39)            1.0705         estimate D2E/DX2                !
 ! D9    D(1,2,3,4)              0.1791         estimate D2E/DX2                !
 ! D10   D(1,2,3,7)            179.1772         estimate D2E/DX2                !
 ! D11   D(9,2,3,4)           -179.2097         estimate D2E/DX2                !
 ! D12   D(9,2,3,7)             -0.2116         estimate D2E/DX2                !
 ! D13   D(1,2,9,8)            179.9612         estimate D2E/DX2                !
 ! D14   D(1,2,9,10)            -2.006          estimate D2E/DX2                !
 ! D15   D(3,2,9,8)             -0.698          estimate D2E/DX2                !
 ! D16   D(3,2,9,10)           177.3348         estimate D2E/DX2                !
 ! D17   D(2,3,4,5)             -1.0892         estimate D2E/DX2                !
 ! D18   D(2,3,4,38)           178.2031         estimate D2E/DX2                !
 ! D19   D(7,3,4,5)           -179.8057         estimate D2E/DX2                !
 ! D20   D(7,3,4,38)            -0.5134         estimate D2E/DX2                !
 ! D21   D(2,3,7,8)              0.9058         estimate D2E/DX2                !
 ! D22   D(2,3,7,40)          -118.6168         estimate D2E/DX2                !
 ! D23   D(2,3,7,41)           120.0369         estimate D2E/DX2                !
 ! D24   D(4,3,7,8)            179.7356         estimate D2E/DX2                !
 ! D25   D(4,3,7,40)            60.213          estimate D2E/DX2                !
 ! D26   D(4,3,7,41)           -61.1333         estimate D2E/DX2                !
 ! D27   D(3,4,5,6)              1.6249         estimate D2E/DX2                !
 ! D28   D(3,4,5,29)          -177.03           estimate D2E/DX2                !
 ! D29   D(38,4,5,6)          -177.7041         estimate D2E/DX2                !
 ! D30   D(38,4,5,29)            3.641          estimate D2E/DX2                !
 ! D31   D(4,5,6,1)             -1.2491         estimate D2E/DX2                !
 ! D32   D(4,5,6,39)           177.9331         estimate D2E/DX2                !
 ! D33   D(29,5,6,1)           177.3927         estimate D2E/DX2                !
 ! D34   D(29,5,6,39)           -3.425          estimate D2E/DX2                !
 ! D35   D(4,5,29,31)           90.7518         estimate D2E/DX2                !
 ! D36   D(4,5,29,32)         -149.666          estimate D2E/DX2                !
 ! D37   D(4,5,29,33)          -28.45           estimate D2E/DX2                !
 ! D38   D(6,5,29,31)          -87.9206         estimate D2E/DX2                !
 ! D39   D(6,5,29,32)           31.6616         estimate D2E/DX2                !
 ! D40   D(6,5,29,33)          152.8776         estimate D2E/DX2                !
 ! D41   D(3,7,8,9)             -1.3296         estimate D2E/DX2                !
 ! D42   D(3,7,8,13)           179.1237         estimate D2E/DX2                !
 ! D43   D(40,7,8,9)           119.3425         estimate D2E/DX2                !
 ! D44   D(40,7,8,13)          -60.2043         estimate D2E/DX2                !
 ! D45   D(41,7,8,9)          -122.2726         estimate D2E/DX2                !
 ! D46   D(41,7,8,13)           58.1807         estimate D2E/DX2                !
 ! D47   D(7,8,9,2)              1.2998         estimate D2E/DX2                !
 ! D48   D(7,8,9,10)          -176.7185         estimate D2E/DX2                !
 ! D49   D(13,8,9,2)          -179.1136         estimate D2E/DX2                !
 ! D50   D(13,8,9,10)            2.8681         estimate D2E/DX2                !
 ! D51   D(7,8,13,12)         -170.2607         estimate D2E/DX2                !
 ! D52   D(7,8,13,17)           10.6376         estimate D2E/DX2                !
 ! D53   D(9,8,13,12)           10.2451         estimate D2E/DX2                !
 ! D54   D(9,8,13,17)         -168.8567         estimate D2E/DX2                !
 ! D55   D(2,9,10,11)         -160.9364         estimate D2E/DX2                !
 ! D56   D(2,9,10,42)           76.6182         estimate D2E/DX2                !
 ! D57   D(2,9,10,43)          -38.7749         estimate D2E/DX2                !
 ! D58   D(8,9,10,11)           16.857          estimate D2E/DX2                !
 ! D59   D(8,9,10,42)         -105.5885         estimate D2E/DX2                !
 ! D60   D(8,9,10,43)          139.0185         estimate D2E/DX2                !
 ! D61   D(9,10,11,12)         -47.2699         estimate D2E/DX2                !
 ! D62   D(9,10,11,44)        -167.6715         estimate D2E/DX2                !
 ! D63   D(9,10,11,45)          73.8676         estimate D2E/DX2                !
 ! D64   D(42,10,11,12)         73.1254         estimate D2E/DX2                !
 ! D65   D(42,10,11,44)        -47.2761         estimate D2E/DX2                !
 ! D66   D(42,10,11,45)       -165.737          estimate D2E/DX2                !
 ! D67   D(43,10,11,12)       -167.2026         estimate D2E/DX2                !
 ! D68   D(43,10,11,44)         72.3959         estimate D2E/DX2                !
 ! D69   D(43,10,11,45)        -46.0651         estimate D2E/DX2                !
 ! D70   D(10,11,12,13)         59.671          estimate D2E/DX2                !
 ! D71   D(10,11,12,14)       -170.273          estimate D2E/DX2                !
 ! D72   D(10,11,12,46)        -56.1477         estimate D2E/DX2                !
 ! D73   D(44,11,12,13)        179.3957         estimate D2E/DX2                !
 ! D74   D(44,11,12,14)        -50.5483         estimate D2E/DX2                !
 ! D75   D(44,11,12,46)         63.577          estimate D2E/DX2                !
 ! D76   D(45,11,12,13)        -61.6437         estimate D2E/DX2                !
 ! D77   D(45,11,12,14)         68.4123         estimate D2E/DX2                !
 ! D78   D(45,11,12,46)       -177.4625         estimate D2E/DX2                !
 ! D79   D(11,12,13,8)         -41.5681         estimate D2E/DX2                !
 ! D80   D(11,12,13,17)        137.5596         estimate D2E/DX2                !
 ! D81   D(14,12,13,8)        -170.7844         estimate D2E/DX2                !
 ! D82   D(14,12,13,17)          8.3432         estimate D2E/DX2                !
 ! D83   D(46,12,13,8)          74.4721         estimate D2E/DX2                !
 ! D84   D(46,12,13,17)       -106.4003         estimate D2E/DX2                !
 ! D85   D(11,12,14,15)       -102.8299         estimate D2E/DX2                !
 ! D86   D(13,12,14,15)         24.456          estimate D2E/DX2                !
 ! D87   D(46,12,14,15)        140.9879         estimate D2E/DX2                !
 ! D88   D(8,13,17,16)         164.6398         estimate D2E/DX2                !
 ! D89   D(8,13,17,48)         -10.7046         estimate D2E/DX2                !
 ! D90   D(12,13,17,16)        -14.4219         estimate D2E/DX2                !
 ! D91   D(12,13,17,48)        170.2337         estimate D2E/DX2                !
 ! D92   D(12,14,15,16)        -48.3677         estimate D2E/DX2                !
 ! D93   D(12,14,15,18)       -169.8879         estimate D2E/DX2                !
 ! D94   D(12,14,15,47)         71.8153         estimate D2E/DX2                !
 ! D95   D(14,15,16,17)         41.2358         estimate D2E/DX2                !
 ! D96   D(14,15,16,21)       -143.9542         estimate D2E/DX2                !
 ! D97   D(18,15,16,17)        159.9556         estimate D2E/DX2                !
 ! D98   D(18,15,16,21)        -25.2344         estimate D2E/DX2                !
 ! D99   D(47,15,16,17)        -79.4247         estimate D2E/DX2                !
 ! D100  D(47,15,16,21)         95.3853         estimate D2E/DX2                !
 ! D101  D(14,15,18,19)        172.6481         estimate D2E/DX2                !
 ! D102  D(14,15,18,49)         51.8036         estimate D2E/DX2                !
 ! D103  D(14,15,18,50)        -65.4995         estimate D2E/DX2                !
 ! D104  D(16,15,18,19)         50.5931         estimate D2E/DX2                !
 ! D105  D(16,15,18,49)        -70.2514         estimate D2E/DX2                !
 ! D106  D(16,15,18,50)        172.4455         estimate D2E/DX2                !
 ! D107  D(47,15,18,19)        -69.3111         estimate D2E/DX2                !
 ! D108  D(47,15,18,49)        169.8444         estimate D2E/DX2                !
 ! D109  D(47,15,18,50)         52.5413         estimate D2E/DX2                !
 ! D110  D(15,16,17,13)        -10.6954         estimate D2E/DX2                !
 ! D111  D(15,16,17,48)        164.6507         estimate D2E/DX2                !
 ! D112  D(21,16,17,13)        174.7625         estimate D2E/DX2                !
 ! D113  D(21,16,17,48)         -9.8915         estimate D2E/DX2                !
 ! D114  D(15,16,21,20)          0.3238         estimate D2E/DX2                !
 ! D115  D(15,16,21,22)       -179.1046         estimate D2E/DX2                !
 ! D116  D(17,16,21,20)        174.6928         estimate D2E/DX2                !
 ! D117  D(17,16,21,22)         -4.7356         estimate D2E/DX2                !
 ! D118  D(15,18,19,20)        -51.615          estimate D2E/DX2                !
 ! D119  D(15,18,19,51)       -171.3249         estimate D2E/DX2                !
 ! D120  D(15,18,19,52)         69.5889         estimate D2E/DX2                !
 ! D121  D(49,18,19,20)         67.9063         estimate D2E/DX2                !
 ! D122  D(49,18,19,51)        -51.8036         estimate D2E/DX2                !
 ! D123  D(49,18,19,52)       -170.8898         estimate D2E/DX2                !
 ! D124  D(50,18,19,20)       -173.9295         estimate D2E/DX2                !
 ! D125  D(50,18,19,51)         66.3607         estimate D2E/DX2                !
 ! D126  D(50,18,19,52)        -52.7256         estimate D2E/DX2                !
 ! D127  D(18,19,20,21)         27.881          estimate D2E/DX2                !
 ! D128  D(18,19,20,24)       -157.552          estimate D2E/DX2                !
 ! D129  D(51,19,20,21)        148.5677         estimate D2E/DX2                !
 ! D130  D(51,19,20,24)        -36.8653         estimate D2E/DX2                !
 ! D131  D(52,19,20,21)        -94.6668         estimate D2E/DX2                !
 ! D132  D(52,19,20,24)         79.9002         estimate D2E/DX2                !
 ! D133  D(19,20,21,16)         -1.8461         estimate D2E/DX2                !
 ! D134  D(19,20,21,22)        177.6879         estimate D2E/DX2                !
 ! D135  D(24,20,21,16)       -177.1152         estimate D2E/DX2                !
 ! D136  D(24,20,21,22)          2.4188         estimate D2E/DX2                !
 ! D137  D(19,20,24,23)       -176.9403         estimate D2E/DX2                !
 ! D138  D(19,20,24,25)          2.3625         estimate D2E/DX2                !
 ! D139  D(21,20,24,23)         -1.8594         estimate D2E/DX2                !
 ! D140  D(21,20,24,25)        177.4434         estimate D2E/DX2                !
 ! D141  D(16,21,22,23)        177.5301         Scan                            !
 ! D142  D(16,21,22,53)         56.8895         estimate D2E/DX2                !
 ! D143  D(16,21,22,54)        -62.1203         estimate D2E/DX2                !
 ! D144  D(20,21,22,23)         -1.9611         estimate D2E/DX2                !
 ! D145  D(20,21,22,53)       -122.6017         estimate D2E/DX2                !
 ! D146  D(20,21,22,54)        118.3885         estimate D2E/DX2                !
 ! D147  D(21,22,23,24)          0.8727         estimate D2E/DX2                !
 ! D148  D(21,22,23,28)       -178.6413         estimate D2E/DX2                !
 ! D149  D(53,22,23,24)        120.6087         estimate D2E/DX2                !
 ! D150  D(53,22,23,28)        -58.9053         estimate D2E/DX2                !
 ! D151  D(54,22,23,24)       -118.6936         estimate D2E/DX2                !
 ! D152  D(54,22,23,28)         61.7923         estimate D2E/DX2                !
 ! D153  D(22,23,24,20)          0.4914         estimate D2E/DX2                !
 ! D154  D(22,23,24,25)       -178.8649         estimate D2E/DX2                !
 ! D155  D(28,23,24,20)       -179.9291         estimate D2E/DX2                !
 ! D156  D(28,23,24,25)          0.7146         estimate D2E/DX2                !
 ! D157  D(22,23,28,27)        179.7598         estimate D2E/DX2                !
 ! D158  D(22,23,28,57)          0.5858         estimate D2E/DX2                !
 ! D159  D(24,23,28,27)          0.2932         estimate D2E/DX2                !
 ! D160  D(24,23,28,57)       -178.8809         estimate D2E/DX2                !
 ! D161  D(20,24,25,26)       -179.9446         estimate D2E/DX2                !
 ! D162  D(20,24,25,55)         -0.8112         estimate D2E/DX2                !
 ! D163  D(23,24,25,26)         -0.7232         estimate D2E/DX2                !
 ! D164  D(23,24,25,55)        178.4102         estimate D2E/DX2                !
 ! D165  D(24,25,26,27)         -0.2643         estimate D2E/DX2                !
 ! D166  D(24,25,26,56)        179.1741         estimate D2E/DX2                !
 ! D167  D(55,25,26,27)       -179.4137         estimate D2E/DX2                !
 ! D168  D(55,25,26,56)          0.0247         estimate D2E/DX2                !
 ! D169  D(25,26,27,28)          1.2999         estimate D2E/DX2                !
 ! D170  D(25,26,27,30)        179.464          estimate D2E/DX2                !
 ! D171  D(56,26,27,28)       -178.1467         estimate D2E/DX2                !
 ! D172  D(56,26,27,30)          0.0174         estimate D2E/DX2                !
 ! D173  D(26,27,28,23)         -1.2981         estimate D2E/DX2                !
 ! D174  D(26,27,28,57)        177.8942         estimate D2E/DX2                !
 ! D175  D(30,27,28,23)       -179.4639         estimate D2E/DX2                !
 ! D176  D(30,27,28,57)         -0.2716         estimate D2E/DX2                !
 ! D177  D(26,27,30,34)        -15.9148         estimate D2E/DX2                !
 ! D178  D(26,27,30,35)         97.1961         estimate D2E/DX2                !
 ! D179  D(26,27,30,36)       -151.779          estimate D2E/DX2                !
 ! D180  D(28,27,30,34)        162.3167         estimate D2E/DX2                !
 ! D181  D(28,27,30,35)        -84.5724         estimate D2E/DX2                !
 ! D182  D(28,27,30,36)         26.4525         estimate D2E/DX2                !
 ! D183  D(27,30,35,58)        141.5054         estimate D2E/DX2                !
 ! D184  D(34,30,35,58)       -105.0085         estimate D2E/DX2                !
 ! D185  D(36,30,35,58)         27.5935         estimate D2E/DX2                !
 --------------------------------------------------------------------------------
 Trust Radius=3.00D-01 FncErr=1.00D-07 GrdErr=1.00D-06
 Number of optimizations in scan=   3
 Number of steps in this run=    348 maximum allowed number of steps=    348.
 GradGradGradGradGradGradGradGradGradGradGradGradGradGradGradGradGradGrad

                          Input orientation:                          
 ---------------------------------------------------------------------
 Center     Atomic      Atomic             Coordinates (Angstroms)
 Number     Number       Type             X           Y           Z
 ---------------------------------------------------------------------
      1          6           0       -6.866000    1.559000    0.204000
      2          6           0       -5.528000    1.941000    0.085000
      3          6           0       -5.112000    3.284000    0.118000
      4          6           0       -6.048000    4.293000    0.278000
      5          6           0       -7.402000    3.933000    0.380000
      6          6           0       -7.800000    2.586000    0.356000
      7          6           0       -3.608000    3.311000   -0.018000
      8          6           0       -3.256000    1.847000   -0.151000
      9          7           0       -4.381000    1.124000   -0.068000
     10          6           0       -4.424000   -0.346000   -0.086000
     11          6           0       -3.049000   -0.951000    0.205000
     12          6           0       -1.995000   -0.240000   -0.654000
     13          6           0       -1.986000    1.241000   -0.326000
     14          8           0       -0.721000   -0.870000   -0.623000
     15          6           0        0.301000   -0.281000    0.182000
     16          6           0        0.423000    1.213000   -0.059000
     17          6           0       -0.795000    1.925000   -0.194000
     18          6           0        1.599000   -1.004000   -0.175000
     19          6           0        2.807000   -0.344000    0.489000
     20          7           0        2.816000    1.091000    0.213000
     21          6           0        1.665000    1.806000   -0.026000
     22          6           0        2.039000    3.264000   -0.215000
     23          6           0        3.535000    3.254000    0.002000
     24          6           0        3.937000    1.927000    0.260000
     25          6           0        5.265000    1.590000    0.526000
     26          6           0        6.211000    2.623000    0.515000
     27          6           0        5.811000    3.932000    0.239000
     28          6           0        4.470000    4.273000   -0.008000
     29         16           0       -8.670000    5.263000    0.510000
     30         16           0        7.042000    5.231000    0.247000
     31          8           0       -8.999000    5.486000   -0.937000
     32          8           0       -9.754000    4.626000    1.323000
     33          8           0       -7.919000    6.380000    1.171000
     34          8           0        8.251000    4.739000    0.926000
     35          8           0        7.349000    5.305000   -1.390000
     36          8           0        6.413000    6.520000    0.610000
     37          1           0       -7.178000    0.513000    0.182000
     38          1           0       -5.787000    5.351000    0.340000
     39          1           0       -8.863000    2.370000    0.474000
     40          1           0       -3.111000    3.758000    0.858000
     41          1           0       -3.264000    3.872000   -0.903000
     42          1           0       -4.799000   -0.660000   -1.075000
     43          1           0       -5.165000   -0.663000    0.661000
     44          1           0       -3.071000   -2.024000   -0.033000
     45          1           0       -2.801000   -0.845000    1.274000
     46          1           0       -2.312000   -0.335000   -1.710000
     47          1           0        0.064000   -0.446000    1.254000
     48          1           0       -0.799000    3.016000   -0.117000
     49          1           0        1.709000   -0.977000   -1.271000
     50          1           0        1.544000   -2.059000    0.129000
     51          1           0        3.738000   -0.780000    0.099000
     52          1           0        2.800000   -0.501000    1.583000
     53          1           0        1.511000    3.909000    0.507000
     54          1           0        1.764000    3.619000   -1.222000
     55          1           0        5.569000    0.568000    0.750000
     56          1           0        7.260000    2.420000    0.729000
     57          1           0        4.194000    5.314000   -0.186000
     58          1           0        7.465000    6.255000   -1.585000
 ---------------------------------------------------------------------
 Stoichiometry    C25H22N2O7S2
 Framework group  C1[X(C25H22N2O7S2)]
 Deg. of freedom   168
 Full point group                 C1      NOp   1
 Largest Abelian subgroup         C1      NOp   1
 Largest concise Abelian subgroup C1      NOp   1
                         Standard orientation:                         
 ---------------------------------------------------------------------
 Center     Atomic      Atomic             Coordinates (Angstroms)
 Number     Number       Type             X           Y           Z
 ---------------------------------------------------------------------
      1          6           0       -6.109895    1.163797   -0.074480
      2          6           0       -4.769264    0.793053    0.050364
      3          6           0       -4.349127   -0.548441    0.091263
      4          6           0       -5.283552   -1.567615    0.002326
      5          6           0       -6.639902   -1.217876   -0.104059
      6          6           0       -7.042163    0.127130   -0.154397
      7          6           0       -2.843511   -0.563356    0.210176
      8          6           0       -2.494913    0.906873    0.252574
      9          7           0       -3.623287    1.620715    0.141013
     10          6           0       -3.671066    3.089108    0.073106
     11          6           0       -2.301746    3.679638   -0.269777
     12          6           0       -1.235039    3.023223    0.616549
     13          6           0       -1.224962    1.525525    0.376079
     14          8           0        0.036343    3.653729    0.532965
     15          6           0        1.050547    3.021151   -0.248486
     16          6           0        1.180530    1.544244    0.078397
     17          6           0       -0.033322    0.838148    0.269927
     18          6           0        2.350296    3.767380    0.049471
     19          6           0        3.552429    3.072717   -0.589341
     20          7           0        3.569642    1.656463   -0.229604
     21          6           0        2.424051    0.953668    0.065093
     22          6           0        2.805263   -0.489682    0.334866
     23          6           0        4.298492   -0.488444    0.099339
     24          6           0        4.692831    0.822160   -0.241118
     25          6           0        6.016368    1.146498   -0.542718
     26          6           0        6.965940    0.118478   -0.482612
     27          6           0        6.573757   -1.173093   -0.125270
     28          6           0        5.237005   -1.502576    0.157758
     29         16           0       -7.904847   -2.556620   -0.140114
     30         16           0        7.808983   -2.467004   -0.071989
     31          8           0       -8.215592   -2.695014    1.321414
     32          8           0       -9.000745   -1.971452   -0.975806
     33          8           0       -7.158087   -3.708541   -0.743470
     34          8           0        9.008016   -2.012544   -0.793496
     35          8           0        8.135975   -2.443772    1.562646
     36          8           0        7.180035   -3.776807   -0.350863
     37          1           0       -6.425163    2.208439   -0.110177
     38          1           0       -5.019722   -2.626725   -0.000574
     39          1           0       -8.107239    0.332961   -0.271855
     40          1           0       -2.355606   -1.059766   -0.644060
     41          1           0       -2.486944   -1.070408    1.122339
     42          1           0       -4.035164    3.459723    1.046461
     43          1           0       -4.422106    3.359634   -0.682099
     44          1           0       -2.324521    4.764715   -0.095004
     45          1           0       -2.066312    3.511616   -1.333657
     46          1           0       -1.539587    3.179314    1.668944
     47          1           0        0.800061    3.122180   -1.325346
     48          1           0       -0.034540   -0.255499    0.257240
     49          1           0        2.473612    3.805182    1.143732
     50          1           0        2.288041    4.802523   -0.315317
     51          1           0        4.486581    3.533399   -0.237078
     52          1           0        3.531686    3.165084   -1.690509
     53          1           0        2.270782   -1.177445   -0.341451
     54          1           0        2.543651   -0.785580    1.364285
     55          1           0        6.314162    2.154368   -0.830108
     56          1           0        8.011584    0.311358   -0.721011
     57          1           0        4.966717   -2.532043    0.400005
     58          1           0        8.257553   -3.380345    1.811711
 ---------------------------------------------------------------------
 Rotational constants (GHZ):      0.1787157      0.0299184      0.0260352
 Standard basis: CC-pVDZ (5D, 7F)
 There are   622 symmetry adapted basis functions of A   symmetry.
 Integral buffers will be    131072 words long.
 Raffenetti 2 integral format.
 Two-electron integral symmetry is turned on.
   622 basis functions,  1418 primitive gaussians,   658 cartesian basis functions
   137 alpha electrons      137 beta electrons
       nuclear repulsion energy      3958.3699132388 Hartrees.
 NAtoms=   58 NActive=   58 NUniq=   58 SFac= 1.00D+00 NAtFMM=   50 NAOKFM=T Big=T
 One-electron integrals computed using PRISM.
 NBasis=   622 RedAO= T  NBF=   622
 NBsUse=   622 1.00D-06 NBFU=   622
 Harris functional with IExCor=  402 diagonalized for initial guess.
 ExpMin= 1.22D-01 ExpMax= 1.11D+05 ExpMxC= 1.07D+03 IAcc=2 IRadAn=         0 AccDes= 0.00D+00
 HarFok:  IExCor=  402 AccDes= 0.00D+00 IRadAn=         0 IDoV= 1
 ScaDFX=  1.000000  1.000000  1.000000  1.000000
 FoFCou: FMM=F IPFlag=           0 FMFlag=      100000 FMFlg1=        2001
         NFxFlg=           0 DoJE=T BraDBF=F KetDBF=T FulRan=T
         Omega=  0.000000  0.000000  1.000000  0.000000  0.000000 ICntrl=     500 IOpCl=  0
         NMat0=    1 NMatS0=    1 NMatT0=    0 NMatD0=    1 NMtDS0=    0 NMtDT0=    0
         I1Cent=           4 NGrid=           0.
 Petite list used in FoFCou.
 Initial guess orbital symmetries:
       Occupied  (A) (A) (A) (A) (A) (A) (A) (A) (A) (A) (A) (A)
                 (A) (A) (A) (A) (A) (A) (A) (A) (A) (A) (A) (A)
                 (A) (A) (A) (A) (A) (A) (A) (A) (A) (A) (A) (A)
                 (A) (A) (A) (A) (A) (A) (A) (A) (A) (A) (A) (A)
                 (A) (A) (A) (A) (A) (A) (A) (A) (A) (A) (A) (A)
                 (A) (A) (A) (A) (A) (A) (A) (A) (A) (A) (A) (A)
                 (A) (A) (A) (A) (A) (A) (A) (A) (A) (A) (A) (A)
                 (A) (A) (A) (A) (A) (A) (A) (A) (A) (A) (A) (A)
                 (A) (A) (A) (A) (A) (A) (A) (A) (A) (A) (A) (A)
                 (A) (A) (A) (A) (A) (A) (A) (A) (A) (A) (A) (A)
                 (A) (A) (A) (A) (A) (A) (A) (A) (A) (A) (A) (A)
                 (A) (A) (A) (A) (A)
       Virtual   (A) (A) (A) (A) (A) (A) (A) (A) (A) (A) (A) (A)
                 (A) (A) (A) (A) (A) (A) (A) (A) (A) (A) (A) (A)
                 (A) (A) (A) (A) (A) (A) (A) (A) (A) (A) (A) (A)
                 (A) (A) (A) (A) (A) (A) (A) (A) (A) (A) (A) (A)
                 (A) (A) (A) (A) (A) (A) (A) (A) (A) (A) (A) (A)
                 (A) (A) (A) (A) (A) (A) (A) (A) (A) (A) (A) (A)
                 (A) (A) (A) (A) (A) (A) (A) (A) (A) (A) (A) (A)
                 (A) (A) (A) (A) (A) (A) (A) (A) (A) (A) (A) (A)
                 (A) (A) (A) (A) (A) (A) (A) (A) (A) (A) (A) (A)
                 (A) (A) (A) (A) (A) (A) (A) (A) (A) (A) (A) (A)
                 (A) (A) (A) (A) (A) (A) (A) (A) (A) (A) (A) (A)
                 (A) (A) (A) (A) (A) (A) (A) (A) (A) (A) (A) (A)
                 (A) (A) (A) (A) (A) (A) (A) (A) (A) (A) (A) (A)
                 (A) (A) (A) (A) (A) (A) (A) (A) (A) (A) (A) (A)
                 (A) (A) (A) (A) (A) (A) (A) (A) (A) (A) (A) (A)
                 (A) (A) (A) (A) (A) (A) (A) (A) (A) (A) (A) (A)
                 (A) (A) (A) (A) (A) (A) (A) (A) (A) (A) (A) (A)
                 (A) (A) (A) (A) (A) (A) (A) (A) (A) (A) (A) (A)
                 (A) (A) (A) (A) (A) (A) (A) (A) (A) (A) (A) (A)
                 (A) (A) (A) (A) (A) (A) (A) (A) (A) (A) (A) (A)
                 (A) (A) (A) (A) (A) (A) (A) (A) (A) (A) (A) (A)
                 (A) (A) (A) (A) (A) (A) (A) (A) (A) (A) (A) (A)
                 (A) (A) (A) (A) (A) (A) (A) (A) (A) (A) (A) (A)
                 (A) (A) (A) (A) (A) (A) (A) (A) (A) (A) (A) (A)
                 (A) (A) (A) (A) (A) (A) (A) (A) (A) (A) (A) (A)
                 (A) (A) (A) (A) (A) (A) (A) (A) (A) (A) (A) (A)
                 (A) (A) (A) (A) (A) (A) (A) (A) (A) (A) (A) (A)
                 (A) (A) (A) (A) (A) (A) (A) (A) (A) (A) (A) (A)
                 (A) (A) (A) (A) (A) (A) (A) (A) (A) (A) (A) (A)
                 (A) (A) (A) (A) (A) (A) (A) (A) (A) (A) (A) (A)
                 (A) (A) (A) (A) (A) (A) (A) (A) (A) (A) (A) (A)
                 (A) (A) (A) (A) (A) (A) (A) (A) (A) (A) (A) (A)
                 (A) (A) (A) (A) (A) (A) (A) (A) (A) (A) (A) (A)
                 (A) (A) (A) (A) (A) (A) (A) (A) (A) (A) (A) (A)
                 (A) (A) (A) (A) (A) (A) (A) (A) (A) (A) (A) (A)
                 (A) (A) (A) (A) (A) (A) (A) (A) (A) (A) (A) (A)
                 (A) (A) (A) (A) (A) (A) (A) (A) (A) (A) (A) (A)
                 (A) (A) (A) (A) (A) (A) (A) (A) (A) (A) (A) (A)
                 (A) (A) (A) (A) (A) (A) (A) (A) (A) (A) (A) (A)
                 (A) (A) (A) (A) (A) (A) (A) (A) (A) (A) (A) (A)
                 (A) (A) (A) (A) (A)
 The electronic state of the initial guess is 1-A.
 Requested convergence on RMS density matrix=1.00D-08 within 128 cycles.
 Requested convergence on MAX density matrix=1.00D-06.
 Requested convergence on             energy=1.00D-06.
 No special actions if energy rises.
 Integral accuracy reduced to 1.0D-05 until final iterations.
 EnCoef did     4 forward-backward iterations
 EnCoef did     6 forward-backward iterations
 EnCoef did     1 forward-backward iterations
 Initial convergence to 1.0D-05 achieved.  Increase integral accuracy.
 SCF Done:  E(RB3LYP) =  -2398.26711824     A.U. after   22 cycles
             Convg  =    0.9583D-08             -V/T =  2.0051

 **********************************************************************

            Population analysis using the SCF density.

 **********************************************************************

 Orbital symmetries:
       Occupied  (A) (A) (A) (A) (A) (A) (A) (A) (A) (A) (A) (A)
                 (A) (A) (A) (A) (A) (A) (A) (A) (A) (A) (A) (A)
                 (A) (A) (A) (A) (A) (A) (A) (A) (A) (A) (A) (A)
                 (A) (A) (A) (A) (A) (A) (A) (A) (A) (A) (A) (A)
                 (A) (A) (A) (A) (A) (A) (A) (A) (A) (A) (A) (A)
                 (A) (A) (A) (A) (A) (A) (A) (A) (A) (A) (A) (A)
                 (A) (A) (A) (A) (A) (A) (A) (A) (A) (A) (A) (A)
                 (A) (A) (A) (A) (A) (A) (A) (A) (A) (A) (A) (A)
                 (A) (A) (A) (A) (A) (A) (A) (A) (A) (A) (A) (A)
                 (A) (A) (A) (A) (A) (A) (A) (A) (A) (A) (A) (A)
                 (A) (A) (A) (A) (A) (A) (A) (A) (A) (A) (A) (A)
                 (A) (A) (A) (A) (A)
       Virtual   (A) (A) (A) (A) (A) (A) (A) (A) (A) (A) (A) (A)
                 (A) (A) (A) (A) (A) (A) (A) (A) (A) (A) (A) (A)
                 (A) (A) (A) (A) (A) (A) (A) (A) (A) (A) (A) (A)
                 (A) (A) (A) (A) (A) (A) (A) (A) (A) (A) (A) (A)
                 (A) (A) (A) (A) (A) (A) (A) (A) (A) (A) (A) (A)
                 (A) (A) (A) (A) (A) (A) (A) (A) (A) (A) (A) (A)
                 (A) (A) (A) (A) (A) (A) (A) (A) (A) (A) (A) (A)
                 (A) (A) (A) (A) (A) (A) (A) (A) (A) (A) (A) (A)
                 (A) (A) (A) (A) (A) (A) (A) (A) (A) (A) (A) (A)
                 (A) (A) (A) (A) (A) (A) (A) (A) (A) (A) (A) (A)
                 (A) (A) (A) (A) (A) (A) (A) (A) (A) (A) (A) (A)
                 (A) (A) (A) (A) (A) (A) (A) (A) (A) (A) (A) (A)
                 (A) (A) (A) (A) (A) (A) (A) (A) (A) (A) (A) (A)
                 (A) (A) (A) (A) (A) (A) (A) (A) (A) (A) (A) (A)
                 (A) (A) (A) (A) (A) (A) (A) (A) (A) (A) (A) (A)
                 (A) (A) (A) (A) (A) (A) (A) (A) (A) (A) (A) (A)
                 (A) (A) (A) (A) (A) (A) (A) (A) (A) (A) (A) (A)
                 (A) (A) (A) (A) (A) (A) (A) (A) (A) (A) (A) (A)
                 (A) (A) (A) (A) (A) (A) (A) (A) (A) (A) (A) (A)
                 (A) (A) (A) (A) (A) (A) (A) (A) (A) (A) (A) (A)
                 (A) (A) (A) (A) (A) (A) (A) (A) (A) (A) (A) (A)
                 (A) (A) (A) (A) (A) (A) (A) (A) (A) (A) (A) (A)
                 (A) (A) (A) (A) (A) (A) (A) (A) (A) (A) (A) (A)
                 (A) (A) (A) (A) (A) (A) (A) (A) (A) (A) (A) (A)
                 (A) (A) (A) (A) (A) (A) (A) (A) (A) (A) (A) (A)
                 (A) (A) (A) (A) (A) (A) (A) (A) (A) (A) (A) (A)
                 (A) (A) (A) (A) (A) (A) (A) (A) (A) (A) (A) (A)
                 (A) (A) (A) (A) (A) (A) (A) (A) (A) (A) (A) (A)
                 (A) (A) (A) (A) (A) (A) (A) (A) (A) (A) (A) (A)
                 (A) (A) (A) (A) (A) (A) (A) (A) (A) (A) (A) (A)
                 (A) (A) (A) (A) (A) (A) (A) (A) (A) (A) (A) (A)
                 (A) (A) (A) (A) (A) (A) (A) (A) (A) (A) (A) (A)
                 (A) (A) (A) (A) (A) (A) (A) (A) (A) (A) (A) (A)
                 (A) (A) (A) (A) (A) (A) (A) (A) (A) (A) (A) (A)
                 (A) (A) (A) (A) (A) (A) (A) (A) (A) (A) (A) (A)
                 (A) (A) (A) (A) (A) (A) (A) (A) (A) (A) (A) (A)
                 (A) (A) (A) (A) (A) (A) (A) (A) (A) (A) (A) (A)
                 (A) (A) (A) (A) (A) (A) (A) (A) (A) (A) (A) (A)
                 (A) (A) (A) (A) (A) (A) (A) (A) (A) (A) (A) (A)
                 (A) (A) (A) (A) (A) (A) (A) (A) (A) (A) (A) (A)
                 (A) (A) (A) (A) (A)
 The electronic state is 1-A.
 Alpha  occ. eigenvalues --  -89.14950 -89.01753 -19.21112 -19.19723 -19.16656
 Alpha  occ. eigenvalues --  -19.16586 -19.02815 -19.02798 -19.02711 -14.45949
 Alpha  occ. eigenvalues --  -14.44610 -10.30983 -10.30773 -10.30000 -10.29949
 Alpha  occ. eigenvalues --  -10.29555 -10.29514 -10.29255 -10.27027 -10.26548
 Alpha  occ. eigenvalues --  -10.26489 -10.25953 -10.25798 -10.25608 -10.25447
 Alpha  occ. eigenvalues --  -10.25422 -10.25369 -10.25353 -10.24943 -10.24876
 Alpha  occ. eigenvalues --  -10.24571 -10.22206 -10.21477 -10.19611 -10.19382
 Alpha  occ. eigenvalues --  -10.18921  -8.18112  -8.04589  -6.14536  -6.14380
 Alpha  occ. eigenvalues --   -6.14241  -6.00919  -6.00892  -6.00883  -1.15785
 Alpha  occ. eigenvalues --   -1.09487  -1.06147  -1.06036  -1.05272  -1.03071
 Alpha  occ. eigenvalues --   -1.01664  -0.92539  -0.89728  -0.89030  -0.88414
 Alpha  occ. eigenvalues --   -0.88120  -0.87739  -0.86831  -0.85200  -0.82508
 Alpha  occ. eigenvalues --   -0.81594  -0.80085  -0.77645  -0.77076  -0.75002
 Alpha  occ. eigenvalues --   -0.74402  -0.73318  -0.71314  -0.68520  -0.68011
 Alpha  occ. eigenvalues --   -0.66464  -0.65260  -0.64688  -0.62522  -0.61644
 Alpha  occ. eigenvalues --   -0.59942  -0.58704  -0.58028  -0.57690  -0.57107
 Alpha  occ. eigenvalues --   -0.55929  -0.55091  -0.54538  -0.54183  -0.53221
 Alpha  occ. eigenvalues --   -0.52542  -0.52464  -0.51353  -0.50858  -0.50141
 Alpha  occ. eigenvalues --   -0.49704  -0.49243  -0.48715  -0.48426  -0.47796
 Alpha  occ. eigenvalues --   -0.47761  -0.46759  -0.46361  -0.45916  -0.45725
 Alpha  occ. eigenvalues --   -0.45189  -0.44789  -0.44615  -0.44264  -0.43957
 Alpha  occ. eigenvalues --   -0.43297  -0.43042  -0.42331  -0.41587  -0.40656
 Alpha  occ. eigenvalues --   -0.40083  -0.39991  -0.39384  -0.38886  -0.38350
 Alpha  occ. eigenvalues --   -0.38083  -0.36792  -0.36355  -0.36190  -0.35902
 Alpha  occ. eigenvalues --   -0.34848  -0.34727  -0.34133  -0.34132  -0.32066
 Alpha  occ. eigenvalues --   -0.31406  -0.31348  -0.30620  -0.27132  -0.26735
 Alpha  occ. eigenvalues --   -0.23971  -0.23688  -0.23529  -0.20900  -0.20645
 Alpha  occ. eigenvalues --   -0.19678  -0.16520
 Alpha virt. eigenvalues --   -0.13666  -0.07445  -0.07188  -0.04601  -0.02106
 Alpha virt. eigenvalues --   -0.00561  -0.00005   0.00264   0.00835   0.00990
 Alpha virt. eigenvalues --    0.02065   0.03005   0.03901   0.03989   0.04886
 Alpha virt. eigenvalues --    0.05143   0.05603   0.05843   0.06685   0.06848
 Alpha virt. eigenvalues --    0.07201   0.07420   0.08129   0.08433   0.08510
 Alpha virt. eigenvalues --    0.08901   0.09287   0.09459   0.09972   0.10024
 Alpha virt. eigenvalues --    0.10427   0.10964   0.11558   0.11783   0.12136
 Alpha virt. eigenvalues --    0.12463   0.12905   0.13510   0.14607   0.14932
 Alpha virt. eigenvalues --    0.15412   0.15939   0.16177   0.16998   0.17683
 Alpha virt. eigenvalues --    0.17765   0.18495   0.19354   0.19998   0.20770
 Alpha virt. eigenvalues --    0.21454   0.22761   0.23800   0.24212   0.24598
 Alpha virt. eigenvalues --    0.26487   0.27427   0.27470   0.27853   0.28501
 Alpha virt. eigenvalues --    0.29320   0.29881   0.31237   0.31685   0.32933
 Alpha virt. eigenvalues --    0.33547   0.34405   0.34606   0.35477   0.36381
 Alpha virt. eigenvalues --    0.37295   0.37785   0.38341   0.38707   0.39067
 Alpha virt. eigenvalues --    0.39772   0.40303   0.40413   0.40872   0.41034
 Alpha virt. eigenvalues --    0.41490   0.41809   0.42183   0.42848   0.42980
 Alpha virt. eigenvalues --    0.43470   0.43589   0.44333   0.44527   0.45258
 Alpha virt. eigenvalues --    0.45607   0.45907   0.46161   0.46693   0.47220
 Alpha virt. eigenvalues --    0.47669   0.48177   0.48577   0.48892   0.49175
 Alpha virt. eigenvalues --    0.49849   0.49898   0.50246   0.50735   0.51017
 Alpha virt. eigenvalues --    0.51504   0.52051   0.52318   0.52597   0.52928
 Alpha virt. eigenvalues --    0.53475   0.54123   0.54496   0.54847   0.55584
 Alpha virt. eigenvalues --    0.55739   0.56390   0.56533   0.56804   0.57322
 Alpha virt. eigenvalues --    0.57444   0.57782   0.58054   0.58302   0.58725
 Alpha virt. eigenvalues --    0.59091   0.59415   0.59971   0.60130   0.60557
 Alpha virt. eigenvalues --    0.61080   0.61245   0.61374   0.62171   0.62482
 Alpha virt. eigenvalues --    0.62693   0.62916   0.63332   0.63673   0.63795
 Alpha virt. eigenvalues --    0.64063   0.65035   0.65099   0.65250   0.65801
 Alpha virt. eigenvalues --    0.66088   0.66705   0.67353   0.67674   0.68460
 Alpha virt. eigenvalues --    0.68877   0.69234   0.69495   0.69604   0.70263
 Alpha virt. eigenvalues --    0.70934   0.72764   0.73036   0.73906   0.74746
 Alpha virt. eigenvalues --    0.75963   0.77114   0.77801   0.78316   0.79121
 Alpha virt. eigenvalues --    0.79548   0.80913   0.81735   0.82161   0.82781
 Alpha virt. eigenvalues --    0.83214   0.83905   0.84548   0.84892   0.85352
 Alpha virt. eigenvalues --    0.86021   0.86164   0.86613   0.87294   0.87818
 Alpha virt. eigenvalues --    0.88345   0.89099   0.89148   0.89386   0.91073
 Alpha virt. eigenvalues --    0.91649   0.92006   0.92937   0.93271   0.93395
 Alpha virt. eigenvalues --    0.93960   0.94531   0.95099   0.95525   0.95985
 Alpha virt. eigenvalues --    0.96489   0.96978   0.98295   0.98580   0.99173
 Alpha virt. eigenvalues --    0.99282   1.00614   1.00750   1.00936   1.01991
 Alpha virt. eigenvalues --    1.02770   1.03971   1.04642   1.04829   1.05647
 Alpha virt. eigenvalues --    1.06519   1.07001   1.07474   1.08238   1.08791
 Alpha virt. eigenvalues --    1.09037   1.10324   1.10594   1.11385   1.11691
 Alpha virt. eigenvalues --    1.13230   1.13878   1.13952   1.14477   1.14817
 Alpha virt. eigenvalues --    1.15668   1.16169   1.16386   1.16643   1.16891
 Alpha virt. eigenvalues --    1.17433   1.19285   1.20021   1.20305   1.20788
 Alpha virt. eigenvalues --    1.21149   1.21333   1.22207   1.22790   1.23378
 Alpha virt. eigenvalues --    1.24370   1.25155   1.25756   1.25905   1.26568
 Alpha virt. eigenvalues --    1.27330   1.28778   1.29141   1.29332   1.30855
 Alpha virt. eigenvalues --    1.31910   1.32444   1.33176   1.33829   1.34190
 Alpha virt. eigenvalues --    1.34306   1.35473   1.36270   1.36864   1.36969
 Alpha virt. eigenvalues --    1.37750   1.38905   1.39554   1.40475   1.41139
 Alpha virt. eigenvalues --    1.41961   1.42372   1.42745   1.43816   1.44665
 Alpha virt. eigenvalues --    1.45146   1.45295   1.46278   1.47616   1.48170
 Alpha virt. eigenvalues --    1.48651   1.49398   1.49767   1.50029   1.50572
 Alpha virt. eigenvalues --    1.51447   1.52049   1.52499   1.52742   1.53214
 Alpha virt. eigenvalues --    1.53601   1.54174   1.54906   1.55451   1.55773
 Alpha virt. eigenvalues --    1.57021   1.57339   1.58178   1.58789   1.59743
 Alpha virt. eigenvalues --    1.59826   1.60606   1.60783   1.61320   1.61483
 Alpha virt. eigenvalues --    1.62148   1.62808   1.63160   1.63948   1.64152
 Alpha virt. eigenvalues --    1.64914   1.65634   1.65868   1.66158   1.66289
 Alpha virt. eigenvalues --    1.67112   1.67170   1.67584   1.68220   1.68478
 Alpha virt. eigenvalues --    1.69631   1.70105   1.70926   1.71629   1.71826
 Alpha virt. eigenvalues --    1.71863   1.72338   1.73461   1.73704   1.74066
 Alpha virt. eigenvalues --    1.74991   1.75176   1.75959   1.76399   1.76838
 Alpha virt. eigenvalues --    1.76969   1.77216   1.77739   1.78061   1.78373
 Alpha virt. eigenvalues --    1.79523   1.79669   1.80781   1.82032   1.82656
 Alpha virt. eigenvalues --    1.83320   1.83941   1.84462   1.84584   1.85199
 Alpha virt. eigenvalues --    1.86762   1.87478   1.87768   1.88477   1.89089
 Alpha virt. eigenvalues --    1.89585   1.90118   1.90599   1.91131   1.92254
 Alpha virt. eigenvalues --    1.92611   1.93545   1.94429   1.95244   1.96039
 Alpha virt. eigenvalues --    1.96601   1.97929   1.98753   1.99928   2.00576
 Alpha virt. eigenvalues --    2.01036   2.01415   2.01587   2.02384   2.02589
 Alpha virt. eigenvalues --    2.03867   2.04194   2.05010   2.05263   2.05678
 Alpha virt. eigenvalues --    2.06206   2.07281   2.07683   2.08358   2.09018
 Alpha virt. eigenvalues --    2.10257   2.10588   2.11540   2.12652   2.13183
 Alpha virt. eigenvalues --    2.13385   2.13657   2.14485   2.15486   2.16164
 Alpha virt. eigenvalues --    2.16526   2.17029   2.17817   2.18945   2.20256
 Alpha virt. eigenvalues --    2.22368   2.23423   2.23751   2.25032   2.26560
 Alpha virt. eigenvalues --    2.26773   2.27667   2.29779   2.30400   2.31369
 Alpha virt. eigenvalues --    2.32706   2.33698   2.35450   2.36651   2.36960
 Alpha virt. eigenvalues --    2.37511   2.39507   2.39658   2.41033   2.41895
 Alpha virt. eigenvalues --    2.42722   2.43608   2.45172   2.47705   2.48394
 Alpha virt. eigenvalues --    2.48884   2.49644   2.51646   2.52258   2.52960
 Alpha virt. eigenvalues --    2.53964   2.54783   2.55133   2.55910   2.56325
 Alpha virt. eigenvalues --    2.57458   2.58292   2.58785   2.59326   2.59669
 Alpha virt. eigenvalues --    2.60022   2.60288   2.61584   2.61614   2.62420
 Alpha virt. eigenvalues --    2.63055   2.63646   2.64584   2.67840   2.70158
 Alpha virt. eigenvalues --    2.70404   2.70607   2.70801   2.72196   2.73268
 Alpha virt. eigenvalues --    2.74681   2.75500   2.76258   2.77018   2.77917
 Alpha virt. eigenvalues --    2.79558   2.81349   2.82990   2.84018   2.85795
 Alpha virt. eigenvalues --    2.86408   2.87706   2.88543   2.89502   2.91343
 Alpha virt. eigenvalues --    2.95015   2.95600   2.96899   2.97904   2.99418
 Alpha virt. eigenvalues --    2.99587   3.03835   3.07252   3.08063   3.10825
 Alpha virt. eigenvalues --    3.22533   3.25934   3.31009   3.33363   3.35619
 Alpha virt. eigenvalues --    3.36825   3.38182   3.41033   3.41840   3.58169
          Condensed to atoms (all electrons):
 Mulliken atomic charges:
              1
     1  C   -0.009440
     2  C    0.223429
     3  C   -0.131865
     4  C    0.043387
     5  C   -0.243227
     6  C    0.111168
     7  C    0.179582
     8  C    0.080695
     9  N   -0.265479
    10  C    0.088322
    11  C    0.047629
    12  C    0.157193
    13  C   -0.118145
    14  O   -0.319801
    15  C    0.129399
    16  C   -0.098469
    17  C    0.009514
    18  C    0.038473
    19  C    0.095735
    20  N   -0.313988
    21  C    0.081996
    22  C    0.186878
    23  C   -0.155143
    24  C    0.268097
    25  C   -0.010123
    26  C    0.108551
    27  C   -0.251779
    28  C    0.049993
    29  S    0.986383
    30  S    0.994661
    31  O   -0.517310
    32  O   -0.519918
    33  O   -0.524896
    34  O   -0.410353
    35  O   -0.325242
    36  O   -0.438069
    37  H   -0.027858
    38  H   -0.024986
    39  H   -0.006400
    40  H    0.081326
    41  H    0.081341
    42  H    0.058144
    43  H    0.061025
    44  H    0.031164
    45  H    0.024630
    46  H    0.026462
    47  H    0.011908
    48  H   -0.026090
    49  H    0.032416
    50  H    0.026611
    51  H    0.048146
    52  H    0.045548
    53  H    0.079214
    54  H    0.080006
    55  H   -0.011006
    56  H    0.005030
    57  H   -0.014855
    58  H    0.190385
 Sum of Mulliken atomic charges =   0.00000
 Mulliken charges with hydrogens summed into heavy atoms:
              1
     1  C   -0.037298
     2  C    0.223429
     3  C   -0.131865
     4  C    0.018400
     5  C   -0.243227
     6  C    0.104768
     7  C    0.342250
     8  C    0.080695
     9  N   -0.265479
    10  C    0.207491
    11  C    0.103422
    12  C    0.183655
    13  C   -0.118145
    14  O   -0.319801
    15  C    0.141307
    16  C   -0.098469
    17  C   -0.016576
    18  C    0.097500
    19  C    0.189429
    20  N   -0.313988
    21  C    0.081996
    22  C    0.346098
    23  C   -0.155143
    24  C    0.268097
    25  C   -0.021129
    26  C    0.113581
    27  C   -0.251779
    28  C    0.035138
    29  S    0.986383
    30  S    0.994661
    31  O   -0.517310
    32  O   -0.519918
    33  O   -0.524896
    34  O   -0.410353
    35  O   -0.134856
    36  O   -0.438069
 Sum of Mulliken charges with hydrogens summed into heavy atoms =   0.00000
 Electronic spatial extent (au):  <R**2>=          36749.8354
 Charge=              0.0000 electrons
 Dipole moment (field-independent basis, Debye):
    X=             22.9029    Y=             16.9991    Z=              1.4856  Tot=             28.5608
 Quadrupole moment (field-independent basis, Debye-Ang):
   XX=           -438.7558   YY=           -227.5685   ZZ=           -224.9573
   XY=            -76.7742   XZ=              7.4042   YZ=            -14.9192
 Traceless Quadrupole moment (field-independent basis, Debye-Ang):
   XX=           -141.6619   YY=             69.5254   ZZ=             72.1366
   XY=            -76.7742   XZ=              7.4042   YZ=            -14.9192
 Octapole moment (field-independent basis, Debye-Ang**2):
  XXX=           1638.6766  YYY=            148.8631  ZZZ=              5.5190  XYY=            239.4346
  XXY=            866.2669  XXZ=            142.6686  XZZ=             70.9576  YZZ=             -0.6838
  YYZ=             28.1890  XYZ=            -75.7716
 Hexadecapole moment (field-independent basis, Debye-Ang**3):
 XXXX=         -59163.4437 YYYY=          -6885.5628 ZZZZ=           -585.8179 XXXY=          -5005.0541
 XXXZ=            762.6477 YYYX=           -887.4938 YYYZ=           -225.2385 ZZZX=             82.4961
 ZZZY=            -12.3311 XXYY=          -9215.5056 XXZZ=          -7240.3643 YYZZ=          -1204.6785
 XXYZ=           -699.4910 YYXZ=            206.4417 ZZXY=           -234.1333
 N-N= 3.958369913239D+03 E-N=-1.353923987974D+04  KE= 2.386023087375D+03
 Calling FoFJK, ICntrl=      2127 FMM=T ISym2X=0 I1Cent= 0 IOpClX= 0 NMat=1 NMatS=1 NMatT=0.
 ***** Axes restored to original set *****
 -------------------------------------------------------------------
 Center     Atomic                   Forces (Hartrees/Bohr)
 Number     Number              X              Y              Z
 -------------------------------------------------------------------
      1        6           0.000159768    0.000076746    0.000129169
      2        6           0.000128547   -0.000143600   -0.000203834
      3        6          -0.000410203    0.000506096    0.000207624
      4        6           0.000360495   -0.000854621   -0.000250509
      5        6          -0.000036577    0.000016452    0.000236346
      6        6          -0.000014512    0.000271809   -0.000151426
      7        6          -0.000267654   -0.000722809   -0.000334782
      8        6           0.000004829    0.000337163    0.000020987
      9        7           0.000176090    0.000297789    0.000144281
     10        6          -0.000353503   -0.000221559   -0.000254783
     11        6           0.000200202    0.000336293    0.000042499
     12        6          -0.000309743    0.000239839    0.000410131
     13        6           0.000262796   -0.000124292   -0.000101480
     14        8           0.000100974    0.000082301    0.000097008
     15        6           0.000408648   -0.000096384    0.000000067
     16        6          -0.000068597    0.000183299   -0.000107142
     17        6          -0.000279099   -0.000188387   -0.000045900
     18        6           0.000003533    0.000178401    0.000084769
     19        6          -0.000058511   -0.000343640   -0.000231043
     20        7           0.000392521    0.000790269   -0.000092350
     21        6          -0.000440579   -0.000491788   -0.000064840
     22        6          -0.000100239    0.000177477   -0.000220474
     23        6           0.000037668   -0.000561606    0.000190520
     24        6           0.000082679   -0.000147908   -0.000136928
     25        6           0.000414498    0.001129173    0.000095448
     26        6          -0.000937899   -0.000144954   -0.000338056
     27        6          -0.000027970   -0.000737063    0.000205607
     28        6           0.000030876    0.000965712   -0.000164292
     29       16           0.000333187    0.000108547   -0.000580481
     30       16          -0.000799648    0.000894904   -0.000358081
     31        8          -0.000003143   -0.000018909    0.000096033
     32        8          -0.000381995   -0.000207366    0.000326091
     33        8           0.000049857    0.000047100    0.000098149
     34        8           0.000643329   -0.000280894    0.000356029
     35        8           0.000008019   -0.000125531    0.000013266
     36        8           0.000206650   -0.000367082   -0.000085618
     37        1           0.000016037    0.000022696   -0.000007415
     38        1           0.000020492    0.000299333    0.000034351
     39        1          -0.000171140   -0.000074189    0.000023355
     40        1           0.000219554    0.000223903    0.000385576
     41        1           0.000034603    0.000082674   -0.000085991
     42        1           0.000076465   -0.000033292    0.000102128
     43        1           0.000085249   -0.000016123    0.000018721
     44        1          -0.000023329   -0.000181722   -0.000056279
     45        1           0.000028395   -0.000018168   -0.000093389
     46        1          -0.000032261   -0.000049356   -0.000140927
     47        1          -0.000082054   -0.000076036   -0.000051191
     48        1          -0.000009289    0.000004618    0.000023823
     49        1          -0.000018678   -0.000013832    0.000091090
     50        1          -0.000020112    0.000025239   -0.000015543
     51        1          -0.000087839    0.000046859    0.000034365
     52        1          -0.000024232   -0.000082042    0.000203655
     53        1          -0.000037969    0.000090111    0.000069383
     54        1           0.000014787   -0.000109873    0.000160787
     55        1           0.000116489   -0.000477164    0.000057296
     56        1           0.000299642   -0.000098089    0.000107770
     57        1           0.000093639   -0.000478224    0.000051299
     58        1          -0.000013745    0.000051700    0.000055131
 -------------------------------------------------------------------
 Cartesian Forces:  Max     0.001129173 RMS     0.000285204

 GradGradGradGradGradGradGradGradGradGradGradGradGradGradGradGradGradGrad
 Berny optimization.
 Internal  Forces:  Max     0.000787689 RMS     0.000115960
 Search for a local minimum.
 Step number   1 out of a maximum of  348 on scan point     1 out of     3
 All quantities printed in internal units (Hartrees-Bohrs-Radians)
 Mixed Optimization -- En-DIIS/RFO-DIIS
 Second derivative matrix not updated -- first step.
 ITU=  0
     Eigenvalues ---    0.00230   0.00507   0.00649   0.00695   0.00886
     Eigenvalues ---    0.00948   0.01016   0.01046   0.01239   0.01326
     Eigenvalues ---    0.01441   0.01461   0.01492   0.01496   0.01516
     Eigenvalues ---    0.01547   0.01694   0.01730   0.01780   0.01868
     Eigenvalues ---    0.01922   0.01955   0.01968   0.02053   0.02083
     Eigenvalues ---    0.02089   0.02104   0.02118   0.02122   0.02135
     Eigenvalues ---    0.02148   0.02148   0.02172   0.02190   0.03143
     Eigenvalues ---    0.03348   0.03630   0.03820   0.04047   0.04479
     Eigenvalues ---    0.04721   0.04907   0.05033   0.05074   0.05587
     Eigenvalues ---    0.05653   0.05963   0.06089   0.07099   0.07104
     Eigenvalues ---    0.07154   0.07412   0.07710   0.08112   0.08233
     Eigenvalues ---    0.08416   0.08461   0.08527   0.09056   0.09210
     Eigenvalues ---    0.09276   0.09418   0.10549   0.11165   0.11329
     Eigenvalues ---    0.12604   0.13143   0.13481   0.15573   0.15950
     Eigenvalues ---    0.15998   0.15998   0.15998   0.15999   0.15999
     Eigenvalues ---    0.16000   0.16000   0.16160   0.16916   0.18527
     Eigenvalues ---    0.19175   0.20112   0.20552   0.20949   0.22449
     Eigenvalues ---    0.22455   0.23057   0.23234   0.23477   0.23482
     Eigenvalues ---    0.23824   0.23835   0.24638   0.24644   0.24672
     Eigenvalues ---    0.24774   0.24951   0.24981   0.24988   0.24993
     Eigenvalues ---    0.25000   0.25000   0.25000   0.25000   0.26950
     Eigenvalues ---    0.27785   0.28104   0.28439   0.28616   0.28668
     Eigenvalues ---    0.29513   0.29864   0.30237   0.30405   0.30589
     Eigenvalues ---    0.32577   0.32958   0.33110   0.33316   0.33369
     Eigenvalues ---    0.33378   0.33398   0.33407   0.33472   0.33480
     Eigenvalues ---    0.33735   0.33759   0.33760   0.33804   0.34386
     Eigenvalues ---    0.34610   0.34631   0.34642   0.34683   0.34803
     Eigenvalues ---    0.34849   0.34867   0.35717   0.38655   0.38887
     Eigenvalues ---    0.39168   0.40149   0.40229   0.41252   0.41419
     Eigenvalues ---    0.41864   0.42124   0.42572   0.43527   0.43972
     Eigenvalues ---    0.44041   0.45294   0.45414   0.45887   0.45937
     Eigenvalues ---    0.46087   0.47518   0.47664   0.47851   0.48439
     Eigenvalues ---    0.51771   0.52027   0.76481   0.76830   0.77591
     Eigenvalues ---    0.83886   0.870161000.000001000.000001000.00000
     Eigenvalues --- 1000.000001000.000001000.000001000.000001000.00000
     Eigenvalues --- 1000.000001000.000001000.000001000.000001000.00000
     Eigenvalues --- 1000.000001000.000001000.000001000.000001000.00000
     Eigenvalues --- 1000.000001000.000001000.000001000.000001000.00000
     Eigenvalues --- 1000.000001000.000001000.000001000.000001000.00000
     Eigenvalues --- 1000.000001000.000001000.000001000.000001000.00000
     Eigenvalues --- 1000.000001000.000001000.000001000.000001000.00000
     Eigenvalues --- 1000.000001000.000001000.000001000.000001000.00000
     Eigenvalues --- 1000.000001000.000001000.000001000.000001000.00000
     Eigenvalues --- 1000.000001000.000001000.000001000.000001000.00000
     Eigenvalues --- 1000.000001000.000001000.000001000.000001000.00000
     Eigenvalues --- 1000.000001000.000001000.000001000.000001000.00000
     Eigenvalues --- 1000.000001000.000001000.000001000.000001000.00000
     Eigenvalues --- 1000.000001000.000001000.000001000.000001000.00000
     Eigenvalues --- 1000.000001000.000001000.000001000.000001000.00000
     Eigenvalues --- 1000.000001000.000001000.000001000.000001000.00000
     Eigenvalues --- 1000.000001000.000001000.000001000.000001000.00000
     Eigenvalues --- 1000.000001000.000001000.000001000.000001000.00000
     Eigenvalues --- 1000.000001000.000001000.000001000.000001000.00000
     Eigenvalues --- 1000.000001000.000001000.000001000.000001000.00000
     Eigenvalues --- 1000.000001000.000001000.000001000.000001000.00000
     Eigenvalues --- 1000.000001000.000001000.000001000.000001000.00000
     Eigenvalues --- 1000.000001000.000001000.000001000.000001000.00000
[...]
                 (A) (A) (A) (A) (A) (A) (A) (A) (A) (A) (A) (A)
                 (A) (A) (A) (A) (A) (A) (A) (A) (A) (A) (A) (A)
                 (A) (A) (A) (A) (A) (A) (A) (A) (A) (A) (A) (A)
                 (A) (A) (A) (A) (A) (A) (A) (A) (A) (A) (A) (A)
                 (A) (A) (A) (A) (A) (A) (A) (A) (A) (A) (A) (A)
                 (A) (A) (A) (A) (A) (A) (A) (A) (A) (A) (A) (A)
                 (A) (A) (A) (A) (A)
       Virtual   (A) (A) (A) (A) (A) (A) (A) (A) (A) (A) (A) (A)
                 (A) (A) (A) (A) (A) (A) (A) (A) (A) (A) (A) (A)
                 (A) (A) (A) (A) (A) (A) (A) (A) (A) (A) (A) (A)
                 (A) (A) (A) (A) (A) (A) (A) (A) (A) (A) (A) (A)
                 (A) (A) (A) (A) (A) (A) (A) (A) (A) (A) (A) (A)
                 (A) (A) (A) (A) (A) (A) (A) (A) (A) (A) (A) (A)
                 (A) (A) (A) (A) (A) (A) (A) (A) (A) (A) (A) (A)
                 (A) (A) (A) (A) (A) (A) (A) (A) (A) (A) (A) (A)
                 (A) (A) (A) (A) (A) (A) (A) (A) (A) (A) (A) (A)
                 (A) (A) (A) (A) (A) (A) (A) (A) (A) (A) (A) (A)
                 (A) (A) (A) (A) (A) (A) (A) (A) (A) (A) (A) (A)
                 (A) (A) (A) (A) (A) (A) (A) (A) (A) (A) (A) (A)
                 (A) (A) (A) (A) (A) (A) (A) (A) (A) (A) (A) (A)
                 (A) (A) (A) (A) (A) (A) (A) (A) (A) (A) (A) (A)
                 (A) (A) (A) (A) (A) (A) (A) (A) (A) (A) (A) (A)
                 (A) (A) (A) (A) (A) (A) (A) (A) (A) (A) (A) (A)
                 (A) (A) (A) (A) (A) (A) (A) (A) (A) (A) (A) (A)
                 (A) (A) (A) (A) (A) (A) (A) (A) (A) (A) (A) (A)
                 (A) (A) (A) (A) (A) (A) (A) (A) (A) (A) (A) (A)
                 (A) (A) (A) (A) (A) (A) (A) (A) (A) (A) (A) (A)
                 (A) (A) (A) (A) (A) (A) (A) (A) (A) (A) (A) (A)
                 (A) (A) (A) (A) (A) (A) (A) (A) (A) (A) (A) (A)
                 (A) (A) (A) (A) (A) (A) (A) (A) (A) (A) (A) (A)
                 (A) (A) (A) (A) (A) (A) (A) (A) (A) (A) (A) (A)
                 (A) (A) (A) (A) (A) (A) (A) (A) (A) (A) (A) (A)
                 (A) (A) (A) (A) (A) (A) (A) (A) (A) (A) (A) (A)
                 (A) (A) (A) (A) (A) (A) (A) (A) (A) (A) (A) (A)
                 (A) (A) (A) (A) (A) (A) (A) (A) (A) (A) (A) (A)
                 (A) (A) (A) (A) (A) (A) (A) (A) (A) (A) (A) (A)
                 (A) (A) (A) (A) (A) (A) (A) (A) (A) (A) (A) (A)
                 (A) (A) (A) (A) (A) (A) (A) (A) (A) (A) (A) (A)
                 (A) (A) (A) (A) (A) (A) (A) (A) (A) (A) (A) (A)
                 (A) (A) (A) (A) (A) (A) (A) (A) (A) (A) (A) (A)
                 (A) (A) (A) (A) (A) (A) (A) (A) (A) (A) (A) (A)
                 (A) (A) (A) (A) (A) (A) (A) (A) (A) (A) (A) (A)
                 (A) (A) (A) (A) (A) (A) (A) (A) (A) (A) (A) (A)
                 (A) (A) (A) (A) (A) (A) (A) (A) (A) (A) (A) (A)
                 (A) (A) (A) (A) (A) (A) (A) (A) (A) (A) (A) (A)
                 (A) (A) (A) (A) (A) (A) (A) (A) (A) (A) (A) (A)
                 (A) (A) (A) (A) (A) (A) (A) (A) (A) (A) (A) (A)
                 (A) (A) (A) (A) (A)
 The electronic state is 1-A.
 Alpha  occ. eigenvalues --  -89.14796 -89.01927 -19.20978 -19.19788 -19.16515
 Alpha  occ. eigenvalues --  -19.16429 -19.02994 -19.02965 -19.02915 -14.46276
 Alpha  occ. eigenvalues --  -14.43967 -10.31200 -10.30606 -10.30121 -10.29960
 Alpha  occ. eigenvalues --  -10.29449 -10.29196 -10.29172 -10.26803 -10.26583
 Alpha  occ. eigenvalues --  -10.26382 -10.25729 -10.25662 -10.25659 -10.25623
 Alpha  occ. eigenvalues --  -10.25535 -10.25408 -10.25152 -10.25022 -10.24867
 Alpha  occ. eigenvalues --  -10.24833 -10.22423 -10.21680 -10.19783 -10.19598
 Alpha  occ. eigenvalues --  -10.19142  -8.17959  -8.04763  -6.14383  -6.14227
 Alpha  occ. eigenvalues --   -6.14087  -6.01094  -6.01065  -6.01057  -1.15631
 Alpha  occ. eigenvalues --   -1.09575  -1.06411  -1.05542  -1.05122  -1.02917
 Alpha  occ. eigenvalues --   -1.01836  -0.92294  -0.89873  -0.89119  -0.88575
 Alpha  occ. eigenvalues --   -0.88307  -0.87595  -0.86860  -0.85379  -0.82373
 Alpha  occ. eigenvalues --   -0.81367  -0.80160  -0.77649  -0.77084  -0.75071
 Alpha  occ. eigenvalues --   -0.74386  -0.73277  -0.71208  -0.68536  -0.67940
 Alpha  occ. eigenvalues --   -0.66497  -0.65279  -0.64366  -0.62590  -0.61784
 Alpha  occ. eigenvalues --   -0.59816  -0.58560  -0.57945  -0.57764  -0.57151
 Alpha  occ. eigenvalues --   -0.55987  -0.55302  -0.54556  -0.54097  -0.53002
 Alpha  occ. eigenvalues --   -0.52600  -0.52479  -0.51382  -0.50473  -0.50061
 Alpha  occ. eigenvalues --   -0.49737  -0.49185  -0.48655  -0.48462  -0.47888
 Alpha  occ. eigenvalues --   -0.47598  -0.46767  -0.46266  -0.46045  -0.45703
 Alpha  occ. eigenvalues --   -0.45271  -0.44795  -0.44510  -0.44240  -0.44063
 Alpha  occ. eigenvalues --   -0.43353  -0.42727  -0.42354  -0.41668  -0.40582
 Alpha  occ. eigenvalues --   -0.40202  -0.39918  -0.39262  -0.38789  -0.38534
 Alpha  occ. eigenvalues --   -0.37954  -0.36787  -0.36518  -0.36068  -0.36014
 Alpha  occ. eigenvalues --   -0.34969  -0.34846  -0.34046  -0.33981  -0.31898
 Alpha  occ. eigenvalues --   -0.31446  -0.31155  -0.30476  -0.27224  -0.26924
 Alpha  occ. eigenvalues --   -0.24224  -0.23861  -0.23719  -0.21074  -0.20808
 Alpha  occ. eigenvalues --   -0.19872  -0.16691
 Alpha virt. eigenvalues --   -0.13857  -0.07369  -0.06978  -0.04793  -0.02274
 Alpha virt. eigenvalues --   -0.00735  -0.00035   0.00381   0.00806   0.00904
 Alpha virt. eigenvalues --    0.02016   0.03073   0.03910   0.04091   0.04861
 Alpha virt. eigenvalues --    0.05194   0.05759   0.05937   0.06497   0.06637
 Alpha virt. eigenvalues --    0.07067   0.07526   0.08236   0.08513   0.08588
 Alpha virt. eigenvalues --    0.08952   0.09338   0.09502   0.09851   0.09921
 Alpha virt. eigenvalues --    0.10647   0.11029   0.11428   0.12193   0.12379
 Alpha virt. eigenvalues --    0.12802   0.13103   0.13581   0.14699   0.14813
 Alpha virt. eigenvalues --    0.15435   0.16077   0.16413   0.16911   0.17678
 Alpha virt. eigenvalues --    0.17983   0.18559   0.19190   0.19863   0.20612
 Alpha virt. eigenvalues --    0.21300   0.22643   0.23710   0.24277   0.24819
 Alpha virt. eigenvalues --    0.26404   0.26970   0.27363   0.28046   0.28678
 Alpha virt. eigenvalues --    0.29549   0.30041   0.30932   0.31245   0.33011
 Alpha virt. eigenvalues --    0.33434   0.34419   0.34881   0.35453   0.36647
 Alpha virt. eigenvalues --    0.37412   0.38111   0.38332   0.38437   0.39082
 Alpha virt. eigenvalues --    0.39219   0.40228   0.40336   0.40744   0.41330
 Alpha virt. eigenvalues --    0.41811   0.42096   0.42331   0.42699   0.42836
 Alpha virt. eigenvalues --    0.43359   0.43531   0.44486   0.44617   0.45212
 Alpha virt. eigenvalues --    0.45712   0.45961   0.46340   0.46688   0.47172
 Alpha virt. eigenvalues --    0.47771   0.48143   0.48585   0.48953   0.49283
 Alpha virt. eigenvalues --    0.49760   0.49966   0.50582   0.50850   0.51329
 Alpha virt. eigenvalues --    0.51711   0.51893   0.52321   0.52396   0.52879
 Alpha virt. eigenvalues --    0.54019   0.54100   0.54525   0.54756   0.55357
 Alpha virt. eigenvalues --    0.55789   0.56210   0.56338   0.56750   0.57214
 Alpha virt. eigenvalues --    0.57346   0.57789   0.58106   0.58359   0.58702
 Alpha virt. eigenvalues --    0.59085   0.59230   0.59882   0.60033   0.60133
 Alpha virt. eigenvalues --    0.60732   0.61295   0.61381   0.61966   0.62177
 Alpha virt. eigenvalues --    0.62569   0.62710   0.63247   0.63517   0.63830
 Alpha virt. eigenvalues --    0.64251   0.64911   0.65372   0.65472   0.65930
 Alpha virt. eigenvalues --    0.66356   0.66556   0.67439   0.67697   0.68112
 Alpha virt. eigenvalues --    0.68583   0.69264   0.69331   0.69727   0.70565
 Alpha virt. eigenvalues --    0.70817   0.71805   0.72570   0.73627   0.75004
 Alpha virt. eigenvalues --    0.75740   0.76559   0.77161   0.77278   0.78045
 Alpha virt. eigenvalues --    0.79249   0.79833   0.81820   0.82521   0.82885
 Alpha virt. eigenvalues --    0.83027   0.83311   0.84236   0.84925   0.85472
 Alpha virt. eigenvalues --    0.85895   0.86374   0.86857   0.87886   0.88152
 Alpha virt. eigenvalues --    0.88504   0.88969   0.89249   0.89621   0.91042
 Alpha virt. eigenvalues --    0.91460   0.91768   0.92590   0.92792   0.93766
 Alpha virt. eigenvalues --    0.94219   0.94854   0.95340   0.95509   0.96407
 Alpha virt. eigenvalues --    0.96863   0.97096   0.98454   0.98931   0.99078
 Alpha virt. eigenvalues --    0.99359   1.00373   1.00805   1.01212   1.02391
 Alpha virt. eigenvalues --    1.02622   1.04229   1.04662   1.05364   1.06175
 Alpha virt. eigenvalues --    1.06727   1.06981   1.07451   1.08068   1.08531
 Alpha virt. eigenvalues --    1.09279   1.10223   1.10926   1.11196   1.11583
 Alpha virt. eigenvalues --    1.12471   1.13584   1.13662   1.14285   1.15355
 Alpha virt. eigenvalues --    1.16026   1.16188   1.16338   1.16571   1.16782
 Alpha virt. eigenvalues --    1.17413   1.18255   1.19643   1.20011   1.20347
 Alpha virt. eigenvalues --    1.20794   1.21324   1.22098   1.22122   1.22744
 Alpha virt. eigenvalues --    1.23299   1.24861   1.25747   1.26267   1.27051
 Alpha virt. eigenvalues --    1.27384   1.28636   1.29403   1.30012   1.30917
 Alpha virt. eigenvalues --    1.31516   1.32106   1.32551   1.33597   1.33855
 Alpha virt. eigenvalues --    1.34957   1.35277   1.36241   1.36668   1.37121
 Alpha virt. eigenvalues --    1.37690   1.38695   1.40004   1.40182   1.41361
 Alpha virt. eigenvalues --    1.41961   1.42820   1.43516   1.44145   1.44701
 Alpha virt. eigenvalues --    1.44940   1.45393   1.46218   1.46908   1.47172
 Alpha virt. eigenvalues --    1.48241   1.48665   1.49238   1.49741   1.50357
 Alpha virt. eigenvalues --    1.50876   1.51566   1.52460   1.52802   1.53485
 Alpha virt. eigenvalues --    1.53667   1.54408   1.54957   1.55276   1.55668
 Alpha virt. eigenvalues --    1.56315   1.57088   1.58000   1.58723   1.59052
 Alpha virt. eigenvalues --    1.59396   1.59944   1.60688   1.61095   1.61334
 Alpha virt. eigenvalues --    1.62407   1.63277   1.63478   1.63635   1.63976
 Alpha virt. eigenvalues --    1.64625   1.65326   1.65624   1.66154   1.66471
 Alpha virt. eigenvalues --    1.66593   1.67042   1.67381   1.67618   1.68618
 Alpha virt. eigenvalues --    1.68833   1.69697   1.70808   1.71032   1.71437
 Alpha virt. eigenvalues --    1.71585   1.72208   1.73009   1.73298   1.74422
 Alpha virt. eigenvalues --    1.74868   1.75485   1.75654   1.76054   1.76560
 Alpha virt. eigenvalues --    1.76752   1.76913   1.77519   1.77979   1.78239
 Alpha virt. eigenvalues --    1.79318   1.79891   1.80866   1.81299   1.82243
 Alpha virt. eigenvalues --    1.82557   1.83538   1.83944   1.84795   1.85008
 Alpha virt. eigenvalues --    1.86370   1.86752   1.87238   1.87634   1.89108
 Alpha virt. eigenvalues --    1.89203   1.89876   1.90445   1.91033   1.91730
 Alpha virt. eigenvalues --    1.92163   1.93185   1.94476   1.95088   1.95700
 Alpha virt. eigenvalues --    1.96289   1.97071   1.98663   1.99640   2.00061
 Alpha virt. eigenvalues --    2.01229   2.01378   2.01812   2.02459   2.02724
 Alpha virt. eigenvalues --    2.03621   2.04316   2.04788   2.05409   2.05705
 Alpha virt. eigenvalues --    2.06228   2.07322   2.07635   2.08034   2.08616
 Alpha virt. eigenvalues --    2.10128   2.10687   2.11166   2.12290   2.12852
 Alpha virt. eigenvalues --    2.13888   2.13936   2.14619   2.15550   2.16115
 Alpha virt. eigenvalues --    2.16984   2.17794   2.18280   2.18699   2.19870
 Alpha virt. eigenvalues --    2.22242   2.22782   2.23375   2.24886   2.25138
 Alpha virt. eigenvalues --    2.26042   2.27364   2.29232   2.29742   2.30638
 Alpha virt. eigenvalues --    2.31276   2.32587   2.35176   2.36193   2.36643
 Alpha virt. eigenvalues --    2.37245   2.37969   2.39788   2.40635   2.41964
 Alpha virt. eigenvalues --    2.42648   2.43374   2.45290   2.47825   2.48078
 Alpha virt. eigenvalues --    2.48755   2.49235   2.51356   2.52259   2.53085
 Alpha virt. eigenvalues --    2.53625   2.54535   2.54981   2.55728   2.56925
 Alpha virt. eigenvalues --    2.57509   2.58198   2.58484   2.58937   2.59664
 Alpha virt. eigenvalues --    2.60195   2.60603   2.61353   2.61467   2.62880
 Alpha virt. eigenvalues --    2.63302   2.64410   2.65350   2.66751   2.69945
 Alpha virt. eigenvalues --    2.70407   2.70475   2.70952   2.71989   2.72989
 Alpha virt. eigenvalues --    2.74459   2.75518   2.76223   2.76740   2.77901
 Alpha virt. eigenvalues --    2.79069   2.81479   2.82827   2.84125   2.85631
 Alpha virt. eigenvalues --    2.86565   2.87484   2.88194   2.89379   2.91400
 Alpha virt. eigenvalues --    2.94147   2.95546   2.96933   2.97688   2.98273
 Alpha virt. eigenvalues --    2.99284   3.03409   3.07070   3.07838   3.10635
 Alpha virt. eigenvalues --    3.22576   3.25770   3.31111   3.33394   3.35486
 Alpha virt. eigenvalues --    3.36640   3.38099   3.40851   3.41683   3.58312
          Condensed to atoms (all electrons):
 Mulliken atomic charges:
              1
     1  C   -0.008529
     2  C    0.222647
     3  C   -0.129137
     4  C    0.041506
     5  C   -0.243088
     6  C    0.113023
     7  C    0.177977
     8  C    0.084346
     9  N   -0.263404
    10  C    0.088265
    11  C    0.047036
    12  C    0.155738
    13  C   -0.122730
    14  O   -0.318847
    15  C    0.136664
    16  C   -0.072168
    17  C    0.016692
    18  C    0.039938
    19  C    0.094711
    20  N   -0.303538
    21  C    0.050468
    22  C    0.165226
    23  C   -0.134911
    24  C    0.242834
    25  C    0.004407
    26  C    0.105020
    27  C   -0.250498
    28  C    0.052769
    29  S    0.986905
    30  S    0.993800
    31  O   -0.515805
    32  O   -0.519209
    33  O   -0.523657
    34  O   -0.411326
    35  O   -0.325541
    36  O   -0.437961
    37  H   -0.027062
    38  H   -0.023700
    39  H   -0.005534
    40  H    0.083130
    41  H    0.082833
    42  H    0.059277
    43  H    0.061964
    44  H    0.032086
    45  H    0.025311
    46  H    0.026938
    47  H    0.013011
    48  H   -0.025855
    49  H    0.033982
    50  H    0.027473
    51  H    0.047523
    52  H    0.038873
    53  H    0.064198
    54  H    0.077905
    55  H   -0.013302
    56  H    0.005145
    57  H   -0.013918
    58  H    0.190099
 Sum of Mulliken atomic charges =   0.00000
 Mulliken charges with hydrogens summed into heavy atoms:
              1
     1  C   -0.035590
     2  C    0.222647
     3  C   -0.129137
     4  C    0.017805
     5  C   -0.243088
     6  C    0.107488
     7  C    0.343940
     8  C    0.084346
     9  N   -0.263404
    10  C    0.209506
    11  C    0.104433
    12  C    0.182676
    13  C   -0.122730
    14  O   -0.318847
    15  C    0.149675
    16  C   -0.072168
    17  C   -0.009162
    18  C    0.101393
    19  C    0.181106
    20  N   -0.303538
    21  C    0.050468
    22  C    0.307330
    23  C   -0.134911
    24  C    0.242834
    25  C   -0.008895
    26  C    0.110166
    27  C   -0.250498
    28  C    0.038852
    29  S    0.986905
    30  S    0.993800
    31  O   -0.515805
    32  O   -0.519209
    33  O   -0.523657
    34  O   -0.411326
    35  O   -0.135442
    36  O   -0.437961
 Sum of Mulliken charges with hydrogens summed into heavy atoms =   0.00000
 Electronic spatial extent (au):  <R**2>=          35450.1810
 Charge=              0.0000 electrons
 Dipole moment (field-independent basis, Debye):
    X=             22.2939    Y=             17.5977    Z=              1.7054  Tot=             28.4535
 Quadrupole moment (field-independent basis, Debye-Ang):
   XX=           -419.3582   YY=           -230.7274   ZZ=           -224.2255
   XY=            -76.5237   XZ=             17.4878   YZ=            -17.8438
 Traceless Quadrupole moment (field-independent basis, Debye-Ang):
   XX=           -127.9212   YY=             60.7096   ZZ=             67.2116
   XY=            -76.5237   XZ=             17.4878   YZ=            -17.8438
 Octapole moment (field-independent basis, Debye-Ang**2):
  XXX=           1592.7951  YYY=            146.2345  ZZZ=              2.7497  XYY=            250.1575
  XXY=            821.7425  XXZ=             98.1149  XZZ=             52.3707  YZZ=              4.0540
  YYZ=             22.4011  XYZ=            -67.9519
 Hexadecapole moment (field-independent basis, Debye-Ang**3):
 XXXX=         -54161.8210 YYYY=          -7429.3937 ZZZZ=           -735.1196 XXXY=          -4979.3583
 XXXZ=           1054.7373 YYYX=           -991.1845 YYYZ=           -235.7799 ZZZX=             43.9682
 ZZZY=            -11.6470 XXYY=          -8804.1101 XXZZ=          -6973.8393 YYZZ=          -1324.5922
 XXYZ=           -729.2263 YYXZ=            253.1371 ZZXY=           -167.2915
 N-N= 3.973673056174D+03 E-N=-1.356982793838D+04  KE= 2.386020130546D+03
 1\1\GINC-NODE109\Scan\RB3LYP\CC-pVDZ\C25H22N2O7S2\CHS2057\20-Mar-2015\
 0\\# opt=modredundant B3LYP/cc-pVDZ Geom=PrintInputOrient\\CY3 Dihedra
 l Scan at MP2/6-31G*\\0,1\C,-6.7528361815,1.6549271559,0.5638650173\C,
 -5.4332431714,1.9843001408,0.2457148149\C,-5.0048469733,3.3087042923,0
 .0431479167\C,-5.9089177224,4.3514778961,0.1574639645\C,-7.246121436,4
 .0419173916,0.4571339665\C,-7.6557571274,2.7146333242,0.6687170968\C,-
 3.5249211708,3.2788507763,-0.2567297049\C,-3.2036450922,1.8035964869,-
 0.22094882\N,-4.3177834618,1.1273083107,0.0851216855\C,-4.3769409328,-
 0.3311746964,0.2733718536\C,-2.9837860659,-0.9255427706,0.4911508457\C
 ,-2.0260814257,-0.3635406873,-0.5672334149\C,-1.9656798952,1.147146187
 5,-0.4499210839\O,-0.7622560131,-1.0119920244,-0.5913793387\C,0.343462
 2227,-0.3444936817,0.0196132721\C,0.4582846259,1.0996281158,-0.4326299
 738\C,-0.7642693905,1.8134317286,-0.5519776938\C,1.5919030207,-1.13639
 51876,-0.3599590925\C,2.8559372294,-0.42510449,0.1137667593\N,2.864785
 9388,0.9632689568,-0.3452278773\C,1.6998661189,1.6450377912,-0.6631962
 967\C,2.0800703911,3.0881077252,-0.93356545\C,3.4493575929,3.182741840
 4,-0.3004817039\C,3.8900106883,1.8689974835,-0.036815994\C,5.150296819
 6,1.6015075149,0.4990493092\C,5.9850835343,2.6934034629,0.7675188239\C
 ,5.5499385626,3.9898880649,0.4886480296\C,4.2794642909,4.2600224188,-0
 .0497294136\S,-8.4824644132,5.4048084079,0.5314395492\S,6.6327047019,5
 .364194848,0.8673056538\O,-8.9977567988,5.3975730087,-0.8778297268\O,-
 9.4522777962,4.9316129188,1.5699782933\O,-7.6494869187,6.5958872576,0.
 8999646\O,7.6964306135,4.8995918257,1.7727720975\O,7.2926523984,5.5968
 069807,-0.6460457778\O,5.8316370591,6.5723953714,1.160909822\H,-7.0736
 276245,0.6239150103,0.7247346514\H,-5.63572604,5.4020628793,0.03889988
 96\H,-8.7006329074,2.5415809717,0.9319490175\H,-2.9294321872,3.8297136
 247,0.4903696812\H,-3.2745778766,3.7051278954,-1.2428727351\H,-4.86316
 04246,-0.7653913724,-0.6164296106\H,-5.0320712547,-0.5259129254,1.1336
 626949\H,-3.0436703106,-2.0201015959,0.4047039343\H,-2.6159410791,-0.6
 846111441,1.5020669904\H,-2.4603852772,-0.5915759434,-1.5594464765\H,0
 .2139999337,-0.3551521491,1.1221284342\H,-0.7506192775,2.9034250023,-0
 .6403029996\H,1.6034293315,-1.2467132939,-1.4560576928\H,1.5529783348,
 -2.1449162433,0.0756616197\H,3.7491620639,-0.9333586661,-0.2799330077\
 H,2.9293714214,-0.4364897141,1.2177122402\H,1.3447674748,3.7942716388,
 -0.5214180708\H,2.1382800131,3.2798515885,-2.0205772737\H,5.4811295234
 ,0.5864556793,0.7202635071\H,6.9718098744,2.5454778938,1.2069329712\H,
 3.9694519749,5.2892294785,-0.2355849705\H,7.3716506198,6.5655867774,-0
 .7424450744\\Version=EM64L-G09RevB.01\State=1-A\HF=-2398.2671261,-2398
 .2656205,-2398.2612069\RMSD=9.745e-09,3.070e-09,3.107e-09\PG=C01 [X(C2
 5H22N2O7S2)]\\@


 IBM COMPATIBILITY IS LIKE PREGNANCY. YOU ARE OR
 OR YOU ARE NOT. -- ADAM OSBORNE
 Job cpu time:  1 days  0 hours 18 minutes 34.3 seconds.
 File lengths (MBytes):  RWF=    303 Int=      0 D2E=      0 Chk=     28 Scr=      2
 Normal termination of Gaussian 09 at Fri Mar 20 03:38:08 2015.
