 Entering Gaussian System, Link 0=g09
 Initial command:
 /softlib/exe/x86_64/pkg/gaussian/09revB.01/dist/g09/l1.exe /zenodotus/hwlab/hwlab_store011/chs2057/Weinsteinlab/parameters/Cy3B-2/torsion-scan/Gau-5799.inp -scrdir=/zenodotus/hwlab/hwlab_store011/chs2057/Weinsteinlab/parameters/Cy3B-2/torsion-scan/
 Entering Link 1 = /softlib/exe/x86_64/pkg/gaussian/09revB.01/dist/g09/l1.exe PID=      5800.
  
 Copyright (c) 1988,1990,1992,1993,1995,1998,2003,2009,2010,
            Gaussian, Inc.  All Rights Reserved.
  
 This is part of the Gaussian(R) 09 program.  It is based on
 the Gaussian(R) 03 system (copyright 2003, Gaussian, Inc.),
 the Gaussian(R) 98 system (copyright 1998, Gaussian, Inc.),
 the Gaussian(R) 94 system (copyright 1995, Gaussian, Inc.),
 the Gaussian 92(TM) system (copyright 1992, Gaussian, Inc.),
 the Gaussian 90(TM) system (copyright 1990, Gaussian, Inc.),
 the Gaussian 88(TM) system (copyright 1988, Gaussian, Inc.),
 the Gaussian 86(TM) system (copyright 1986, Carnegie Mellon
 University), and the Gaussian 82(TM) system (copyright 1983,
 Carnegie Mellon University). Gaussian is a federally registered
 trademark of Gaussian, Inc.
  
 This software contains proprietary and confidential information,
 including trade secrets, belonging to Gaussian, Inc.
  
 This software is provided under written license and may be
 used, copied, transmitted, or stored only in accord with that
 written license.
  
 The following legend is applicable only to US Government
 contracts under FAR:
  
                    RESTRICTED RIGHTS LEGEND
  
 Use, reproduction and disclosure by the US Government is
 subject to restrictions as set forth in subparagraphs (a)
 and (c) of the Commercial Computer Software - Restricted
 Rights clause in FAR 52.227-19.
  
 Gaussian, Inc.
 340 Quinnipiac St., Bldg. 40, Wallingford CT 06492
  
  
 ---------------------------------------------------------------
 Warning -- This program may not be used in any manner that
 competes with the business of Gaussian, Inc. or will provide
 assistance to any competitor of Gaussian, Inc.  The licensee
 of this program is prohibited from giving any competitor of
 Gaussian, Inc. access to this program.  By using this program,
 the user acknowledges that Gaussian, Inc. is engaged in the
 business of creating and licensing software in the field of
 computational chemistry and represents and warrants to the
 licensee that it is not a competitor of Gaussian, Inc. and that
 it will not use this program in any manner prohibited above.
 ---------------------------------------------------------------
  

 Cite this work as:
 Gaussian 09, Revision B.01,
 M. J. Frisch, G. W. Trucks, H. B. Schlegel, G. E. Scuseria, 
 M. A. Robb, J. R. Cheeseman, G. Scalmani, V. Barone, B. Mennucci, 
 G. A. Petersson, H. Nakatsuji, M. Caricato, X. Li, H. P. Hratchian, 
 A. F. Izmaylov, J. Bloino, G. Zheng, J. L. Sonnenberg, M. Hada, 
 M. Ehara, K. Toyota, R. Fukuda, J. Hasegawa, M. Ishida, T. Nakajima, 
 Y. Honda, O. Kitao, H. Nakai, T. Vreven, J. A. Montgomery, Jr., 
 J. E. Peralta, F. Ogliaro, M. Bearpark, J. J. Heyd, E. Brothers, 
 K. N. Kudin, V. N. Staroverov, T. Keith, R. Kobayashi, J. Normand, 
 K. Raghavachari, A. Rendell, J. C. Burant, S. S. Iyengar, J. Tomasi, 
 M. Cossi, N. Rega, J. M. Millam, M. Klene, J. E. Knox, J. B. Cross, 
 V. Bakken, C. Adamo, J. Jaramillo, R. Gomperts, R. E. Stratmann, 
 O. Yazyev, A. J. Austin, R. Cammi, C. Pomelli, J. W. Ochterski, 
 R. L. Martin, K. Morokuma, V. G. Zakrzewski, G. A. Voth, 
 P. Salvador, J. J. Dannenberg, S. Dapprich, A. D. Daniels, 
 O. Farkas, J. B. Foresman, J. V. Ortiz, J. Cioslowski, 
 and D. J. Fox, Gaussian, Inc., Wallingford CT, 2010.
 
 ******************************************
 Gaussian 09:  EM64L-G09RevB.01 12-Aug-2010
                18-Mar-2015 
 ******************************************
 %chk=CY3.scan15.neg.chk
 %nproc=16
 Will use up to   16 processors via shared memory.
 %mem=50GB
 ------------------------------------------------------
 # opt=modredundant B3LYP/cc-pVDZ Geom=PrintInputOrient
 ------------------------------------------------------
 1/14=-1,18=120,19=15,26=3,38=1/1,3;
 2/9=2110,12=2,17=6,18=5,40=1/2;
 3/5=16,11=2,16=1,25=1,30=1,71=1,74=-5/1,2,3;
 4//1;
 5/5=2,38=5/2;
 6/7=2,8=2,9=2,10=2,28=1/1;
 7//1,2,3,16;
 1/14=-1,18=20,19=15/3(2);
 2/9=2110/2;
 99//99;
 2/9=2110/2;
 3/5=16,11=2,16=1,25=1,30=1,71=1,74=-5/1,2,3;
 4/5=5,16=3/1;
 5/5=2,38=5/2;
 7//1,2,3,16;
 1/14=-1,18=20,19=15/3(-5);
 2/9=2110/2;
 6/7=2,8=2,9=2,10=2,19=2,28=1/1;
 99/9=1/99;
 -------------------------------
 CY3 Dihedral Scan at MP2/6-31G*
 -------------------------------
 Symbolic Z-matrix:
 Charge =  0 Multiplicity = 1
 C1                   -6.866     1.559     0.204 
 C2                   -5.528     1.941     0.085 
 C3                   -5.112     3.284     0.118 
 C4                   -6.048     4.293     0.278 
 C5                   -7.402     3.933     0.38 
 C6                   -7.8       2.586     0.356 
 C7                   -3.608     3.311    -0.018 
 C8                   -3.256     1.847    -0.151 
 N9                   -4.381     1.124    -0.068 
 C10                  -4.424    -0.346    -0.086 
 C11                  -3.049    -0.951     0.205 
 C12                  -1.995    -0.24     -0.654 
 C13                  -1.986     1.241    -0.326 
 O14                  -0.721    -0.87     -0.623 
 C15                   0.301    -0.281     0.182 
 C16                   0.423     1.213    -0.059 
 C17                  -0.795     1.925    -0.194 
 C18                   1.599    -1.004    -0.175 
 C19                   2.807    -0.344     0.489 
 N20                   2.816     1.091     0.213 
 C21                   1.665     1.806    -0.026 
 C22                   2.039     3.264    -0.215 
 C23                   3.535     3.254     0.002 
 C24                   3.937     1.927     0.26 
 C25                   5.265     1.59      0.526 
 C26                   6.211     2.623     0.515 
 C27                   5.811     3.932     0.239 
 C28                   4.47      4.273    -0.008 
 S29                  -8.67      5.263     0.51 
 S30                   7.042     5.231     0.247 
 O31                  -8.999     5.486    -0.937 
 O32                  -9.754     4.626     1.323 
 O33                  -7.919     6.38      1.171 
 O34                   8.251     4.739     0.926 
 O35                   7.349     5.305    -1.39 
 O36                   6.413     6.52      0.61 
 H37                  -7.178     0.513     0.182 
 H38                  -5.787     5.351     0.34 
 H39                  -8.863     2.37      0.474 
 H40                  -3.111     3.758     0.858 
 H41                  -3.264     3.872    -0.903 
 H42                  -4.799    -0.66     -1.075 
 H43                  -5.165    -0.663     0.661 
 H44                  -3.071    -2.024    -0.033 
 H45                  -2.801    -0.845     1.274 
 H46                  -2.312    -0.335    -1.71 
 H47                   0.064    -0.446     1.254 
 H48                  -0.799     3.016    -0.117 
 H49                   1.709    -0.977    -1.271 
 H50                   1.544    -2.059     0.129 
 H51                   3.738    -0.78      0.099 
 H52                   2.8      -0.501     1.583 
 H53                   1.511     3.909     0.507 
 H54                   1.764     3.619    -1.222 
 H55                   5.569     0.568     0.75 
 H56                   7.26      2.42      0.729 
 H57                   4.194     5.314    -0.186 
 H58                   7.465     6.255    -1.585 
 
 The following ModRedundant input section has been read:
 D       8      13      17      16 S   2 -15.00                                

 GradGradGradGradGradGradGradGradGradGradGradGradGradGradGradGradGradGrad
 Berny optimization.
 Initialization pass.
                           ----------------------------
                           !    Initial Parameters    !
                           ! (Angstroms and Degrees)  !
 --------------------------                            --------------------------
 ! Name  Definition              Value          Derivative Info.                !
 --------------------------------------------------------------------------------
 ! R1    R(1,2)                  1.3965         estimate D2E/DX2                !
 ! R2    R(1,6)                  1.3965         estimate D2E/DX2                !
 ! R3    R(1,37)                 1.0918         estimate D2E/DX2                !
 ! R4    R(2,3)                  1.4063         estimate D2E/DX2                !
 ! R5    R(2,9)                  1.4165         estimate D2E/DX2                !
 ! R6    R(3,4)                  1.3856         estimate D2E/DX2                !
 ! R7    R(3,7)                  1.5104         estimate D2E/DX2                !
 ! R8    R(4,5)                  1.4047         estimate D2E/DX2                !
 ! R9    R(4,38)                 1.0915         estimate D2E/DX2                !
 ! R10   R(5,6)                  1.4048         estimate D2E/DX2                !
 ! R11   R(5,29)                 1.8422         estimate D2E/DX2                !
 ! R12   R(6,39)                 1.0911         estimate D2E/DX2                !
 ! R13   R(7,8)                  1.5116         estimate D2E/DX2                !
 ! R14   R(7,40)                 1.1019         estimate D2E/DX2                !
 ! R15   R(7,41)                 1.1029         estimate D2E/DX2                !
 ! R16   R(8,9)                  1.3399         estimate D2E/DX2                !
 ! R17   R(8,13)                 1.418          estimate D2E/DX2                !
 ! R18   R(9,10)                 1.4707         estimate D2E/DX2                !
 ! R19   R(10,11)                1.5301         estimate D2E/DX2                !
 ! R20   R(10,42)                1.1033         estimate D2E/DX2                !
 ! R21   R(10,43)                1.0989         estimate D2E/DX2                !
 ! R22   R(11,12)                1.5344         estimate D2E/DX2                !
 ! R23   R(11,44)                1.0993         estimate D2E/DX2                !
 ! R24   R(11,45)                1.1025         estimate D2E/DX2                !
 ! R25   R(12,13)                1.5169         estimate D2E/DX2                !
 ! R26   R(12,14)                1.4216         estimate D2E/DX2                !
 ! R27   R(12,46)                1.1066         estimate D2E/DX2                !
 ! R28   R(13,17)                1.3798         estimate D2E/DX2                !
 ! R29   R(14,15)                1.4281         estimate D2E/DX2                !
 ! R30   R(15,16)                1.5182         estimate D2E/DX2                !
 ! R31   R(15,18)                1.5281         estimate D2E/DX2                !
 ! R32   R(15,47)                1.1102         estimate D2E/DX2                !
 ! R33   R(16,17)                1.4173         estimate D2E/DX2                !
 ! R34   R(16,21)                1.3767         estimate D2E/DX2                !
 ! R35   R(17,48)                1.0937         estimate D2E/DX2                !
 ! R36   R(18,19)                1.5283         estimate D2E/DX2                !
 ! R37   R(18,49)                1.1018         estimate D2E/DX2                !
 ! R38   R(18,50)                1.0993         estimate D2E/DX2                !
 ! R39   R(19,20)                1.4613         estimate D2E/DX2                !
 ! R40   R(19,51)                1.0995         estimate D2E/DX2                !
 ! R41   R(19,52)                1.1052         estimate D2E/DX2                !
 ! R42   R(20,21)                1.3759         estimate D2E/DX2                !
 ! R43   R(20,24)                1.3992         estimate D2E/DX2                !
 ! R44   R(21,22)                1.517          estimate D2E/DX2                !
 ! R45   R(22,23)                1.5117         estimate D2E/DX2                !
 ! R46   R(22,53)                1.1028         estimate D2E/DX2                !
 ! R47   R(22,54)                1.1026         estimate D2E/DX2                !
 ! R48   R(23,24)                1.4104         estimate D2E/DX2                !
 ! R49   R(23,28)                1.383          estimate D2E/DX2                !
 ! R50   R(24,25)                1.3957         estimate D2E/DX2                !
 ! R51   R(25,26)                1.4008         estimate D2E/DX2                !
 ! R52   R(25,55)                1.0895         estimate D2E/DX2                !
 ! R53   R(26,27)                1.3963         estimate D2E/DX2                !
 ! R54   R(26,56)                1.0897         estimate D2E/DX2                !
 ! R55   R(27,28)                1.4056         estimate D2E/DX2                !
 ! R56   R(27,30)                1.7896         estimate D2E/DX2                !
 ! R57   R(28,57)                1.0916         estimate D2E/DX2                !
 ! R58   R(29,31)                1.5006         estimate D2E/DX2                !
 ! R59   R(29,32)                1.4973         estimate D2E/DX2                !
 ! R60   R(29,33)                1.4995         estimate D2E/DX2                !
 ! R61   R(30,34)                1.4713         estimate D2E/DX2                !
 ! R62   R(30,35)                1.6672         estimate D2E/DX2                !
 ! R63   R(30,36)                1.4795         estimate D2E/DX2                !
 ! R64   R(35,58)                0.9767         estimate D2E/DX2                !
 ! A1    A(2,1,6)              116.673          estimate D2E/DX2                !
 ! A2    A(2,1,37)             122.2861         estimate D2E/DX2                !
 ! A3    A(6,1,37)             121.0409         estimate D2E/DX2                !
 ! A4    A(1,2,3)              122.862          estimate D2E/DX2                !
 ! A5    A(1,2,9)              128.8461         estimate D2E/DX2                !
 ! A6    A(3,2,9)              108.2886         estimate D2E/DX2                !
 ! A7    A(2,3,4)              119.8882         estimate D2E/DX2                !
 ! A8    A(2,3,7)              108.0299         estimate D2E/DX2                !
 ! A9    A(4,3,7)              132.0722         estimate D2E/DX2                !
 ! A10   A(3,4,5)              118.2223         estimate D2E/DX2                !
 ! A11   A(3,4,38)             123.4294         estimate D2E/DX2                !
 ! A12   A(5,4,38)             118.3446         estimate D2E/DX2                !
 ! A13   A(4,5,6)              121.1699         estimate D2E/DX2                !
 ! A14   A(4,5,29)             118.9176         estimate D2E/DX2                !
 ! A15   A(6,5,29)             119.8989         estimate D2E/DX2                !
 ! A16   A(1,6,5)              121.1673         estimate D2E/DX2                !
 ! A17   A(1,6,39)             121.1827         estimate D2E/DX2                !
 ! A18   A(5,6,39)             117.6449         estimate D2E/DX2                !
 ! A19   A(3,7,8)              102.8555         estimate D2E/DX2                !
 ! A20   A(3,7,40)             112.6314         estimate D2E/DX2                !
 ! A21   A(3,7,41)             113.076          estimate D2E/DX2                !
 ! A22   A(8,7,40)             110.9656         estimate D2E/DX2                !
 ! A23   A(8,7,41)             110.4522         estimate D2E/DX2                !
 ! A24   A(40,7,41)            106.9125         estimate D2E/DX2                !
 ! A25   A(7,8,9)              108.7624         estimate D2E/DX2                !
 ! A26   A(7,8,13)             129.2959         estimate D2E/DX2                !
 ! A27   A(9,8,13)             121.9402         estimate D2E/DX2                !
 ! A28   A(2,9,8)              112.0457         estimate D2E/DX2                !
 ! A29   A(2,9,10)             123.6506         estimate D2E/DX2                !
 ! A30   A(8,9,10)             124.2722         estimate D2E/DX2                !
 ! A31   A(9,10,11)            111.5055         estimate D2E/DX2                !
 ! A32   A(9,10,42)            107.7796         estimate D2E/DX2                !
 ! A33   A(9,10,43)            107.4408         estimate D2E/DX2                !
 ! A34   A(11,10,42)           111.3071         estimate D2E/DX2                !
 ! A35   A(11,10,43)           111.2604         estimate D2E/DX2                !
 ! A36   A(42,10,43)           107.3405         estimate D2E/DX2                !
 ! A37   A(10,11,12)           109.1227         estimate D2E/DX2                !
 ! A38   A(10,11,44)           109.073          estimate D2E/DX2                !
 ! A39   A(10,11,45)           110.397          estimate D2E/DX2                !
 ! A40   A(12,11,44)           110.1718         estimate D2E/DX2                !
 ! A41   A(12,11,45)           110.1058         estimate D2E/DX2                !
 ! A42   A(44,11,45)           107.955          estimate D2E/DX2                !
 ! A43   A(11,12,13)           109.5988         estimate D2E/DX2                !
 ! A44   A(11,12,14)           113.4559         estimate D2E/DX2                !
 ! A45   A(11,12,46)           107.3176         estimate D2E/DX2                !
 ! A46   A(13,12,14)           115.0013         estimate D2E/DX2                !
 ! A47   A(13,12,46)           106.9686         estimate D2E/DX2                !
 ! A48   A(14,12,46)           103.8557         estimate D2E/DX2                !
 ! A49   A(8,13,12)            116.0154         estimate D2E/DX2                !
 ! A50   A(8,13,17)            123.3276         estimate D2E/DX2                !
 ! A51   A(12,13,17)           120.6509         estimate D2E/DX2                !
 ! A52   A(12,14,15)           118.0898         estimate D2E/DX2                !
 ! A53   A(14,15,16)           111.9556         estimate D2E/DX2                !
 ! A54   A(14,15,18)           106.3233         estimate D2E/DX2                !
 ! A55   A(14,15,47)           109.2822         estimate D2E/DX2                !
 ! A56   A(16,15,18)           111.1158         estimate D2E/DX2                !
 ! A57   A(16,15,47)           108.4621         estimate D2E/DX2                !
 ! A58   A(18,15,47)           109.6698         estimate D2E/DX2                !
 ! A59   A(15,16,17)           116.1304         estimate D2E/DX2                !
 ! A60   A(15,16,21)           119.5088         estimate D2E/DX2                !
 ! A61   A(17,16,21)           124.1387         estimate D2E/DX2                !
 ! A62   A(13,17,16)           120.1249         estimate D2E/DX2                !
 ! A63   A(13,17,48)           119.8731         estimate D2E/DX2                !
 ! A64   A(16,17,48)           119.8385         estimate D2E/DX2                !
 ! A65   A(15,18,19)           111.443          estimate D2E/DX2                !
 ! A66   A(15,18,49)           107.7942         estimate D2E/DX2                !
 ! A67   A(15,18,50)           110.3023         estimate D2E/DX2                !
 ! A68   A(19,18,49)           110.0397         estimate D2E/DX2                !
 ! A69   A(19,18,50)           109.5022         estimate D2E/DX2                !
 ! A70   A(49,18,50)           107.6731         estimate D2E/DX2                !
 ! A71   A(18,19,20)           110.2964         estimate D2E/DX2                !
 ! A72   A(18,19,51)           110.1157         estimate D2E/DX2                !
 ! A73   A(18,19,52)           111.3275         estimate D2E/DX2                !
 ! A74   A(20,19,51)           108.4927         estimate D2E/DX2                !
 ! A75   A(20,19,52)           109.0554         estimate D2E/DX2                !
 ! A76   A(51,19,52)           107.4653         estimate D2E/DX2                !
 ! A77   A(19,20,21)           122.5439         estimate D2E/DX2                !
 ! A78   A(19,20,24)           125.825          estimate D2E/DX2                !
 ! A79   A(21,20,24)           111.4419         estimate D2E/DX2                !
 ! A80   A(16,21,20)           122.3448         estimate D2E/DX2                !
 ! A81   A(16,21,22)           129.3021         estimate D2E/DX2                !
 ! A82   A(20,21,22)           108.3512         estimate D2E/DX2                !
 ! A83   A(21,22,23)           102.6935         estimate D2E/DX2                !
 ! A84   A(21,22,53)           111.2555         estimate D2E/DX2                !
 ! A85   A(21,22,54)           111.207          estimate D2E/DX2                !
 ! A86   A(23,22,53)           112.5638         estimate D2E/DX2                !
 ! A87   A(23,22,54)           112.3373         estimate D2E/DX2                !
 ! A88   A(53,22,54)           106.8712         estimate D2E/DX2                !
 ! A89   A(22,23,24)           108.3343         estimate D2E/DX2                !
 ! A90   A(22,23,28)           131.5397         estimate D2E/DX2                !
 ! A91   A(24,23,28)           120.1244         estimate D2E/DX2                !
 ! A92   A(20,24,23)           109.1272         estimate D2E/DX2                !
 ! A93   A(20,24,25)           128.6425         estimate D2E/DX2                !
 ! A94   A(23,24,25)           122.2266         estimate D2E/DX2                !
 ! A95   A(24,25,26)           117.5833         estimate D2E/DX2                !
 ! A96   A(24,25,55)           122.0844         estimate D2E/DX2                !
 ! A97   A(26,25,55)           120.3266         estimate D2E/DX2                !
 ! A98   A(25,26,27)           119.9625         estimate D2E/DX2                !
 ! A99   A(25,26,56)           120.7445         estimate D2E/DX2                !
 ! A100  A(27,26,56)           119.2907         estimate D2E/DX2                !
 ! A101  A(26,27,28)           122.3773         estimate D2E/DX2                !
 ! A102  A(26,27,30)           118.8507         estimate D2E/DX2                !
 ! A103  A(28,27,30)           118.7472         estimate D2E/DX2                !
 ! A104  A(23,28,27)           117.7097         estimate D2E/DX2                !
 ! A105  A(23,28,57)           122.2019         estimate D2E/DX2                !
 ! A106  A(27,28,57)           120.0832         estimate D2E/DX2                !
 ! A107  A(5,29,31)            100.9617         estimate D2E/DX2                !
 ! A108  A(5,29,32)            103.2672         estimate D2E/DX2                !
 ! A109  A(5,29,33)            102.9545         estimate D2E/DX2                !
 ! A110  A(31,29,32)           115.3465         estimate D2E/DX2                !
 ! A111  A(31,29,33)           115.0978         estimate D2E/DX2                !
 ! A112  A(32,29,33)           116.1133         estimate D2E/DX2                !
 ! A113  A(27,30,34)           108.9387         estimate D2E/DX2                !
 ! A114  A(27,30,35)            98.8872         estimate D2E/DX2                !
 ! A115  A(27,30,36)           109.9406         estimate D2E/DX2                !
 ! A116  A(34,30,35)           108.4614         estimate D2E/DX2                !
 ! A117  A(34,30,36)           121.8335         estimate D2E/DX2                !
 ! A118  A(35,30,36)           106.2917         estimate D2E/DX2                !
 ! A119  A(30,35,58)           105.1339         estimate D2E/DX2                !
 ! D1    D(6,1,2,3)              0.2296         estimate D2E/DX2                !
 ! D2    D(6,1,2,9)            179.4844         estimate D2E/DX2                !
 ! D3    D(37,1,2,3)          -179.6939         estimate D2E/DX2                !
 ! D4    D(37,1,2,9)            -0.4391         estimate D2E/DX2                !
 ! D5    D(2,1,6,5)              0.2993         estimate D2E/DX2                !
 ! D6    D(2,1,6,39)          -178.854          estimate D2E/DX2                !
 ! D7    D(37,1,6,5)          -179.7762         estimate D2E/DX2                !
 ! D8    D(37,1,6,39)            1.0705         estimate D2E/DX2                !
 ! D9    D(1,2,3,4)              0.1791         estimate D2E/DX2                !
 ! D10   D(1,2,3,7)            179.1772         estimate D2E/DX2                !
 ! D11   D(9,2,3,4)           -179.2097         estimate D2E/DX2                !
 ! D12   D(9,2,3,7)             -0.2116         estimate D2E/DX2                !
 ! D13   D(1,2,9,8)            179.9612         estimate D2E/DX2                !
 ! D14   D(1,2,9,10)            -2.006          estimate D2E/DX2                !
 ! D15   D(3,2,9,8)             -0.698          estimate D2E/DX2                !
 ! D16   D(3,2,9,10)           177.3348         estimate D2E/DX2                !
 ! D17   D(2,3,4,5)             -1.0892         estimate D2E/DX2                !
 ! D18   D(2,3,4,38)           178.2031         estimate D2E/DX2                !
 ! D19   D(7,3,4,5)           -179.8057         estimate D2E/DX2                !
 ! D20   D(7,3,4,38)            -0.5134         estimate D2E/DX2                !
 ! D21   D(2,3,7,8)              0.9058         estimate D2E/DX2                !
 ! D22   D(2,3,7,40)          -118.6168         estimate D2E/DX2                !
 ! D23   D(2,3,7,41)           120.0369         estimate D2E/DX2                !
 ! D24   D(4,3,7,8)            179.7356         estimate D2E/DX2                !
 ! D25   D(4,3,7,40)            60.213          estimate D2E/DX2                !
 ! D26   D(4,3,7,41)           -61.1333         estimate D2E/DX2                !
 ! D27   D(3,4,5,6)              1.6249         estimate D2E/DX2                !
 ! D28   D(3,4,5,29)          -177.03           estimate D2E/DX2                !
 ! D29   D(38,4,5,6)          -177.7041         estimate D2E/DX2                !
 ! D30   D(38,4,5,29)            3.641          estimate D2E/DX2                !
 ! D31   D(4,5,6,1)             -1.2491         estimate D2E/DX2                !
 ! D32   D(4,5,6,39)           177.9331         estimate D2E/DX2                !
 ! D33   D(29,5,6,1)           177.3927         estimate D2E/DX2                !
 ! D34   D(29,5,6,39)           -3.425          estimate D2E/DX2                !
 ! D35   D(4,5,29,31)           90.7518         estimate D2E/DX2                !
 ! D36   D(4,5,29,32)         -149.666          estimate D2E/DX2                !
 ! D37   D(4,5,29,33)          -28.45           estimate D2E/DX2                !
 ! D38   D(6,5,29,31)          -87.9206         estimate D2E/DX2                !
 ! D39   D(6,5,29,32)           31.6616         estimate D2E/DX2                !
 ! D40   D(6,5,29,33)          152.8776         estimate D2E/DX2                !
 ! D41   D(3,7,8,9)             -1.3296         estimate D2E/DX2                !
 ! D42   D(3,7,8,13)           179.1237         estimate D2E/DX2                !
 ! D43   D(40,7,8,9)           119.3425         estimate D2E/DX2                !
 ! D44   D(40,7,8,13)          -60.2043         estimate D2E/DX2                !
 ! D45   D(41,7,8,9)          -122.2726         estimate D2E/DX2                !
 ! D46   D(41,7,8,13)           58.1807         estimate D2E/DX2                !
 ! D47   D(7,8,9,2)              1.2998         estimate D2E/DX2                !
 ! D48   D(7,8,9,10)          -176.7185         estimate D2E/DX2                !
 ! D49   D(13,8,9,2)          -179.1136         estimate D2E/DX2                !
 ! D50   D(13,8,9,10)            2.8681         estimate D2E/DX2                !
 ! D51   D(7,8,13,12)         -170.2607         estimate D2E/DX2                !
 ! D52   D(7,8,13,17)           10.6376         estimate D2E/DX2                !
 ! D53   D(9,8,13,12)           10.2451         estimate D2E/DX2                !
 ! D54   D(9,8,13,17)         -168.8567         estimate D2E/DX2                !
 ! D55   D(2,9,10,11)         -160.9364         estimate D2E/DX2                !
 ! D56   D(2,9,10,42)           76.6182         estimate D2E/DX2                !
 ! D57   D(2,9,10,43)          -38.7749         estimate D2E/DX2                !
 ! D58   D(8,9,10,11)           16.857          estimate D2E/DX2                !
 ! D59   D(8,9,10,42)         -105.5885         estimate D2E/DX2                !
 ! D60   D(8,9,10,43)          139.0185         estimate D2E/DX2                !
 ! D61   D(9,10,11,12)         -47.2699         estimate D2E/DX2                !
 ! D62   D(9,10,11,44)        -167.6715         estimate D2E/DX2                !
 ! D63   D(9,10,11,45)          73.8676         estimate D2E/DX2                !
 ! D64   D(42,10,11,12)         73.1254         estimate D2E/DX2                !
 ! D65   D(42,10,11,44)        -47.2761         estimate D2E/DX2                !
 ! D66   D(42,10,11,45)       -165.737          estimate D2E/DX2                !
 ! D67   D(43,10,11,12)       -167.2026         estimate D2E/DX2                !
 ! D68   D(43,10,11,44)         72.3959         estimate D2E/DX2                !
 ! D69   D(43,10,11,45)        -46.0651         estimate D2E/DX2                !
 ! D70   D(10,11,12,13)         59.671          estimate D2E/DX2                !
 ! D71   D(10,11,12,14)       -170.273          estimate D2E/DX2                !
 ! D72   D(10,11,12,46)        -56.1477         estimate D2E/DX2                !
 ! D73   D(44,11,12,13)        179.3957         estimate D2E/DX2                !
 ! D74   D(44,11,12,14)        -50.5483         estimate D2E/DX2                !
 ! D75   D(44,11,12,46)         63.577          estimate D2E/DX2                !
 ! D76   D(45,11,12,13)        -61.6437         estimate D2E/DX2                !
 ! D77   D(45,11,12,14)         68.4123         estimate D2E/DX2                !
 ! D78   D(45,11,12,46)       -177.4625         estimate D2E/DX2                !
 ! D79   D(11,12,13,8)         -41.5681         estimate D2E/DX2                !
 ! D80   D(11,12,13,17)        137.5596         estimate D2E/DX2                !
 ! D81   D(14,12,13,8)        -170.7844         estimate D2E/DX2                !
 ! D82   D(14,12,13,17)          8.3432         estimate D2E/DX2                !
 ! D83   D(46,12,13,8)          74.4721         estimate D2E/DX2                !
 ! D84   D(46,12,13,17)       -106.4003         estimate D2E/DX2                !
 ! D85   D(11,12,14,15)       -102.8299         estimate D2E/DX2                !
 ! D86   D(13,12,14,15)         24.456          estimate D2E/DX2                !
 ! D87   D(46,12,14,15)        140.9879         estimate D2E/DX2                !
 ! D88   D(8,13,17,16)         164.6398         Scan                            !
 ! D89   D(8,13,17,48)         -10.7046         estimate D2E/DX2                !
 ! D90   D(12,13,17,16)        -14.4219         estimate D2E/DX2                !
 ! D91   D(12,13,17,48)        170.2337         estimate D2E/DX2                !
 ! D92   D(12,14,15,16)        -48.3677         estimate D2E/DX2                !
 ! D93   D(12,14,15,18)       -169.8879         estimate D2E/DX2                !
 ! D94   D(12,14,15,47)         71.8153         estimate D2E/DX2                !
 ! D95   D(14,15,16,17)         41.2358         estimate D2E/DX2                !
 ! D96   D(14,15,16,21)       -143.9542         estimate D2E/DX2                !
 ! D97   D(18,15,16,17)        159.9556         estimate D2E/DX2                !
 ! D98   D(18,15,16,21)        -25.2344         estimate D2E/DX2                !
 ! D99   D(47,15,16,17)        -79.4247         estimate D2E/DX2                !
 ! D100  D(47,15,16,21)         95.3853         estimate D2E/DX2                !
 ! D101  D(14,15,18,19)        172.6481         estimate D2E/DX2                !
 ! D102  D(14,15,18,49)         51.8036         estimate D2E/DX2                !
 ! D103  D(14,15,18,50)        -65.4995         estimate D2E/DX2                !
 ! D104  D(16,15,18,19)         50.5931         estimate D2E/DX2                !
 ! D105  D(16,15,18,49)        -70.2514         estimate D2E/DX2                !
 ! D106  D(16,15,18,50)        172.4455         estimate D2E/DX2                !
 ! D107  D(47,15,18,19)        -69.3111         estimate D2E/DX2                !
 ! D108  D(47,15,18,49)        169.8444         estimate D2E/DX2                !
 ! D109  D(47,15,18,50)         52.5413         estimate D2E/DX2                !
 ! D110  D(15,16,17,13)        -10.6954         estimate D2E/DX2                !
 ! D111  D(15,16,17,48)        164.6507         estimate D2E/DX2                !
 ! D112  D(21,16,17,13)        174.7625         estimate D2E/DX2                !
 ! D113  D(21,16,17,48)         -9.8915         estimate D2E/DX2                !
 ! D114  D(15,16,21,20)          0.3238         estimate D2E/DX2                !
 ! D115  D(15,16,21,22)       -179.1046         estimate D2E/DX2                !
 ! D116  D(17,16,21,20)        174.6928         estimate D2E/DX2                !
 ! D117  D(17,16,21,22)         -4.7356         estimate D2E/DX2                !
 ! D118  D(15,18,19,20)        -51.615          estimate D2E/DX2                !
 ! D119  D(15,18,19,51)       -171.3249         estimate D2E/DX2                !
 ! D120  D(15,18,19,52)         69.5889         estimate D2E/DX2                !
 ! D121  D(49,18,19,20)         67.9063         estimate D2E/DX2                !
 ! D122  D(49,18,19,51)        -51.8036         estimate D2E/DX2                !
 ! D123  D(49,18,19,52)       -170.8898         estimate D2E/DX2                !
 ! D124  D(50,18,19,20)       -173.9295         estimate D2E/DX2                !
 ! D125  D(50,18,19,51)         66.3607         estimate D2E/DX2                !
 ! D126  D(50,18,19,52)        -52.7256         estimate D2E/DX2                !
 ! D127  D(18,19,20,21)         27.881          estimate D2E/DX2                !
 ! D128  D(18,19,20,24)       -157.552          estimate D2E/DX2                !
 ! D129  D(51,19,20,21)        148.5677         estimate D2E/DX2                !
 ! D130  D(51,19,20,24)        -36.8653         estimate D2E/DX2                !
 ! D131  D(52,19,20,21)        -94.6668         estimate D2E/DX2                !
 ! D132  D(52,19,20,24)         79.9002         estimate D2E/DX2                !
 ! D133  D(19,20,21,16)         -1.8461         estimate D2E/DX2                !
 ! D134  D(19,20,21,22)        177.6879         estimate D2E/DX2                !
 ! D135  D(24,20,21,16)       -177.1152         estimate D2E/DX2                !
 ! D136  D(24,20,21,22)          2.4188         estimate D2E/DX2                !
 ! D137  D(19,20,24,23)       -176.9403         estimate D2E/DX2                !
 ! D138  D(19,20,24,25)          2.3625         estimate D2E/DX2                !
 ! D139  D(21,20,24,23)         -1.8594         estimate D2E/DX2                !
 ! D140  D(21,20,24,25)        177.4434         estimate D2E/DX2                !
 ! D141  D(16,21,22,23)        177.5301         estimate D2E/DX2                !
 ! D142  D(16,21,22,53)         56.8895         estimate D2E/DX2                !
 ! D143  D(16,21,22,54)        -62.1203         estimate D2E/DX2                !
 ! D144  D(20,21,22,23)         -1.9611         estimate D2E/DX2                !
 ! D145  D(20,21,22,53)       -122.6017         estimate D2E/DX2                !
 ! D146  D(20,21,22,54)        118.3885         estimate D2E/DX2                !
 ! D147  D(21,22,23,24)          0.8727         estimate D2E/DX2                !
 ! D148  D(21,22,23,28)       -178.6413         estimate D2E/DX2                !
 ! D149  D(53,22,23,24)        120.6087         estimate D2E/DX2                !
 ! D150  D(53,22,23,28)        -58.9053         estimate D2E/DX2                !
 ! D151  D(54,22,23,24)       -118.6936         estimate D2E/DX2                !
 ! D152  D(54,22,23,28)         61.7923         estimate D2E/DX2                !
 ! D153  D(22,23,24,20)          0.4914         estimate D2E/DX2                !
 ! D154  D(22,23,24,25)       -178.8649         estimate D2E/DX2                !
 ! D155  D(28,23,24,20)       -179.9291         estimate D2E/DX2                !
 ! D156  D(28,23,24,25)          0.7146         estimate D2E/DX2                !
 ! D157  D(22,23,28,27)        179.7598         estimate D2E/DX2                !
 ! D158  D(22,23,28,57)          0.5858         estimate D2E/DX2                !
 ! D159  D(24,23,28,27)          0.2932         estimate D2E/DX2                !
 ! D160  D(24,23,28,57)       -178.8809         estimate D2E/DX2                !
 ! D161  D(20,24,25,26)       -179.9446         estimate D2E/DX2                !
 ! D162  D(20,24,25,55)         -0.8112         estimate D2E/DX2                !
 ! D163  D(23,24,25,26)         -0.7232         estimate D2E/DX2                !
 ! D164  D(23,24,25,55)        178.4102         estimate D2E/DX2                !
 ! D165  D(24,25,26,27)         -0.2643         estimate D2E/DX2                !
 ! D166  D(24,25,26,56)        179.1741         estimate D2E/DX2                !
 ! D167  D(55,25,26,27)       -179.4137         estimate D2E/DX2                !
 ! D168  D(55,25,26,56)          0.0247         estimate D2E/DX2                !
 ! D169  D(25,26,27,28)          1.2999         estimate D2E/DX2                !
 ! D170  D(25,26,27,30)        179.464          estimate D2E/DX2                !
 ! D171  D(56,26,27,28)       -178.1467         estimate D2E/DX2                !
 ! D172  D(56,26,27,30)          0.0174         estimate D2E/DX2                !
 ! D173  D(26,27,28,23)         -1.2981         estimate D2E/DX2                !
 ! D174  D(26,27,28,57)        177.8942         estimate D2E/DX2                !
 ! D175  D(30,27,28,23)       -179.4639         estimate D2E/DX2                !
 ! D176  D(30,27,28,57)         -0.2716         estimate D2E/DX2                !
 ! D177  D(26,27,30,34)        -15.9148         estimate D2E/DX2                !
 ! D178  D(26,27,30,35)         97.1961         estimate D2E/DX2                !
 ! D179  D(26,27,30,36)       -151.779          estimate D2E/DX2                !
 ! D180  D(28,27,30,34)        162.3167         estimate D2E/DX2                !
 ! D181  D(28,27,30,35)        -84.5724         estimate D2E/DX2                !
 ! D182  D(28,27,30,36)         26.4525         estimate D2E/DX2                !
 ! D183  D(27,30,35,58)        141.5054         estimate D2E/DX2                !
 ! D184  D(34,30,35,58)       -105.0085         estimate D2E/DX2                !
 ! D185  D(36,30,35,58)         27.5935         estimate D2E/DX2                !
 --------------------------------------------------------------------------------
 Trust Radius=3.00D-01 FncErr=1.00D-07 GrdErr=1.00D-06
 Number of optimizations in scan=   3
 Number of steps in this run=    348 maximum allowed number of steps=    348.
 GradGradGradGradGradGradGradGradGradGradGradGradGradGradGradGradGradGrad

                          Input orientation:                          
 ---------------------------------------------------------------------
 Center     Atomic      Atomic             Coordinates (Angstroms)
 Number     Number       Type             X           Y           Z
 ---------------------------------------------------------------------
      1          6           0       -6.866000    1.559000    0.204000
      2          6           0       -5.528000    1.941000    0.085000
      3          6           0       -5.112000    3.284000    0.118000
      4          6           0       -6.048000    4.293000    0.278000
      5          6           0       -7.402000    3.933000    0.380000
      6          6           0       -7.800000    2.586000    0.356000
      7          6           0       -3.608000    3.311000   -0.018000
      8          6           0       -3.256000    1.847000   -0.151000
      9          7           0       -4.381000    1.124000   -0.068000
     10          6           0       -4.424000   -0.346000   -0.086000
     11          6           0       -3.049000   -0.951000    0.205000
     12          6           0       -1.995000   -0.240000   -0.654000
     13          6           0       -1.986000    1.241000   -0.326000
     14          8           0       -0.721000   -0.870000   -0.623000
     15          6           0        0.301000   -0.281000    0.182000
     16          6           0        0.423000    1.213000   -0.059000
     17          6           0       -0.795000    1.925000   -0.194000
     18          6           0        1.599000   -1.004000   -0.175000
     19          6           0        2.807000   -0.344000    0.489000
     20          7           0        2.816000    1.091000    0.213000
     21          6           0        1.665000    1.806000   -0.026000
     22          6           0        2.039000    3.264000   -0.215000
     23          6           0        3.535000    3.254000    0.002000
     24          6           0        3.937000    1.927000    0.260000
     25          6           0        5.265000    1.590000    0.526000
     26          6           0        6.211000    2.623000    0.515000
     27          6           0        5.811000    3.932000    0.239000
     28          6           0        4.470000    4.273000   -0.008000
     29         16           0       -8.670000    5.263000    0.510000
     30         16           0        7.042000    5.231000    0.247000
     31          8           0       -8.999000    5.486000   -0.937000
     32          8           0       -9.754000    4.626000    1.323000
     33          8           0       -7.919000    6.380000    1.171000
     34          8           0        8.251000    4.739000    0.926000
     35          8           0        7.349000    5.305000   -1.390000
     36          8           0        6.413000    6.520000    0.610000
     37          1           0       -7.178000    0.513000    0.182000
     38          1           0       -5.787000    5.351000    0.340000
     39          1           0       -8.863000    2.370000    0.474000
     40          1           0       -3.111000    3.758000    0.858000
     41          1           0       -3.264000    3.872000   -0.903000
     42          1           0       -4.799000   -0.660000   -1.075000
     43          1           0       -5.165000   -0.663000    0.661000
     44          1           0       -3.071000   -2.024000   -0.033000
     45          1           0       -2.801000   -0.845000    1.274000
     46          1           0       -2.312000   -0.335000   -1.710000
     47          1           0        0.064000   -0.446000    1.254000
     48          1           0       -0.799000    3.016000   -0.117000
     49          1           0        1.709000   -0.977000   -1.271000
     50          1           0        1.544000   -2.059000    0.129000
     51          1           0        3.738000   -0.780000    0.099000
     52          1           0        2.800000   -0.501000    1.583000
     53          1           0        1.511000    3.909000    0.507000
     54          1           0        1.764000    3.619000   -1.222000
     55          1           0        5.569000    0.568000    0.750000
     56          1           0        7.260000    2.420000    0.729000
     57          1           0        4.194000    5.314000   -0.186000
     58          1           0        7.465000    6.255000   -1.585000
 ---------------------------------------------------------------------
 Stoichiometry    C25H22N2O7S2
 Framework group  C1[X(C25H22N2O7S2)]
 Deg. of freedom   168
 Full point group                 C1      NOp   1
 Largest Abelian subgroup         C1      NOp   1
 Largest concise Abelian subgroup C1      NOp   1
                         Standard orientation:                         
 ---------------------------------------------------------------------
 Center     Atomic      Atomic             Coordinates (Angstroms)
 Number     Number       Type             X           Y           Z
 ---------------------------------------------------------------------
      1          6           0       -6.109895    1.163797   -0.074480
      2          6           0       -4.769264    0.793053    0.050364
      3          6           0       -4.349127   -0.548441    0.091263
      4          6           0       -5.283552   -1.567615    0.002326
      5          6           0       -6.639902   -1.217876   -0.104059
      6          6           0       -7.042163    0.127130   -0.154397
      7          6           0       -2.843511   -0.563356    0.210176
      8          6           0       -2.494913    0.906873    0.252574
      9          7           0       -3.623287    1.620715    0.141013
     10          6           0       -3.671066    3.089108    0.073106
     11          6           0       -2.301746    3.679638   -0.269777
     12          6           0       -1.235039    3.023223    0.616549
     13          6           0       -1.224962    1.525525    0.376079
     14          8           0        0.036343    3.653729    0.532965
     15          6           0        1.050547    3.021151   -0.248486
     16          6           0        1.180530    1.544244    0.078397
     17          6           0       -0.033322    0.838148    0.269927
     18          6           0        2.350296    3.767380    0.049471
     19          6           0        3.552429    3.072717   -0.589341
     20          7           0        3.569642    1.656463   -0.229604
     21          6           0        2.424051    0.953668    0.065093
     22          6           0        2.805263   -0.489682    0.334866
     23          6           0        4.298492   -0.488444    0.099339
     24          6           0        4.692831    0.822160   -0.241118
     25          6           0        6.016368    1.146498   -0.542718
     26          6           0        6.965940    0.118478   -0.482612
     27          6           0        6.573757   -1.173093   -0.125270
     28          6           0        5.237005   -1.502576    0.157758
     29         16           0       -7.904847   -2.556620   -0.140114
     30         16           0        7.808983   -2.467004   -0.071989
     31          8           0       -8.215592   -2.695014    1.321414
     32          8           0       -9.000745   -1.971452   -0.975806
     33          8           0       -7.158087   -3.708541   -0.743470
     34          8           0        9.008016   -2.012544   -0.793496
     35          8           0        8.135975   -2.443772    1.562646
     36          8           0        7.180035   -3.776807   -0.350863
     37          1           0       -6.425163    2.208439   -0.110177
     38          1           0       -5.019722   -2.626725   -0.000574
     39          1           0       -8.107239    0.332961   -0.271855
     40          1           0       -2.355606   -1.059766   -0.644060
     41          1           0       -2.486944   -1.070408    1.122339
     42          1           0       -4.035164    3.459723    1.046461
     43          1           0       -4.422106    3.359634   -0.682099
     44          1           0       -2.324521    4.764715   -0.095004
     45          1           0       -2.066312    3.511616   -1.333657
     46          1           0       -1.539587    3.179314    1.668944
     47          1           0        0.800061    3.122180   -1.325346
     48          1           0       -0.034540   -0.255499    0.257240
     49          1           0        2.473612    3.805182    1.143732
     50          1           0        2.288041    4.802523   -0.315317
     51          1           0        4.486581    3.533399   -0.237078
     52          1           0        3.531686    3.165084   -1.690509
     53          1           0        2.270782   -1.177445   -0.341451
     54          1           0        2.543651   -0.785580    1.364285
     55          1           0        6.314162    2.154368   -0.830108
     56          1           0        8.011584    0.311358   -0.721011
     57          1           0        4.966717   -2.532043    0.400005
     58          1           0        8.257553   -3.380345    1.811711
 ---------------------------------------------------------------------
 Rotational constants (GHZ):      0.1787157      0.0299184      0.0260352
 Standard basis: CC-pVDZ (5D, 7F)
 There are   622 symmetry adapted basis functions of A   symmetry.
 Integral buffers will be    131072 words long.
 Raffenetti 2 integral format.
 Two-electron integral symmetry is turned on.
   622 basis functions,  1418 primitive gaussians,   658 cartesian basis functions
   137 alpha electrons      137 beta electrons
       nuclear repulsion energy      3958.3699132388 Hartrees.
 NAtoms=   58 NActive=   58 NUniq=   58 SFac= 1.00D+00 NAtFMM=   50 NAOKFM=T Big=T
 One-electron integrals computed using PRISM.
 NBasis=   622 RedAO= T  NBF=   622
 NBsUse=   622 1.00D-06 NBFU=   622
 Harris functional with IExCor=  402 diagonalized for initial guess.
 ExpMin= 1.22D-01 ExpMax= 1.11D+05 ExpMxC= 1.07D+03 IAcc=2 IRadAn=         0 AccDes= 0.00D+00
 HarFok:  IExCor=  402 AccDes= 0.00D+00 IRadAn=         0 IDoV= 1
 ScaDFX=  1.000000  1.000000  1.000000  1.000000
 FoFCou: FMM=F IPFlag=           0 FMFlag=      100000 FMFlg1=        2001
         NFxFlg=           0 DoJE=T BraDBF=F KetDBF=T FulRan=T
         Omega=  0.000000  0.000000  1.000000  0.000000  0.000000 ICntrl=     500 IOpCl=  0
         NMat0=    1 NMatS0=    1 NMatT0=    0 NMatD0=    1 NMtDS0=    0 NMtDT0=    0
         I1Cent=           4 NGrid=           0.
 Petite list used in FoFCou.
 Initial guess orbital symmetries:
       Occupied  (A) (A) (A) (A) (A) (A) (A) (A) (A) (A) (A) (A)
                 (A) (A) (A) (A) (A) (A) (A) (A) (A) (A) (A) (A)
                 (A) (A) (A) (A) (A) (A) (A) (A) (A) (A) (A) (A)
                 (A) (A) (A) (A) (A) (A) (A) (A) (A) (A) (A) (A)
                 (A) (A) (A) (A) (A) (A) (A) (A) (A) (A) (A) (A)
                 (A) (A) (A) (A) (A) (A) (A) (A) (A) (A) (A) (A)
                 (A) (A) (A) (A) (A) (A) (A) (A) (A) (A) (A) (A)
                 (A) (A) (A) (A) (A) (A) (A) (A) (A) (A) (A) (A)
                 (A) (A) (A) (A) (A) (A) (A) (A) (A) (A) (A) (A)
                 (A) (A) (A) (A) (A) (A) (A) (A) (A) (A) (A) (A)
                 (A) (A) (A) (A) (A) (A) (A) (A) (A) (A) (A) (A)
                 (A) (A) (A) (A) (A)
       Virtual   (A) (A) (A) (A) (A) (A) (A) (A) (A) (A) (A) (A)
                 (A) (A) (A) (A) (A) (A) (A) (A) (A) (A) (A) (A)
                 (A) (A) (A) (A) (A) (A) (A) (A) (A) (A) (A) (A)
                 (A) (A) (A) (A) (A) (A) (A) (A) (A) (A) (A) (A)
                 (A) (A) (A) (A) (A) (A) (A) (A) (A) (A) (A) (A)
                 (A) (A) (A) (A) (A) (A) (A) (A) (A) (A) (A) (A)
                 (A) (A) (A) (A) (A) (A) (A) (A) (A) (A) (A) (A)
                 (A) (A) (A) (A) (A) (A) (A) (A) (A) (A) (A) (A)
                 (A) (A) (A) (A) (A) (A) (A) (A) (A) (A) (A) (A)
                 (A) (A) (A) (A) (A) (A) (A) (A) (A) (A) (A) (A)
                 (A) (A) (A) (A) (A) (A) (A) (A) (A) (A) (A) (A)
                 (A) (A) (A) (A) (A) (A) (A) (A) (A) (A) (A) (A)
                 (A) (A) (A) (A) (A) (A) (A) (A) (A) (A) (A) (A)
                 (A) (A) (A) (A) (A) (A) (A) (A) (A) (A) (A) (A)
                 (A) (A) (A) (A) (A) (A) (A) (A) (A) (A) (A) (A)
                 (A) (A) (A) (A) (A) (A) (A) (A) (A) (A) (A) (A)
                 (A) (A) (A) (A) (A) (A) (A) (A) (A) (A) (A) (A)
                 (A) (A) (A) (A) (A) (A) (A) (A) (A) (A) (A) (A)
                 (A) (A) (A) (A) (A) (A) (A) (A) (A) (A) (A) (A)
                 (A) (A) (A) (A) (A) (A) (A) (A) (A) (A) (A) (A)
                 (A) (A) (A) (A) (A) (A) (A) (A) (A) (A) (A) (A)
                 (A) (A) (A) (A) (A) (A) (A) (A) (A) (A) (A) (A)
                 (A) (A) (A) (A) (A) (A) (A) (A) (A) (A) (A) (A)
                 (A) (A) (A) (A) (A) (A) (A) (A) (A) (A) (A) (A)
                 (A) (A) (A) (A) (A) (A) (A) (A) (A) (A) (A) (A)
                 (A) (A) (A) (A) (A) (A) (A) (A) (A) (A) (A) (A)
                 (A) (A) (A) (A) (A) (A) (A) (A) (A) (A) (A) (A)
                 (A) (A) (A) (A) (A) (A) (A) (A) (A) (A) (A) (A)
                 (A) (A) (A) (A) (A) (A) (A) (A) (A) (A) (A) (A)
                 (A) (A) (A) (A) (A) (A) (A) (A) (A) (A) (A) (A)
                 (A) (A) (A) (A) (A) (A) (A) (A) (A) (A) (A) (A)
                 (A) (A) (A) (A) (A) (A) (A) (A) (A) (A) (A) (A)
                 (A) (A) (A) (A) (A) (A) (A) (A) (A) (A) (A) (A)
                 (A) (A) (A) (A) (A) (A) (A) (A) (A) (A) (A) (A)
                 (A) (A) (A) (A) (A) (A) (A) (A) (A) (A) (A) (A)
                 (A) (A) (A) (A) (A) (A) (A) (A) (A) (A) (A) (A)
                 (A) (A) (A) (A) (A) (A) (A) (A) (A) (A) (A) (A)
                 (A) (A) (A) (A) (A) (A) (A) (A) (A) (A) (A) (A)
                 (A) (A) (A) (A) (A) (A) (A) (A) (A) (A) (A) (A)
                 (A) (A) (A) (A) (A) (A) (A) (A) (A) (A) (A) (A)
                 (A) (A) (A) (A) (A)
 The electronic state of the initial guess is 1-A.
 Requested convergence on RMS density matrix=1.00D-08 within 128 cycles.
 Requested convergence on MAX density matrix=1.00D-06.
 Requested convergence on             energy=1.00D-06.
 No special actions if energy rises.
 Integral accuracy reduced to 1.0D-05 until final iterations.
 EnCoef did     4 forward-backward iterations
 EnCoef did     6 forward-backward iterations
 EnCoef did     1 forward-backward iterations
 Initial convergence to 1.0D-05 achieved.  Increase integral accuracy.
 SCF Done:  E(RB3LYP) =  -2398.26711824     A.U. after   22 cycles
             Convg  =    0.9583D-08             -V/T =  2.0051

 **********************************************************************

            Population analysis using the SCF density.

 **********************************************************************

 Orbital symmetries:
       Occupied  (A) (A) (A) (A) (A) (A) (A) (A) (A) (A) (A) (A)
                 (A) (A) (A) (A) (A) (A) (A) (A) (A) (A) (A) (A)
                 (A) (A) (A) (A) (A) (A) (A) (A) (A) (A) (A) (A)
                 (A) (A) (A) (A) (A) (A) (A) (A) (A) (A) (A) (A)
                 (A) (A) (A) (A) (A) (A) (A) (A) (A) (A) (A) (A)
                 (A) (A) (A) (A) (A) (A) (A) (A) (A) (A) (A) (A)
                 (A) (A) (A) (A) (A) (A) (A) (A) (A) (A) (A) (A)
                 (A) (A) (A) (A) (A) (A) (A) (A) (A) (A) (A) (A)
                 (A) (A) (A) (A) (A) (A) (A) (A) (A) (A) (A) (A)
                 (A) (A) (A) (A) (A) (A) (A) (A) (A) (A) (A) (A)
                 (A) (A) (A) (A) (A) (A) (A) (A) (A) (A) (A) (A)
                 (A) (A) (A) (A) (A)
       Virtual   (A) (A) (A) (A) (A) (A) (A) (A) (A) (A) (A) (A)
                 (A) (A) (A) (A) (A) (A) (A) (A) (A) (A) (A) (A)
                 (A) (A) (A) (A) (A) (A) (A) (A) (A) (A) (A) (A)
                 (A) (A) (A) (A) (A) (A) (A) (A) (A) (A) (A) (A)
                 (A) (A) (A) (A) (A) (A) (A) (A) (A) (A) (A) (A)
                 (A) (A) (A) (A) (A) (A) (A) (A) (A) (A) (A) (A)
                 (A) (A) (A) (A) (A) (A) (A) (A) (A) (A) (A) (A)
                 (A) (A) (A) (A) (A) (A) (A) (A) (A) (A) (A) (A)
                 (A) (A) (A) (A) (A) (A) (A) (A) (A) (A) (A) (A)
                 (A) (A) (A) (A) (A) (A) (A) (A) (A) (A) (A) (A)
                 (A) (A) (A) (A) (A) (A) (A) (A) (A) (A) (A) (A)
                 (A) (A) (A) (A) (A) (A) (A) (A) (A) (A) (A) (A)
                 (A) (A) (A) (A) (A) (A) (A) (A) (A) (A) (A) (A)
                 (A) (A) (A) (A) (A) (A) (A) (A) (A) (A) (A) (A)
                 (A) (A) (A) (A) (A) (A) (A) (A) (A) (A) (A) (A)
                 (A) (A) (A) (A) (A) (A) (A) (A) (A) (A) (A) (A)
                 (A) (A) (A) (A) (A) (A) (A) (A) (A) (A) (A) (A)
                 (A) (A) (A) (A) (A) (A) (A) (A) (A) (A) (A) (A)
                 (A) (A) (A) (A) (A) (A) (A) (A) (A) (A) (A) (A)
                 (A) (A) (A) (A) (A) (A) (A) (A) (A) (A) (A) (A)
                 (A) (A) (A) (A) (A) (A) (A) (A) (A) (A) (A) (A)
                 (A) (A) (A) (A) (A) (A) (A) (A) (A) (A) (A) (A)
                 (A) (A) (A) (A) (A) (A) (A) (A) (A) (A) (A) (A)
                 (A) (A) (A) (A) (A) (A) (A) (A) (A) (A) (A) (A)
                 (A) (A) (A) (A) (A) (A) (A) (A) (A) (A) (A) (A)
                 (A) (A) (A) (A) (A) (A) (A) (A) (A) (A) (A) (A)
                 (A) (A) (A) (A) (A) (A) (A) (A) (A) (A) (A) (A)
                 (A) (A) (A) (A) (A) (A) (A) (A) (A) (A) (A) (A)
                 (A) (A) (A) (A) (A) (A) (A) (A) (A) (A) (A) (A)
                 (A) (A) (A) (A) (A) (A) (A) (A) (A) (A) (A) (A)
                 (A) (A) (A) (A) (A) (A) (A) (A) (A) (A) (A) (A)
                 (A) (A) (A) (A) (A) (A) (A) (A) (A) (A) (A) (A)
                 (A) (A) (A) (A) (A) (A) (A) (A) (A) (A) (A) (A)
                 (A) (A) (A) (A) (A) (A) (A) (A) (A) (A) (A) (A)
                 (A) (A) (A) (A) (A) (A) (A) (A) (A) (A) (A) (A)
                 (A) (A) (A) (A) (A) (A) (A) (A) (A) (A) (A) (A)
                 (A) (A) (A) (A) (A) (A) (A) (A) (A) (A) (A) (A)
                 (A) (A) (A) (A) (A) (A) (A) (A) (A) (A) (A) (A)
                 (A) (A) (A) (A) (A) (A) (A) (A) (A) (A) (A) (A)
                 (A) (A) (A) (A) (A) (A) (A) (A) (A) (A) (A) (A)
                 (A) (A) (A) (A) (A)
 The electronic state is 1-A.
 Alpha  occ. eigenvalues --  -89.14950 -89.01753 -19.21112 -19.19723 -19.16656
 Alpha  occ. eigenvalues --  -19.16586 -19.02815 -19.02798 -19.02711 -14.45949
 Alpha  occ. eigenvalues --  -14.44610 -10.30983 -10.30773 -10.30000 -10.29949
 Alpha  occ. eigenvalues --  -10.29555 -10.29514 -10.29255 -10.27027 -10.26548
 Alpha  occ. eigenvalues --  -10.26489 -10.25953 -10.25798 -10.25608 -10.25447
 Alpha  occ. eigenvalues --  -10.25422 -10.25369 -10.25353 -10.24943 -10.24876
 Alpha  occ. eigenvalues --  -10.24571 -10.22206 -10.21477 -10.19611 -10.19382
 Alpha  occ. eigenvalues --  -10.18921  -8.18112  -8.04589  -6.14536  -6.14380
 Alpha  occ. eigenvalues --   -6.14241  -6.00919  -6.00892  -6.00883  -1.15785
 Alpha  occ. eigenvalues --   -1.09487  -1.06147  -1.06036  -1.05272  -1.03071
 Alpha  occ. eigenvalues --   -1.01664  -0.92539  -0.89728  -0.89030  -0.88414
 Alpha  occ. eigenvalues --   -0.88120  -0.87739  -0.86831  -0.85200  -0.82508
 Alpha  occ. eigenvalues --   -0.81594  -0.80085  -0.77645  -0.77076  -0.75002
 Alpha  occ. eigenvalues --   -0.74402  -0.73318  -0.71314  -0.68520  -0.68011
 Alpha  occ. eigenvalues --   -0.66464  -0.65260  -0.64688  -0.62522  -0.61644
 Alpha  occ. eigenvalues --   -0.59942  -0.58704  -0.58028  -0.57690  -0.57107
 Alpha  occ. eigenvalues --   -0.55929  -0.55091  -0.54538  -0.54183  -0.53221
 Alpha  occ. eigenvalues --   -0.52542  -0.52464  -0.51353  -0.50858  -0.50141
 Alpha  occ. eigenvalues --   -0.49704  -0.49243  -0.48715  -0.48426  -0.47796
 Alpha  occ. eigenvalues --   -0.47761  -0.46759  -0.46361  -0.45916  -0.45725
 Alpha  occ. eigenvalues --   -0.45189  -0.44789  -0.44615  -0.44264  -0.43957
 Alpha  occ. eigenvalues --   -0.43297  -0.43042  -0.42331  -0.41587  -0.40656
 Alpha  occ. eigenvalues --   -0.40083  -0.39991  -0.39384  -0.38886  -0.38350
 Alpha  occ. eigenvalues --   -0.38083  -0.36792  -0.36355  -0.36190  -0.35902
 Alpha  occ. eigenvalues --   -0.34848  -0.34727  -0.34133  -0.34132  -0.32066
 Alpha  occ. eigenvalues --   -0.31406  -0.31348  -0.30620  -0.27132  -0.26735
 Alpha  occ. eigenvalues --   -0.23971  -0.23688  -0.23529  -0.20900  -0.20645
 Alpha  occ. eigenvalues --   -0.19678  -0.16520
 Alpha virt. eigenvalues --   -0.13666  -0.07445  -0.07188  -0.04601  -0.02106
 Alpha virt. eigenvalues --   -0.00561  -0.00005   0.00264   0.00835   0.00990
 Alpha virt. eigenvalues --    0.02065   0.03005   0.03901   0.03989   0.04886
 Alpha virt. eigenvalues --    0.05143   0.05603   0.05843   0.06685   0.06848
 Alpha virt. eigenvalues --    0.07201   0.07420   0.08129   0.08433   0.08510
 Alpha virt. eigenvalues --    0.08901   0.09287   0.09459   0.09972   0.10024
 Alpha virt. eigenvalues --    0.10427   0.10964   0.11558   0.11783   0.12136
 Alpha virt. eigenvalues --    0.12463   0.12905   0.13510   0.14607   0.14932
 Alpha virt. eigenvalues --    0.15412   0.15939   0.16177   0.16998   0.17683
 Alpha virt. eigenvalues --    0.17765   0.18495   0.19354   0.19998   0.20770
 Alpha virt. eigenvalues --    0.21454   0.22761   0.23800   0.24212   0.24598
 Alpha virt. eigenvalues --    0.26487   0.27427   0.27470   0.27853   0.28501
 Alpha virt. eigenvalues --    0.29320   0.29881   0.31237   0.31685   0.32933
 Alpha virt. eigenvalues --    0.33547   0.34405   0.34606   0.35477   0.36381
 Alpha virt. eigenvalues --    0.37295   0.37785   0.38341   0.38707   0.39067
 Alpha virt. eigenvalues --    0.39772   0.40303   0.40413   0.40872   0.41034
 Alpha virt. eigenvalues --    0.41490   0.41809   0.42183   0.42848   0.42980
 Alpha virt. eigenvalues --    0.43470   0.43589   0.44333   0.44527   0.45258
 Alpha virt. eigenvalues --    0.45607   0.45907   0.46161   0.46693   0.47220
 Alpha virt. eigenvalues --    0.47669   0.48177   0.48577   0.48892   0.49175
 Alpha virt. eigenvalues --    0.49849   0.49898   0.50246   0.50735   0.51017
 Alpha virt. eigenvalues --    0.51504   0.52051   0.52318   0.52597   0.52928
 Alpha virt. eigenvalues --    0.53475   0.54123   0.54496   0.54847   0.55584
 Alpha virt. eigenvalues --    0.55739   0.56390   0.56533   0.56804   0.57322
 Alpha virt. eigenvalues --    0.57444   0.57782   0.58054   0.58302   0.58725
 Alpha virt. eigenvalues --    0.59091   0.59415   0.59971   0.60130   0.60557
 Alpha virt. eigenvalues --    0.61080   0.61245   0.61374   0.62171   0.62482
 Alpha virt. eigenvalues --    0.62693   0.62916   0.63332   0.63673   0.63795
 Alpha virt. eigenvalues --    0.64063   0.65035   0.65099   0.65250   0.65801
 Alpha virt. eigenvalues --    0.66088   0.66705   0.67353   0.67674   0.68460
 Alpha virt. eigenvalues --    0.68877   0.69234   0.69495   0.69604   0.70263
 Alpha virt. eigenvalues --    0.70934   0.72764   0.73036   0.73906   0.74746
 Alpha virt. eigenvalues --    0.75963   0.77114   0.77801   0.78316   0.79121
 Alpha virt. eigenvalues --    0.79548   0.80913   0.81735   0.82161   0.82781
 Alpha virt. eigenvalues --    0.83214   0.83905   0.84548   0.84892   0.85352
 Alpha virt. eigenvalues --    0.86021   0.86164   0.86613   0.87294   0.87818
 Alpha virt. eigenvalues --    0.88345   0.89099   0.89148   0.89386   0.91073
 Alpha virt. eigenvalues --    0.91649   0.92006   0.92937   0.93271   0.93395
 Alpha virt. eigenvalues --    0.93960   0.94531   0.95099   0.95525   0.95985
 Alpha virt. eigenvalues --    0.96489   0.96978   0.98295   0.98580   0.99173
 Alpha virt. eigenvalues --    0.99282   1.00614   1.00750   1.00936   1.01991
 Alpha virt. eigenvalues --    1.02770   1.03971   1.04642   1.04829   1.05647
 Alpha virt. eigenvalues --    1.06519   1.07001   1.07474   1.08238   1.08791
 Alpha virt. eigenvalues --    1.09037   1.10324   1.10594   1.11385   1.11691
 Alpha virt. eigenvalues --    1.13230   1.13878   1.13952   1.14477   1.14817
 Alpha virt. eigenvalues --    1.15668   1.16169   1.16386   1.16643   1.16891
 Alpha virt. eigenvalues --    1.17433   1.19285   1.20021   1.20305   1.20788
 Alpha virt. eigenvalues --    1.21149   1.21333   1.22207   1.22790   1.23378
 Alpha virt. eigenvalues --    1.24370   1.25155   1.25756   1.25905   1.26568
 Alpha virt. eigenvalues --    1.27330   1.28778   1.29141   1.29332   1.30855
 Alpha virt. eigenvalues --    1.31910   1.32444   1.33176   1.33829   1.34190
 Alpha virt. eigenvalues --    1.34306   1.35473   1.36270   1.36864   1.36969
 Alpha virt. eigenvalues --    1.37750   1.38905   1.39554   1.40475   1.41139
 Alpha virt. eigenvalues --    1.41961   1.42372   1.42745   1.43816   1.44665
 Alpha virt. eigenvalues --    1.45146   1.45295   1.46278   1.47616   1.48170
 Alpha virt. eigenvalues --    1.48651   1.49398   1.49767   1.50029   1.50572
 Alpha virt. eigenvalues --    1.51447   1.52049   1.52499   1.52742   1.53214
 Alpha virt. eigenvalues --    1.53601   1.54174   1.54906   1.55451   1.55773
 Alpha virt. eigenvalues --    1.57021   1.57339   1.58178   1.58789   1.59743
 Alpha virt. eigenvalues --    1.59826   1.60606   1.60783   1.61320   1.61483
 Alpha virt. eigenvalues --    1.62148   1.62808   1.63160   1.63948   1.64152
 Alpha virt. eigenvalues --    1.64914   1.65634   1.65868   1.66158   1.66289
 Alpha virt. eigenvalues --    1.67112   1.67170   1.67584   1.68220   1.68478
 Alpha virt. eigenvalues --    1.69631   1.70105   1.70926   1.71629   1.71826
 Alpha virt. eigenvalues --    1.71863   1.72338   1.73461   1.73704   1.74066
 Alpha virt. eigenvalues --    1.74991   1.75176   1.75959   1.76399   1.76838
 Alpha virt. eigenvalues --    1.76969   1.77216   1.77739   1.78061   1.78373
 Alpha virt. eigenvalues --    1.79523   1.79669   1.80781   1.82032   1.82656
 Alpha virt. eigenvalues --    1.83320   1.83941   1.84462   1.84584   1.85199
 Alpha virt. eigenvalues --    1.86762   1.87478   1.87768   1.88477   1.89089
 Alpha virt. eigenvalues --    1.89585   1.90118   1.90599   1.91131   1.92254
 Alpha virt. eigenvalues --    1.92611   1.93545   1.94429   1.95244   1.96039
 Alpha virt. eigenvalues --    1.96601   1.97929   1.98753   1.99928   2.00576
 Alpha virt. eigenvalues --    2.01036   2.01415   2.01587   2.02384   2.02589
 Alpha virt. eigenvalues --    2.03867   2.04194   2.05010   2.05263   2.05678
 Alpha virt. eigenvalues --    2.06206   2.07281   2.07683   2.08358   2.09018
 Alpha virt. eigenvalues --    2.10257   2.10588   2.11540   2.12652   2.13183
 Alpha virt. eigenvalues --    2.13385   2.13657   2.14485   2.15486   2.16164
 Alpha virt. eigenvalues --    2.16526   2.17029   2.17817   2.18945   2.20256
 Alpha virt. eigenvalues --    2.22368   2.23423   2.23751   2.25032   2.26560
 Alpha virt. eigenvalues --    2.26773   2.27667   2.29779   2.30400   2.31369
 Alpha virt. eigenvalues --    2.32706   2.33698   2.35450   2.36651   2.36960
 Alpha virt. eigenvalues --    2.37511   2.39507   2.39658   2.41033   2.41895
 Alpha virt. eigenvalues --    2.42722   2.43608   2.45172   2.47705   2.48394
 Alpha virt. eigenvalues --    2.48884   2.49644   2.51646   2.52258   2.52960
 Alpha virt. eigenvalues --    2.53964   2.54783   2.55133   2.55910   2.56325
 Alpha virt. eigenvalues --    2.57458   2.58292   2.58785   2.59326   2.59669
 Alpha virt. eigenvalues --    2.60022   2.60288   2.61584   2.61614   2.62420
 Alpha virt. eigenvalues --    2.63055   2.63646   2.64584   2.67840   2.70158
 Alpha virt. eigenvalues --    2.70404   2.70607   2.70801   2.72196   2.73268
 Alpha virt. eigenvalues --    2.74681   2.75500   2.76258   2.77018   2.77917
 Alpha virt. eigenvalues --    2.79558   2.81349   2.82990   2.84018   2.85795
 Alpha virt. eigenvalues --    2.86408   2.87706   2.88543   2.89502   2.91343
 Alpha virt. eigenvalues --    2.95015   2.95600   2.96899   2.97904   2.99418
 Alpha virt. eigenvalues --    2.99587   3.03835   3.07252   3.08063   3.10825
 Alpha virt. eigenvalues --    3.22533   3.25934   3.31009   3.33363   3.35619
 Alpha virt. eigenvalues --    3.36825   3.38182   3.41033   3.41840   3.58169
          Condensed to atoms (all electrons):
 Mulliken atomic charges:
              1
     1  C   -0.009440
     2  C    0.223429
     3  C   -0.131865
     4  C    0.043387
     5  C   -0.243227
     6  C    0.111168
     7  C    0.179582
     8  C    0.080695
     9  N   -0.265479
    10  C    0.088322
    11  C    0.047629
    12  C    0.157193
    13  C   -0.118145
    14  O   -0.319801
    15  C    0.129399
    16  C   -0.098469
    17  C    0.009514
    18  C    0.038473
    19  C    0.095735
    20  N   -0.313988
    21  C    0.081996
    22  C    0.186878
    23  C   -0.155143
    24  C    0.268097
    25  C   -0.010123
    26  C    0.108551
    27  C   -0.251779
    28  C    0.049993
    29  S    0.986383
    30  S    0.994661
    31  O   -0.517310
    32  O   -0.519918
    33  O   -0.524896
    34  O   -0.410353
    35  O   -0.325242
    36  O   -0.438069
    37  H   -0.027858
    38  H   -0.024986
    39  H   -0.006400
    40  H    0.081326
    41  H    0.081341
    42  H    0.058144
    43  H    0.061025
    44  H    0.031164
    45  H    0.024630
    46  H    0.026462
    47  H    0.011908
    48  H   -0.026090
    49  H    0.032416
    50  H    0.026611
    51  H    0.048146
    52  H    0.045548
    53  H    0.079214
    54  H    0.080006
    55  H   -0.011006
    56  H    0.005030
    57  H   -0.014855
    58  H    0.190385
 Sum of Mulliken atomic charges =   0.00000
 Mulliken charges with hydrogens summed into heavy atoms:
              1
     1  C   -0.037298
     2  C    0.223429
     3  C   -0.131865
     4  C    0.018400
     5  C   -0.243227
     6  C    0.104768
     7  C    0.342250
     8  C    0.080695
     9  N   -0.265479
    10  C    0.207491
    11  C    0.103422
    12  C    0.183655
    13  C   -0.118145
    14  O   -0.319801
    15  C    0.141307
    16  C   -0.098469
    17  C   -0.016576
    18  C    0.097500
    19  C    0.189429
    20  N   -0.313988
    21  C    0.081996
    22  C    0.346098
    23  C   -0.155143
    24  C    0.268097
    25  C   -0.021129
    26  C    0.113581
    27  C   -0.251779
    28  C    0.035138
    29  S    0.986383
    30  S    0.994661
    31  O   -0.517310
    32  O   -0.519918
    33  O   -0.524896
    34  O   -0.410353
    35  O   -0.134856
    36  O   -0.438069
 Sum of Mulliken charges with hydrogens summed into heavy atoms =   0.00000
 Electronic spatial extent (au):  <R**2>=          36749.8354
 Charge=              0.0000 electrons
 Dipole moment (field-independent basis, Debye):
    X=             22.9029    Y=             16.9991    Z=              1.4856  Tot=             28.5608
 Quadrupole moment (field-independent basis, Debye-Ang):
   XX=           -438.7558   YY=           -227.5685   ZZ=           -224.9573
   XY=            -76.7742   XZ=              7.4042   YZ=            -14.9192
 Traceless Quadrupole moment (field-independent basis, Debye-Ang):
   XX=           -141.6619   YY=             69.5254   ZZ=             72.1366
   XY=            -76.7742   XZ=              7.4042   YZ=            -14.9192
 Octapole moment (field-independent basis, Debye-Ang**2):
  XXX=           1638.6766  YYY=            148.8631  ZZZ=              5.5190  XYY=            239.4346
  XXY=            866.2669  XXZ=            142.6686  XZZ=             70.9576  YZZ=             -0.6838
  YYZ=             28.1890  XYZ=            -75.7716
 Hexadecapole moment (field-independent basis, Debye-Ang**3):
 XXXX=         -59163.4437 YYYY=          -6885.5628 ZZZZ=           -585.8179 XXXY=          -5005.0541
 XXXZ=            762.6477 YYYX=           -887.4938 YYYZ=           -225.2385 ZZZX=             82.4961
 ZZZY=            -12.3311 XXYY=          -9215.5056 XXZZ=          -7240.3643 YYZZ=          -1204.6785
 XXYZ=           -699.4910 YYXZ=            206.4417 ZZXY=           -234.1333
 N-N= 3.958369913239D+03 E-N=-1.353923987974D+04  KE= 2.386023087375D+03
 Calling FoFJK, ICntrl=      2127 FMM=T ISym2X=0 I1Cent= 0 IOpClX= 0 NMat=1 NMatS=1 NMatT=0.
 ***** Axes restored to original set *****
 -------------------------------------------------------------------
 Center     Atomic                   Forces (Hartrees/Bohr)
 Number     Number              X              Y              Z
 -------------------------------------------------------------------
      1        6           0.000159768    0.000076746    0.000129169
      2        6           0.000128547   -0.000143600   -0.000203834
      3        6          -0.000410203    0.000506096    0.000207624
      4        6           0.000360495   -0.000854621   -0.000250509
      5        6          -0.000036577    0.000016452    0.000236346
      6        6          -0.000014512    0.000271809   -0.000151426
      7        6          -0.000267654   -0.000722809   -0.000334782
      8        6           0.000004829    0.000337163    0.000020987
      9        7           0.000176090    0.000297789    0.000144281
     10        6          -0.000353503   -0.000221559   -0.000254783
     11        6           0.000200202    0.000336293    0.000042499
     12        6          -0.000309743    0.000239839    0.000410131
     13        6           0.000262796   -0.000124292   -0.000101480
     14        8           0.000100974    0.000082301    0.000097008
     15        6           0.000408648   -0.000096384    0.000000067
     16        6          -0.000068597    0.000183299   -0.000107142
     17        6          -0.000279099   -0.000188387   -0.000045900
     18        6           0.000003533    0.000178401    0.000084769
     19        6          -0.000058511   -0.000343640   -0.000231043
     20        7           0.000392521    0.000790269   -0.000092350
     21        6          -0.000440579   -0.000491788   -0.000064840
     22        6          -0.000100239    0.000177477   -0.000220474
     23        6           0.000037668   -0.000561606    0.000190520
     24        6           0.000082679   -0.000147908   -0.000136928
     25        6           0.000414498    0.001129173    0.000095448
     26        6          -0.000937899   -0.000144954   -0.000338056
     27        6          -0.000027970   -0.000737063    0.000205607
     28        6           0.000030876    0.000965712   -0.000164292
     29       16           0.000333187    0.000108547   -0.000580481
     30       16          -0.000799648    0.000894904   -0.000358081
     31        8          -0.000003143   -0.000018909    0.000096033
     32        8          -0.000381995   -0.000207366    0.000326091
     33        8           0.000049857    0.000047100    0.000098149
     34        8           0.000643329   -0.000280894    0.000356029
     35        8           0.000008019   -0.000125531    0.000013266
     36        8           0.000206650   -0.000367082   -0.000085618
     37        1           0.000016037    0.000022696   -0.000007415
     38        1           0.000020492    0.000299333    0.000034351
     39        1          -0.000171140   -0.000074189    0.000023355
     40        1           0.000219554    0.000223903    0.000385576
     41        1           0.000034603    0.000082674   -0.000085991
     42        1           0.000076465   -0.000033292    0.000102128
     43        1           0.000085249   -0.000016123    0.000018721
     44        1          -0.000023329   -0.000181722   -0.000056279
     45        1           0.000028395   -0.000018168   -0.000093389
     46        1          -0.000032261   -0.000049356   -0.000140927
     47        1          -0.000082054   -0.000076036   -0.000051191
     48        1          -0.000009289    0.000004618    0.000023823
     49        1          -0.000018678   -0.000013832    0.000091090
     50        1          -0.000020112    0.000025239   -0.000015543
     51        1          -0.000087839    0.000046859    0.000034365
     52        1          -0.000024232   -0.000082042    0.000203655
     53        1          -0.000037969    0.000090111    0.000069383
     54        1           0.000014787   -0.000109873    0.000160787
     55        1           0.000116489   -0.000477164    0.000057296
     56        1           0.000299642   -0.000098089    0.000107770
     57        1           0.000093639   -0.000478224    0.000051299
     58        1          -0.000013745    0.000051700    0.000055131
 -------------------------------------------------------------------
 Cartesian Forces:  Max     0.001129173 RMS     0.000285204

 GradGradGradGradGradGradGradGradGradGradGradGradGradGradGradGradGradGrad
 Berny optimization.
 Internal  Forces:  Max     0.000787689 RMS     0.000115960
 Search for a local minimum.
 Step number   1 out of a maximum of  348 on scan point     1 out of     3
 All quantities printed in internal units (Hartrees-Bohrs-Radians)
 Mixed Optimization -- En-DIIS/RFO-DIIS
 Second derivative matrix not updated -- first step.
 ITU=  0
     Eigenvalues ---    0.00230   0.00507   0.00650   0.00693   0.00840
     Eigenvalues ---    0.00887   0.00954   0.01078   0.01238   0.01302
     Eigenvalues ---    0.01326   0.01461   0.01470   0.01496   0.01516
     Eigenvalues ---    0.01533   0.01623   0.01730   0.01745   0.01830
     Eigenvalues ---    0.01897   0.01923   0.01973   0.02052   0.02083
     Eigenvalues ---    0.02089   0.02104   0.02118   0.02122   0.02135
     Eigenvalues ---    0.02148   0.02148   0.02172   0.02190   0.03135
     Eigenvalues ---    0.03261   0.03624   0.03832   0.04381   0.04664
     Eigenvalues ---    0.04872   0.04908   0.05010   0.05076   0.05492
     Eigenvalues ---    0.05654   0.05930   0.06007   0.07099   0.07104
     Eigenvalues ---    0.07154   0.07387   0.07709   0.08088   0.08116
     Eigenvalues ---    0.08460   0.08488   0.08527   0.09209   0.09237
     Eigenvalues ---    0.09312   0.09418   0.10549   0.11204   0.11396
     Eigenvalues ---    0.12604   0.13143   0.13481   0.14690   0.15944
     Eigenvalues ---    0.15998   0.15998   0.15998   0.15999   0.15999
     Eigenvalues ---    0.16000   0.16000   0.16160   0.16992   0.18641
     Eigenvalues ---    0.19118   0.20112   0.20575   0.20956   0.22449
     Eigenvalues ---    0.22455   0.23057   0.23234   0.23477   0.23482
     Eigenvalues ---    0.23824   0.23835   0.24640   0.24647   0.24702
     Eigenvalues ---    0.24772   0.24951   0.24981   0.24988   0.24993
     Eigenvalues ---    0.25000   0.25000   0.25000   0.25000   0.26950
     Eigenvalues ---    0.27777   0.28135   0.28468   0.28617   0.28665
     Eigenvalues ---    0.29485   0.29863   0.30236   0.30405   0.30589
     Eigenvalues ---    0.32577   0.32958   0.33110   0.33316   0.33369
     Eigenvalues ---    0.33378   0.33398   0.33407   0.33472   0.33480
     Eigenvalues ---    0.33735   0.33759   0.33760   0.33804   0.34386
     Eigenvalues ---    0.34610   0.34631   0.34642   0.34683   0.34802
     Eigenvalues ---    0.34849   0.34867   0.35710   0.38356   0.38875
     Eigenvalues ---    0.39164   0.40149   0.40202   0.41249   0.41415
     Eigenvalues ---    0.41865   0.42124   0.42569   0.43530   0.43972
     Eigenvalues ---    0.44046   0.45294   0.45418   0.45915   0.45937
     Eigenvalues ---    0.46088   0.47518   0.47663   0.47851   0.48439
     Eigenvalues ---    0.51759   0.52027   0.76481   0.76830   0.77591
     Eigenvalues ---    0.83886   0.870161000.000001000.000001000.00000
     Eigenvalues --- 1000.000001000.000001000.000001000.000001000.00000
     Eigenvalues --- 1000.000001000.000001000.000001000.000001000.00000
     Eigenvalues --- 1000.000001000.000001000.000001000.000001000.00000
     Eigenvalues --- 1000.000001000.000001000.000001000.000001000.00000
     Eigenvalues --- 1000.000001000.000001000.000001000.000001000.00000
     Eigenvalues --- 1000.000001000.000001000.000001000.000001000.00000
     Eigenvalues --- 1000.000001000.000001000.000001000.000001000.00000
     Eigenvalues --- 1000.000001000.000001000.000001000.000001000.00000
     Eigenvalues --- 1000.000001000.000001000.000001000.000001000.00000
     Eigenvalues --- 1000.000001000.000001000.000001000.000001000.00000
     Eigenvalues --- 1000.000001000.000001000.000001000.000001000.00000
     Eigenvalues --- 1000.000001000.000001000.000001000.000001000.00000
     Eigenvalues --- 1000.000001000.000001000.000001000.000001000.00000
     Eigenvalues --- 1000.000001000.000001000.000001000.000001000.00000
     Eigenvalues --- 1000.000001000.000001000.000001000.000001000.00000
     Eigenvalues --- 1000.000001000.000001000.000001000.000001000.00000
     Eigenvalues --- 1000.000001000.000001000.000001000.000001000.00000
     Eigenvalues --- 1000.000001000.000001000.000001000.000001000.00000
     Eigenvalues --- 1000.000001000.000001000.000001000.000001000.00000
     Eigenvalues --- 1000.000001000.000001000.000001000.000001000.00000
     Eigenvalues --- 1000.000001000.000001000.000001000.000001000.00000
     Eigenvalues --- 1000.000001000.000001000.000001000.000001000.00000
     Eigenvalues --- 1000.000001000.000001000.000001000.000001000.00000
[...]
                 (A) (A) (A) (A) (A) (A) (A) (A) (A) (A) (A) (A)
                 (A) (A) (A) (A) (A) (A) (A) (A) (A) (A) (A) (A)
                 (A) (A) (A) (A) (A) (A) (A) (A) (A) (A) (A) (A)
                 (A) (A) (A) (A) (A) (A) (A) (A) (A) (A) (A) (A)
                 (A) (A) (A) (A) (A)
       Virtual   (A) (A) (A) (A) (A) (A) (A) (A) (A) (A) (A) (A)
                 (A) (A) (A) (A) (A) (A) (A) (A) (A) (A) (A) (A)
                 (A) (A) (A) (A) (A) (A) (A) (A) (A) (A) (A) (A)
                 (A) (A) (A) (A) (A) (A) (A) (A) (A) (A) (A) (A)
                 (A) (A) (A) (A) (A) (A) (A) (A) (A) (A) (A) (A)
                 (A) (A) (A) (A) (A) (A) (A) (A) (A) (A) (A) (A)
                 (A) (A) (A) (A) (A) (A) (A) (A) (A) (A) (A) (A)
                 (A) (A) (A) (A) (A) (A) (A) (A) (A) (A) (A) (A)
                 (A) (A) (A) (A) (A) (A) (A) (A) (A) (A) (A) (A)
                 (A) (A) (A) (A) (A) (A) (A) (A) (A) (A) (A) (A)
                 (A) (A) (A) (A) (A) (A) (A) (A) (A) (A) (A) (A)
                 (A) (A) (A) (A) (A) (A) (A) (A) (A) (A) (A) (A)
                 (A) (A) (A) (A) (A) (A) (A) (A) (A) (A) (A) (A)
                 (A) (A) (A) (A) (A) (A) (A) (A) (A) (A) (A) (A)
                 (A) (A) (A) (A) (A) (A) (A) (A) (A) (A) (A) (A)
                 (A) (A) (A) (A) (A) (A) (A) (A) (A) (A) (A) (A)
                 (A) (A) (A) (A) (A) (A) (A) (A) (A) (A) (A) (A)
                 (A) (A) (A) (A) (A) (A) (A) (A) (A) (A) (A) (A)
                 (A) (A) (A) (A) (A) (A) (A) (A) (A) (A) (A) (A)
                 (A) (A) (A) (A) (A) (A) (A) (A) (A) (A) (A) (A)
                 (A) (A) (A) (A) (A) (A) (A) (A) (A) (A) (A) (A)
                 (A) (A) (A) (A) (A) (A) (A) (A) (A) (A) (A) (A)
                 (A) (A) (A) (A) (A) (A) (A) (A) (A) (A) (A) (A)
                 (A) (A) (A) (A) (A) (A) (A) (A) (A) (A) (A) (A)
                 (A) (A) (A) (A) (A) (A) (A) (A) (A) (A) (A) (A)
                 (A) (A) (A) (A) (A) (A) (A) (A) (A) (A) (A) (A)
                 (A) (A) (A) (A) (A) (A) (A) (A) (A) (A) (A) (A)
                 (A) (A) (A) (A) (A) (A) (A) (A) (A) (A) (A) (A)
                 (A) (A) (A) (A) (A) (A) (A) (A) (A) (A) (A) (A)
                 (A) (A) (A) (A) (A) (A) (A) (A) (A) (A) (A) (A)
                 (A) (A) (A) (A) (A) (A) (A) (A) (A) (A) (A) (A)
                 (A) (A) (A) (A) (A) (A) (A) (A) (A) (A) (A) (A)
                 (A) (A) (A) (A) (A) (A) (A) (A) (A) (A) (A) (A)
                 (A) (A) (A) (A) (A) (A) (A) (A) (A) (A) (A) (A)
                 (A) (A) (A) (A) (A) (A) (A) (A) (A) (A) (A) (A)
                 (A) (A) (A) (A) (A) (A) (A) (A) (A) (A) (A) (A)
                 (A) (A) (A) (A) (A) (A) (A) (A) (A) (A) (A) (A)
                 (A) (A) (A) (A) (A) (A) (A) (A) (A) (A) (A) (A)
                 (A) (A) (A) (A) (A) (A) (A) (A) (A) (A) (A) (A)
                 (A) (A) (A) (A) (A) (A) (A) (A) (A) (A) (A) (A)
                 (A) (A) (A) (A) (A)
 The electronic state is 1-A.
 Alpha  occ. eigenvalues --  -89.15088 -89.01613 -19.21257 -19.19796 -19.16813
 Alpha  occ. eigenvalues --  -19.16712 -19.02678 -19.02652 -19.02592 -14.45322
 Alpha  occ. eigenvalues --  -14.45052 -10.31095 -10.30700 -10.30004 -10.29837
 Alpha  occ. eigenvalues --  -10.29834 -10.29741 -10.28948 -10.27245 -10.26756
 Alpha  occ. eigenvalues --  -10.26678 -10.26186 -10.25986 -10.25789 -10.25610
 Alpha  occ. eigenvalues --  -10.25290 -10.25240 -10.25202 -10.25035 -10.24887
 Alpha  occ. eigenvalues --  -10.24744 -10.21894 -10.21230 -10.19403 -10.19173
 Alpha  occ. eigenvalues --  -10.18697  -8.18250  -8.04448  -6.14674  -6.14518
 Alpha  occ. eigenvalues --   -6.14380  -6.00778  -6.00752  -6.00744  -1.15924
 Alpha  occ. eigenvalues --   -1.09584  -1.06408  -1.05704  -1.05406  -1.03219
 Alpha  occ. eigenvalues --   -1.01507  -0.92771  -0.89550  -0.88979  -0.88247
 Alpha  occ. eigenvalues --   -0.87982  -0.87942  -0.86738  -0.84928  -0.82627
 Alpha  occ. eigenvalues --   -0.81797  -0.79979  -0.77643  -0.76996  -0.74899
 Alpha  occ. eigenvalues --   -0.74355  -0.73240  -0.71362  -0.68574  -0.68044
 Alpha  occ. eigenvalues --   -0.66411  -0.65317  -0.64803  -0.62512  -0.61536
 Alpha  occ. eigenvalues --   -0.60007  -0.58874  -0.57989  -0.57745  -0.57092
 Alpha  occ. eigenvalues --   -0.55817  -0.55000  -0.54583  -0.54257  -0.53365
 Alpha  occ. eigenvalues --   -0.52517  -0.52296  -0.51565  -0.50929  -0.50266
 Alpha  occ. eigenvalues --   -0.49918  -0.49169  -0.48814  -0.48332  -0.47982
 Alpha  occ. eigenvalues --   -0.47590  -0.46966  -0.46358  -0.45940  -0.45705
 Alpha  occ. eigenvalues --   -0.45107  -0.44742  -0.44509  -0.44154  -0.43795
 Alpha  occ. eigenvalues --   -0.43299  -0.43027  -0.42198  -0.41660  -0.40851
 Alpha  occ. eigenvalues --   -0.40112  -0.39865  -0.39506  -0.38933  -0.38206
 Alpha  occ. eigenvalues --   -0.37854  -0.36684  -0.36297  -0.36176  -0.35870
 Alpha  occ. eigenvalues --   -0.34961  -0.34557  -0.34276  -0.34137  -0.32183
 Alpha  occ. eigenvalues --   -0.31631  -0.31568  -0.30580  -0.27141  -0.26514
 Alpha  occ. eigenvalues --   -0.23820  -0.23548  -0.23363  -0.20745  -0.20502
 Alpha  occ. eigenvalues --   -0.19492  -0.16385
 Alpha virt. eigenvalues --   -0.13931  -0.07493  -0.07381  -0.04717  -0.01895
 Alpha virt. eigenvalues --   -0.00558  -0.00140   0.00103   0.00704   0.00860
 Alpha virt. eigenvalues --    0.01751   0.02761   0.03746   0.04008   0.04876
 Alpha virt. eigenvalues --    0.05148   0.05588   0.05755   0.06627   0.06828
 Alpha virt. eigenvalues --    0.07201   0.07638   0.08106   0.08308   0.08480
 Alpha virt. eigenvalues --    0.08786   0.09012   0.09496   0.09738   0.10292
 Alpha virt. eigenvalues --    0.10742   0.11251   0.11305   0.11709   0.12091
 Alpha virt. eigenvalues --    0.12641   0.12956   0.13943   0.14680   0.15029
 Alpha virt. eigenvalues --    0.15360   0.15752   0.16143   0.17040   0.17598
 Alpha virt. eigenvalues --    0.17858   0.18592   0.19776   0.19987   0.21213
 Alpha virt. eigenvalues --    0.21535   0.22632   0.23552   0.24088   0.24728
 Alpha virt. eigenvalues --    0.26538   0.27505   0.27599   0.28171   0.28597
 Alpha virt. eigenvalues --    0.29118   0.29915   0.31299   0.31921   0.33055
 Alpha virt. eigenvalues --    0.33789   0.34418   0.34800   0.35567   0.36542
 Alpha virt. eigenvalues --    0.37365   0.37569   0.38296   0.38797   0.39225
 Alpha virt. eigenvalues --    0.39479   0.40071   0.40322   0.40646   0.40793
 Alpha virt. eigenvalues --    0.41425   0.41751   0.42000   0.42580   0.42851
 Alpha virt. eigenvalues --    0.43376   0.43868   0.44168   0.44511   0.45121
 Alpha virt. eigenvalues --    0.45638   0.45842   0.46117   0.46840   0.47294
 Alpha virt. eigenvalues --    0.47380   0.48071   0.48644   0.48992   0.49044
 Alpha virt. eigenvalues --    0.49701   0.49868   0.50376   0.50788   0.51219
 Alpha virt. eigenvalues --    0.51550   0.52102   0.52541   0.52618   0.53061
 Alpha virt. eigenvalues --    0.53468   0.53974   0.54523   0.55104   0.55321
 Alpha virt. eigenvalues --    0.55814   0.56370   0.56482   0.56814   0.57007
 Alpha virt. eigenvalues --    0.57342   0.57747   0.57926   0.58316   0.58709
 Alpha virt. eigenvalues --    0.58992   0.59230   0.59705   0.60067   0.60442
 Alpha virt. eigenvalues --    0.60875   0.61306   0.61380   0.61657   0.62380
 Alpha virt. eigenvalues --    0.62640   0.62890   0.63376   0.63464   0.63661
 Alpha virt. eigenvalues --    0.64322   0.64762   0.64978   0.65128   0.65637
 Alpha virt. eigenvalues --    0.65893   0.66708   0.66894   0.67428   0.68525
 Alpha virt. eigenvalues --    0.68590   0.68915   0.69410   0.69686   0.69925
 Alpha virt. eigenvalues --    0.70794   0.71167   0.72810   0.73838   0.74550
 Alpha virt. eigenvalues --    0.75545   0.77068   0.77584   0.77930   0.79066
 Alpha virt. eigenvalues --    0.80226   0.81594   0.81774   0.82349   0.82988
 Alpha virt. eigenvalues --    0.83300   0.84067   0.84270   0.84541   0.85062
 Alpha virt. eigenvalues --    0.85271   0.85970   0.86521   0.86881   0.87599
 Alpha virt. eigenvalues --    0.88214   0.88615   0.88988   0.89364   0.90582
 Alpha virt. eigenvalues --    0.91254   0.91831   0.92456   0.92823   0.93105
 Alpha virt. eigenvalues --    0.93689   0.94458   0.94895   0.95275   0.95485
 Alpha virt. eigenvalues --    0.95839   0.97277   0.97991   0.98817   0.98981
 Alpha virt. eigenvalues --    0.99625   1.00420   1.00812   1.01029   1.02288
 Alpha virt. eigenvalues --    1.03201   1.04095   1.04717   1.04915   1.06084
 Alpha virt. eigenvalues --    1.06535   1.07043   1.07317   1.08389   1.08458
 Alpha virt. eigenvalues --    1.09206   1.09971   1.10148   1.11139   1.11820
 Alpha virt. eigenvalues --    1.12969   1.13834   1.14242   1.14658   1.15388
 Alpha virt. eigenvalues --    1.15659   1.16315   1.16563   1.16810   1.17169
 Alpha virt. eigenvalues --    1.17718   1.17893   1.19546   1.20326   1.20529
 Alpha virt. eigenvalues --    1.20823   1.21346   1.21859   1.22437   1.23188
 Alpha virt. eigenvalues --    1.23572   1.24478   1.25606   1.26266   1.27071
 Alpha virt. eigenvalues --    1.27345   1.28014   1.29057   1.30183   1.30988
 Alpha virt. eigenvalues --    1.31713   1.32362   1.33081   1.33417   1.33766
 Alpha virt. eigenvalues --    1.34571   1.35231   1.36104   1.36376   1.36467
 Alpha virt. eigenvalues --    1.37139   1.38369   1.38954   1.40053   1.40809
 Alpha virt. eigenvalues --    1.41676   1.41864   1.43151   1.43490   1.43783
 Alpha virt. eigenvalues --    1.44811   1.45706   1.45972   1.46752   1.47845
 Alpha virt. eigenvalues --    1.48717   1.49301   1.49778   1.50004   1.50767
 Alpha virt. eigenvalues --    1.51198   1.51710   1.52539   1.52846   1.53699
 Alpha virt. eigenvalues --    1.53840   1.54504   1.54859   1.55757   1.56124
 Alpha virt. eigenvalues --    1.56756   1.57034   1.57458   1.58443   1.59191
 Alpha virt. eigenvalues --    1.59841   1.60274   1.60596   1.61002   1.61284
 Alpha virt. eigenvalues --    1.61700   1.62441   1.63253   1.63734   1.64259
 Alpha virt. eigenvalues --    1.64782   1.64943   1.65072   1.65992   1.66168
 Alpha virt. eigenvalues --    1.66291   1.67028   1.67794   1.68190   1.68640
 Alpha virt. eigenvalues --    1.69089   1.70132   1.70837   1.71068   1.71697
 Alpha virt. eigenvalues --    1.72069   1.72856   1.73060   1.73832   1.73990
 Alpha virt. eigenvalues --    1.74907   1.75835   1.75843   1.76347   1.76582
 Alpha virt. eigenvalues --    1.77177   1.77481   1.77766   1.77941   1.78403
 Alpha virt. eigenvalues --    1.79330   1.79604   1.80561   1.82163   1.82240
 Alpha virt. eigenvalues --    1.82647   1.83243   1.83577   1.84171   1.85372
 Alpha virt. eigenvalues --    1.86214   1.86429   1.87435   1.88066   1.88292
 Alpha virt. eigenvalues --    1.88679   1.89851   1.90162   1.90821   1.91944
 Alpha virt. eigenvalues --    1.92354   1.93413   1.94539   1.95542   1.96006
 Alpha virt. eigenvalues --    1.96673   1.97500   1.98258   1.99517   2.00362
 Alpha virt. eigenvalues --    2.00605   2.01093   2.01289   2.02051   2.03183
 Alpha virt. eigenvalues --    2.03838   2.04259   2.04470   2.04831   2.05711
 Alpha virt. eigenvalues --    2.06669   2.07412   2.08148   2.08502   2.09211
 Alpha virt. eigenvalues --    2.10000   2.10789   2.11485   2.11851   2.12959
 Alpha virt. eigenvalues --    2.13251   2.14111   2.14353   2.15189   2.15421
 Alpha virt. eigenvalues --    2.16426   2.16900   2.18188   2.18394   2.20552
 Alpha virt. eigenvalues --    2.22132   2.22516   2.24681   2.25212   2.26146
 Alpha virt. eigenvalues --    2.26618   2.28067   2.29768   2.30603   2.31339
 Alpha virt. eigenvalues --    2.31969   2.33823   2.35228   2.36027   2.36694
 Alpha virt. eigenvalues --    2.37967   2.39296   2.39839   2.40555   2.41418
 Alpha virt. eigenvalues --    2.42020   2.43188   2.45084   2.47146   2.48779
 Alpha virt. eigenvalues --    2.49323   2.50277   2.51413   2.52042   2.52757
 Alpha virt. eigenvalues --    2.53599   2.54014   2.55100   2.55394   2.56506
 Alpha virt. eigenvalues --    2.56967   2.57665   2.58287   2.58415   2.59504
 Alpha virt. eigenvalues --    2.59845   2.60896   2.61325   2.62130   2.62515
 Alpha virt. eigenvalues --    2.63381   2.63541   2.64734   2.68107   2.69933
 Alpha virt. eigenvalues --    2.70374   2.70627   2.70728   2.72332   2.73307
 Alpha virt. eigenvalues --    2.74825   2.75505   2.76268   2.76857   2.77731
 Alpha virt. eigenvalues --    2.79418   2.81234   2.83255   2.83847   2.85365
 Alpha virt. eigenvalues --    2.85943   2.87882   2.89236   2.90290   2.91236
 Alpha virt. eigenvalues --    2.93489   2.95385   2.96381   2.97445   2.98894
 Alpha virt. eigenvalues --    3.00122   3.01545   3.06230   3.07342   3.10902
 Alpha virt. eigenvalues --    3.22411   3.25968   3.30889   3.31092   3.34708
 Alpha virt. eigenvalues --    3.36668   3.38030   3.41115   3.41897   3.57999
          Condensed to atoms (all electrons):
 Mulliken atomic charges:
              1
     1  C   -0.006535
     2  C    0.216517
     3  C   -0.132098
     4  C    0.043569
     5  C   -0.243228
     6  C    0.111170
     7  C    0.175915
     8  C    0.081058
     9  N   -0.261255
    10  C    0.101699
    11  C    0.034067
    12  C    0.152680
    13  C   -0.146843
    14  O   -0.313853
    15  C    0.126583
    16  C   -0.093518
    17  C    0.021871
    18  C    0.039041
    19  C    0.096254
    20  N   -0.309499
    21  C    0.082784
    22  C    0.185512
    23  C   -0.154807
    24  C    0.265337
    25  C   -0.007176
    26  C    0.109489
    27  C   -0.251504
    28  C    0.051540
    29  S    0.985980
    30  S    0.995265
    31  O   -0.516909
    32  O   -0.521068
    33  O   -0.525780
    34  O   -0.409724
    35  O   -0.325134
    36  O   -0.436605
    37  H   -0.026890
    38  H   -0.025745
    39  H   -0.007327
    40  H    0.075533
    41  H    0.080009
    42  H    0.054576
    43  H    0.056442
    44  H    0.031069
    45  H    0.025594
    46  H    0.025597
    47  H    0.011520
    48  H   -0.016457
    49  H    0.035071
    50  H    0.028063
    51  H    0.049329
    52  H    0.047328
    53  H    0.081072
    54  H    0.081029
    55  H   -0.009481
    56  H    0.006130
    57  H   -0.013938
    58  H    0.190683
 Sum of Mulliken atomic charges =   0.00000
 Mulliken charges with hydrogens summed into heavy atoms:
              1
     1  C   -0.033425
     2  C    0.216517
     3  C   -0.132098
     4  C    0.017824
     5  C   -0.243228
     6  C    0.103843
     7  C    0.331456
     8  C    0.081058
     9  N   -0.261255
    10  C    0.212717
    11  C    0.090730
    12  C    0.178277
    13  C   -0.146843
    14  O   -0.313853
    15  C    0.138103
    16  C   -0.093518
    17  C    0.005414
    18  C    0.102174
    19  C    0.192911
    20  N   -0.309499
    21  C    0.082784
    22  C    0.347614
    23  C   -0.154807
    24  C    0.265337
    25  C   -0.016657
    26  C    0.115619
    27  C   -0.251504
    28  C    0.037602
    29  S    0.985980
    30  S    0.995265
    31  O   -0.516909
    32  O   -0.521068
    33  O   -0.525780
    34  O   -0.409724
    35  O   -0.134452
    36  O   -0.436605
 Sum of Mulliken charges with hydrogens summed into heavy atoms =   0.00000
 Electronic spatial extent (au):  <R**2>=          35311.3678
 Charge=              0.0000 electrons
 Dipole moment (field-independent basis, Debye):
    X=            -22.7015    Y=             18.2458    Z=             -2.3944  Tot=             29.2233
 Quadrupole moment (field-independent basis, Debye-Ang):
   XX=           -415.0146   YY=           -239.1953   ZZ=           -219.3709
   XY=             79.2183   XZ=             -0.3271   YZ=             19.9568
 Traceless Quadrupole moment (field-independent basis, Debye-Ang):
   XX=           -123.8210   YY=             51.9983   ZZ=             71.8227
   XY=             79.2183   XZ=             -0.3271   YZ=             19.9568
 Octapole moment (field-independent basis, Debye-Ang**2):
  XXX=          -1520.4046  YYY=            183.1404  ZZZ=            -12.4510  XYY=           -211.2186
  XXY=            842.4873  XXZ=           -178.2200  XZZ=            -98.4252  YZZ=              4.7834
  YYZ=            -17.1374  XYZ=            -61.9117
 Hexadecapole moment (field-independent basis, Debye-Ang**3):
 XXXX=         -53154.1702 YYYY=          -7297.9475 ZZZZ=           -882.9632 XXXY=           4898.7360
 XXXZ=            655.4343 YYYX=            833.4385 YYYZ=            180.2007 ZZZX=             83.8221
 ZZZY=             50.9191 XXYY=          -9227.6516 XXZZ=          -6715.3604 YYZZ=          -1275.0440
 XXYZ=            877.9124 YYXZ=             57.8932 ZZXY=            225.0982
 N-N= 3.980133936499D+03 E-N=-1.358276168349D+04  KE= 2.386015793889D+03
 1\1\GINC-NODE109\Scan\RB3LYP\CC-pVDZ\C25H22N2O7S2\CHS2057\18-Mar-2015\
 0\\# opt=modredundant B3LYP/cc-pVDZ Geom=PrintInputOrient\\CY3 Dihedra
 l Scan at MP2/6-31G*\\0,1\C,-6.7119887171,1.5503862022,0.4373362001\C,
 -5.4122413426,1.9026826636,0.0680438985\C,-4.9669857154,3.2361704802,0
 .0332748787\C,-5.8306028153,4.2624596002,0.3773024858\C,-7.1485401788,
 3.9322580665,0.7352383304\C,-7.5762443872,2.595456564,0.7729738308\C,-
 3.5123730497,3.2326411429,-0.3726614851\C,-3.2199738418,1.7617708162,-
 0.5757653756\N,-4.3342454315,1.0632100717,-0.3046547794\C,-4.397964717
 3,-0.4006522867,-0.3490661838\C,-3.015319725,-0.996265709,-0.093640392
 3\C,-1.9863187086,-0.3739192529,-1.0457553412\C,-2.011656162,1.1507332
 288,-0.9783912796\O,-0.6837480126,-0.9275306568,-0.8662361225\C,0.1688
 958007,-0.2340442457,0.0450210222\C,0.3538657817,1.2021314182,-0.40594
 10424\C,-0.7949947449,1.828280506,-0.9333914046\C,1.5004615719,-0.9804
 080745,0.0733233756\C,2.5615109022,-0.1902071713,0.839398812\N,2.64764
 40589,1.1769326264,0.3258120928\C,1.585958968,1.8093051366,-0.27292026
 78\C,2.0226888194,3.2046633245,-0.673069218\C,3.4452514259,3.264414390
 6,-0.1645972005\C,3.7579034535,2.0238855488,0.4280051131\C,4.998900342
 3,1.7692044699,1.0134151463\C,5.9515336451,2.7943340804,0.9829660524\C
 ,5.6442777695,4.0141113703,0.3775522782\C,4.387781447,4.2769529443,-0.
 1940786418\S,-8.3312813899,5.2870030158,1.1299264237\S,6.8807696548,5.
 3097574644,0.3672416872\O,-8.9268229662,5.5555621693,-0.2210071136\O,-
 9.2572779808,4.6561247504,2.1243167455\O,-7.4367389521,6.3694694794,1.
 6571347935\O,7.9101333131,4.9943511886,1.370846931\O,7.5212235668,5.04
 0036031,-1.1479418329\O,6.2231121991,6.6331891206,0.3116170874\H,-7.04
 95761637,0.5124558761,0.4633424777\H,-5.5357127482,5.3135673007,0.4006
 376739\H,-8.602438648,2.4000407075,1.0889367249\H,-2.8581987564,3.6615
 588467,0.4035710275\H,-3.3197469479,3.7961971262,-1.3016547566\H,-4.79
 5097947,-0.7052978292,-1.3327699546\H,-5.1157916859,-0.7286341931,0.41
 41352925\H,-3.0510420793,-2.084903871,-0.2433998754\H,-2.7194277739,-0
 .8098544373,0.9523014918\H,-2.2535791086,-0.6664987413,-2.0773226012\H
 ,-0.2858444754,-0.2384840407,1.0576612653\H,-0.7868783389,2.9150412855
 ,-1.0703188266\H,1.8240008641,-1.1350183455,-0.9684984337\H,1.37669233
 18,-1.9703098486,0.5348795636\H,3.5456218056,-0.6661179101,0.723808669
 7\H,2.33416475,-0.1559633544,1.920662201\H,1.376237366,3.9723091645,-0
 .2157112178\H,1.9604468841,3.3436738215,-1.7649630188\H,5.2286951397,0
 .8171698666,1.4924686466\H,6.9326776319,2.6566518637,1.4377988994\H,4.
 1774128028,5.2548966406,-0.6290547953\H,7.6997913446,5.9290691351,-1.5
 111402292\\Version=EM64L-G09RevB.01\State=1-A\HF=-2398.2671261,-2398.2
 649961,-2398.2588596\RMSD=9.783e-09,7.601e-09,3.471e-09\PG=C01 [X(C25H
 22N2O7S2)]\\@


 THOSE WHO TRY TO PASS CHEMISTRY OFF AS A NEW SCIENCE
 SHOW HOW LITTLE KNOWLEDGE THEY HAVE OF THE CHARACTER
 AND LITERATURE OF THE ANCIENTS.
   -- NICOLAS LEFEVRE
 "COURS DE CHYMIE" J.-N.LELOUP, PARIS, 1751
 Job cpu time:  0 days 21 hours 27 minutes 49.6 seconds.
 File lengths (MBytes):  RWF=    303 Int=      0 D2E=      0 Chk=     28 Scr=      2
 Normal termination of Gaussian 09 at Wed Mar 18 09:14:35 2015.
