 Entering Gaussian System, Link 0=g09
 Initial command:
 /softlib/exe/x86_64/pkg/gaussian/09revB.01/dist/g09/l1.exe /zenodotus/hwlab/hwlab_store011/chs2057/Weinsteinlab/parameters/Cy3B-2/torsion-scan/Gau-5350.inp -scrdir=/zenodotus/hwlab/hwlab_store011/chs2057/Weinsteinlab/parameters/Cy3B-2/torsion-scan/
 Entering Link 1 = /softlib/exe/x86_64/pkg/gaussian/09revB.01/dist/g09/l1.exe PID=      5351.
  
 Copyright (c) 1988,1990,1992,1993,1995,1998,2003,2009,2010,
            Gaussian, Inc.  All Rights Reserved.
  
 This is part of the Gaussian(R) 09 program.  It is based on
 the Gaussian(R) 03 system (copyright 2003, Gaussian, Inc.),
 the Gaussian(R) 98 system (copyright 1998, Gaussian, Inc.),
 the Gaussian(R) 94 system (copyright 1995, Gaussian, Inc.),
 the Gaussian 92(TM) system (copyright 1992, Gaussian, Inc.),
 the Gaussian 90(TM) system (copyright 1990, Gaussian, Inc.),
 the Gaussian 88(TM) system (copyright 1988, Gaussian, Inc.),
 the Gaussian 86(TM) system (copyright 1986, Carnegie Mellon
 University), and the Gaussian 82(TM) system (copyright 1983,
 Carnegie Mellon University). Gaussian is a federally registered
 trademark of Gaussian, Inc.
  
 This software contains proprietary and confidential information,
 including trade secrets, belonging to Gaussian, Inc.
  
 This software is provided under written license and may be
 used, copied, transmitted, or stored only in accord with that
 written license.
  
 The following legend is applicable only to US Government
 contracts under FAR:
  
                    RESTRICTED RIGHTS LEGEND
  
 Use, reproduction and disclosure by the US Government is
 subject to restrictions as set forth in subparagraphs (a)
 and (c) of the Commercial Computer Software - Restricted
 Rights clause in FAR 52.227-19.
  
 Gaussian, Inc.
 340 Quinnipiac St., Bldg. 40, Wallingford CT 06492
  
  
 ---------------------------------------------------------------
 Warning -- This program may not be used in any manner that
 competes with the business of Gaussian, Inc. or will provide
 assistance to any competitor of Gaussian, Inc.  The licensee
 of this program is prohibited from giving any competitor of
 Gaussian, Inc. access to this program.  By using this program,
 the user acknowledges that Gaussian, Inc. is engaged in the
 business of creating and licensing software in the field of
 computational chemistry and represents and warrants to the
 licensee that it is not a competitor of Gaussian, Inc. and that
 it will not use this program in any manner prohibited above.
 ---------------------------------------------------------------
  

 Cite this work as:
 Gaussian 09, Revision B.01,
 M. J. Frisch, G. W. Trucks, H. B. Schlegel, G. E. Scuseria, 
 M. A. Robb, J. R. Cheeseman, G. Scalmani, V. Barone, B. Mennucci, 
 G. A. Petersson, H. Nakatsuji, M. Caricato, X. Li, H. P. Hratchian, 
 A. F. Izmaylov, J. Bloino, G. Zheng, J. L. Sonnenberg, M. Hada, 
 M. Ehara, K. Toyota, R. Fukuda, J. Hasegawa, M. Ishida, T. Nakajima, 
 Y. Honda, O. Kitao, H. Nakai, T. Vreven, J. A. Montgomery, Jr., 
 J. E. Peralta, F. Ogliaro, M. Bearpark, J. J. Heyd, E. Brothers, 
 K. N. Kudin, V. N. Staroverov, T. Keith, R. Kobayashi, J. Normand, 
 K. Raghavachari, A. Rendell, J. C. Burant, S. S. Iyengar, J. Tomasi, 
 M. Cossi, N. Rega, J. M. Millam, M. Klene, J. E. Knox, J. B. Cross, 
 V. Bakken, C. Adamo, J. Jaramillo, R. Gomperts, R. E. Stratmann, 
 O. Yazyev, A. J. Austin, R. Cammi, C. Pomelli, J. W. Ochterski, 
 R. L. Martin, K. Morokuma, V. G. Zakrzewski, G. A. Voth, 
 P. Salvador, J. J. Dannenberg, S. Dapprich, A. D. Daniels, 
 O. Farkas, J. B. Foresman, J. V. Ortiz, J. Cioslowski, 
 and D. J. Fox, Gaussian, Inc., Wallingford CT, 2010.
 
 ******************************************
 Gaussian 09:  EM64L-G09RevB.01 12-Aug-2010
                20-Mar-2015 
 ******************************************
 %chk=CY3.scan5.neg.chk
 %nproc=16
 Will use up to   16 processors via shared memory.
 %mem=50GB
 ------------------------------------------------------
 # opt=modredundant B3LYP/cc-pVDZ Geom=PrintInputOrient
 ------------------------------------------------------
 1/14=-1,18=120,19=15,26=3,38=1/1,3;
 2/9=2110,12=2,17=6,18=5,40=1/2;
 3/5=16,11=2,16=1,25=1,30=1,71=1,74=-5/1,2,3;
 4//1;
 5/5=2,38=5/2;
 6/7=2,8=2,9=2,10=2,28=1/1;
 7//1,2,3,16;
 1/14=-1,18=20,19=15/3(2);
 2/9=2110/2;
 99//99;
 2/9=2110/2;
 3/5=16,11=2,16=1,25=1,30=1,71=1,74=-5/1,2,3;
 4/5=5,16=3/1;
 5/5=2,38=5/2;
 7//1,2,3,16;
 1/14=-1,18=20,19=15/3(-5);
 2/9=2110/2;
 6/7=2,8=2,9=2,10=2,19=2,28=1/1;
 99/9=1/99;
 -------------------------------
 CY3 Dihedral Scan at MP2/6-31G*
 -------------------------------
 Symbolic Z-matrix:
 Charge =  0 Multiplicity = 1
 C1                   -6.866     1.559     0.204 
 C2                   -5.528     1.941     0.085 
 C3                   -5.112     3.284     0.118 
 C4                   -6.048     4.293     0.278 
 C5                   -7.402     3.933     0.38 
 C6                   -7.8       2.586     0.356 
 C7                   -3.608     3.311    -0.018 
 C8                   -3.256     1.847    -0.151 
 N9                   -4.381     1.124    -0.068 
 C10                  -4.424    -0.346    -0.086 
 C11                  -3.049    -0.951     0.205 
 C12                  -1.995    -0.24     -0.654 
 C13                  -1.986     1.241    -0.326 
 O14                  -0.721    -0.87     -0.623 
 C15                   0.301    -0.281     0.182 
 C16                   0.423     1.213    -0.059 
 C17                  -0.795     1.925    -0.194 
 C18                   1.599    -1.004    -0.175 
 C19                   2.807    -0.344     0.489 
 N20                   2.816     1.091     0.213 
 C21                   1.665     1.806    -0.026 
 C22                   2.039     3.264    -0.215 
 C23                   3.535     3.254     0.002 
 C24                   3.937     1.927     0.26 
 C25                   5.265     1.59      0.526 
 C26                   6.211     2.623     0.515 
 C27                   5.811     3.932     0.239 
 C28                   4.47      4.273    -0.008 
 S29                  -8.67      5.263     0.51 
 S30                   7.042     5.231     0.247 
 O31                  -8.999     5.486    -0.937 
 O32                  -9.754     4.626     1.323 
 O33                  -7.919     6.38      1.171 
 O34                   8.251     4.739     0.926 
 O35                   7.349     5.305    -1.39 
 O36                   6.413     6.52      0.61 
 H37                  -7.178     0.513     0.182 
 H38                  -5.787     5.351     0.34 
 H39                  -8.863     2.37      0.474 
 H40                  -3.111     3.758     0.858 
 H41                  -3.264     3.872    -0.903 
 H42                  -4.799    -0.66     -1.075 
 H43                  -5.165    -0.663     0.661 
 H44                  -3.071    -2.024    -0.033 
 H45                  -2.801    -0.845     1.274 
 H46                  -2.312    -0.335    -1.71 
 H47                   0.064    -0.446     1.254 
 H48                  -0.799     3.016    -0.117 
 H49                   1.709    -0.977    -1.271 
 H50                   1.544    -2.059     0.129 
 H51                   3.738    -0.78      0.099 
 H52                   2.8      -0.501     1.583 
 H53                   1.511     3.909     0.507 
 H54                   1.764     3.619    -1.222 
 H55                   5.569     0.568     0.75 
 H56                   7.26      2.42      0.729 
 H57                   4.194     5.314    -0.186 
 H58                   7.465     6.255    -1.585 
 
 The following ModRedundant input section has been read:
 D       2       9      10      11 S   2 -15.00                                

 GradGradGradGradGradGradGradGradGradGradGradGradGradGradGradGradGradGrad
 Berny optimization.
 Initialization pass.
                           ----------------------------
                           !    Initial Parameters    !
                           ! (Angstroms and Degrees)  !
 --------------------------                            --------------------------
 ! Name  Definition              Value          Derivative Info.                !
 --------------------------------------------------------------------------------
 ! R1    R(1,2)                  1.3965         estimate D2E/DX2                !
 ! R2    R(1,6)                  1.3965         estimate D2E/DX2                !
 ! R3    R(1,37)                 1.0918         estimate D2E/DX2                !
 ! R4    R(2,3)                  1.4063         estimate D2E/DX2                !
 ! R5    R(2,9)                  1.4165         estimate D2E/DX2                !
 ! R6    R(3,4)                  1.3856         estimate D2E/DX2                !
 ! R7    R(3,7)                  1.5104         estimate D2E/DX2                !
 ! R8    R(4,5)                  1.4047         estimate D2E/DX2                !
 ! R9    R(4,38)                 1.0915         estimate D2E/DX2                !
 ! R10   R(5,6)                  1.4048         estimate D2E/DX2                !
 ! R11   R(5,29)                 1.8422         estimate D2E/DX2                !
 ! R12   R(6,39)                 1.0911         estimate D2E/DX2                !
 ! R13   R(7,8)                  1.5116         estimate D2E/DX2                !
 ! R14   R(7,40)                 1.1019         estimate D2E/DX2                !
 ! R15   R(7,41)                 1.1029         estimate D2E/DX2                !
 ! R16   R(8,9)                  1.3399         estimate D2E/DX2                !
 ! R17   R(8,13)                 1.418          estimate D2E/DX2                !
 ! R18   R(9,10)                 1.4707         estimate D2E/DX2                !
 ! R19   R(10,11)                1.5301         estimate D2E/DX2                !
 ! R20   R(10,42)                1.1033         estimate D2E/DX2                !
 ! R21   R(10,43)                1.0989         estimate D2E/DX2                !
 ! R22   R(11,12)                1.5344         estimate D2E/DX2                !
 ! R23   R(11,44)                1.0993         estimate D2E/DX2                !
 ! R24   R(11,45)                1.1025         estimate D2E/DX2                !
 ! R25   R(12,13)                1.5169         estimate D2E/DX2                !
 ! R26   R(12,14)                1.4216         estimate D2E/DX2                !
 ! R27   R(12,46)                1.1066         estimate D2E/DX2                !
 ! R28   R(13,17)                1.3798         estimate D2E/DX2                !
 ! R29   R(14,15)                1.4281         estimate D2E/DX2                !
 ! R30   R(15,16)                1.5182         estimate D2E/DX2                !
 ! R31   R(15,18)                1.5281         estimate D2E/DX2                !
 ! R32   R(15,47)                1.1102         estimate D2E/DX2                !
 ! R33   R(16,17)                1.4173         estimate D2E/DX2                !
 ! R34   R(16,21)                1.3767         estimate D2E/DX2                !
 ! R35   R(17,48)                1.0937         estimate D2E/DX2                !
 ! R36   R(18,19)                1.5283         estimate D2E/DX2                !
 ! R37   R(18,49)                1.1018         estimate D2E/DX2                !
 ! R38   R(18,50)                1.0993         estimate D2E/DX2                !
 ! R39   R(19,20)                1.4613         estimate D2E/DX2                !
 ! R40   R(19,51)                1.0995         estimate D2E/DX2                !
 ! R41   R(19,52)                1.1052         estimate D2E/DX2                !
 ! R42   R(20,21)                1.3759         estimate D2E/DX2                !
 ! R43   R(20,24)                1.3992         estimate D2E/DX2                !
 ! R44   R(21,22)                1.517          estimate D2E/DX2                !
 ! R45   R(22,23)                1.5117         estimate D2E/DX2                !
 ! R46   R(22,53)                1.1028         estimate D2E/DX2                !
 ! R47   R(22,54)                1.1026         estimate D2E/DX2                !
 ! R48   R(23,24)                1.4104         estimate D2E/DX2                !
 ! R49   R(23,28)                1.383          estimate D2E/DX2                !
 ! R50   R(24,25)                1.3957         estimate D2E/DX2                !
 ! R51   R(25,26)                1.4008         estimate D2E/DX2                !
 ! R52   R(25,55)                1.0895         estimate D2E/DX2                !
 ! R53   R(26,27)                1.3963         estimate D2E/DX2                !
 ! R54   R(26,56)                1.0897         estimate D2E/DX2                !
 ! R55   R(27,28)                1.4056         estimate D2E/DX2                !
 ! R56   R(27,30)                1.7896         estimate D2E/DX2                !
 ! R57   R(28,57)                1.0916         estimate D2E/DX2                !
 ! R58   R(29,31)                1.5006         estimate D2E/DX2                !
 ! R59   R(29,32)                1.4973         estimate D2E/DX2                !
 ! R60   R(29,33)                1.4995         estimate D2E/DX2                !
 ! R61   R(30,34)                1.4713         estimate D2E/DX2                !
 ! R62   R(30,35)                1.6672         estimate D2E/DX2                !
 ! R63   R(30,36)                1.4795         estimate D2E/DX2                !
 ! R64   R(35,58)                0.9767         estimate D2E/DX2                !
 ! A1    A(2,1,6)              116.673          estimate D2E/DX2                !
 ! A2    A(2,1,37)             122.2861         estimate D2E/DX2                !
 ! A3    A(6,1,37)             121.0409         estimate D2E/DX2                !
 ! A4    A(1,2,3)              122.862          estimate D2E/DX2                !
 ! A5    A(1,2,9)              128.8461         estimate D2E/DX2                !
 ! A6    A(3,2,9)              108.2886         estimate D2E/DX2                !
 ! A7    A(2,3,4)              119.8882         estimate D2E/DX2                !
 ! A8    A(2,3,7)              108.0299         estimate D2E/DX2                !
 ! A9    A(4,3,7)              132.0722         estimate D2E/DX2                !
 ! A10   A(3,4,5)              118.2223         estimate D2E/DX2                !
 ! A11   A(3,4,38)             123.4294         estimate D2E/DX2                !
 ! A12   A(5,4,38)             118.3446         estimate D2E/DX2                !
 ! A13   A(4,5,6)              121.1699         estimate D2E/DX2                !
 ! A14   A(4,5,29)             118.9176         estimate D2E/DX2                !
 ! A15   A(6,5,29)             119.8989         estimate D2E/DX2                !
 ! A16   A(1,6,5)              121.1673         estimate D2E/DX2                !
 ! A17   A(1,6,39)             121.1827         estimate D2E/DX2                !
 ! A18   A(5,6,39)             117.6449         estimate D2E/DX2                !
 ! A19   A(3,7,8)              102.8555         estimate D2E/DX2                !
 ! A20   A(3,7,40)             112.6314         estimate D2E/DX2                !
 ! A21   A(3,7,41)             113.076          estimate D2E/DX2                !
 ! A22   A(8,7,40)             110.9656         estimate D2E/DX2                !
 ! A23   A(8,7,41)             110.4522         estimate D2E/DX2                !
 ! A24   A(40,7,41)            106.9125         estimate D2E/DX2                !
 ! A25   A(7,8,9)              108.7624         estimate D2E/DX2                !
 ! A26   A(7,8,13)             129.2959         estimate D2E/DX2                !
 ! A27   A(9,8,13)             121.9402         estimate D2E/DX2                !
 ! A28   A(2,9,8)              112.0457         estimate D2E/DX2                !
 ! A29   A(2,9,10)             123.6506         estimate D2E/DX2                !
 ! A30   A(8,9,10)             124.2722         estimate D2E/DX2                !
 ! A31   A(9,10,11)            111.5055         estimate D2E/DX2                !
 ! A32   A(9,10,42)            107.7796         estimate D2E/DX2                !
 ! A33   A(9,10,43)            107.4408         estimate D2E/DX2                !
 ! A34   A(11,10,42)           111.3071         estimate D2E/DX2                !
 ! A35   A(11,10,43)           111.2604         estimate D2E/DX2                !
 ! A36   A(42,10,43)           107.3405         estimate D2E/DX2                !
 ! A37   A(10,11,12)           109.1227         estimate D2E/DX2                !
 ! A38   A(10,11,44)           109.073          estimate D2E/DX2                !
 ! A39   A(10,11,45)           110.397          estimate D2E/DX2                !
 ! A40   A(12,11,44)           110.1718         estimate D2E/DX2                !
 ! A41   A(12,11,45)           110.1058         estimate D2E/DX2                !
 ! A42   A(44,11,45)           107.955          estimate D2E/DX2                !
 ! A43   A(11,12,13)           109.5988         estimate D2E/DX2                !
 ! A44   A(11,12,14)           113.4559         estimate D2E/DX2                !
 ! A45   A(11,12,46)           107.3176         estimate D2E/DX2                !
 ! A46   A(13,12,14)           115.0013         estimate D2E/DX2                !
 ! A47   A(13,12,46)           106.9686         estimate D2E/DX2                !
 ! A48   A(14,12,46)           103.8557         estimate D2E/DX2                !
 ! A49   A(8,13,12)            116.0154         estimate D2E/DX2                !
 ! A50   A(8,13,17)            123.3276         estimate D2E/DX2                !
 ! A51   A(12,13,17)           120.6509         estimate D2E/DX2                !
 ! A52   A(12,14,15)           118.0898         estimate D2E/DX2                !
 ! A53   A(14,15,16)           111.9556         estimate D2E/DX2                !
 ! A54   A(14,15,18)           106.3233         estimate D2E/DX2                !
 ! A55   A(14,15,47)           109.2822         estimate D2E/DX2                !
 ! A56   A(16,15,18)           111.1158         estimate D2E/DX2                !
 ! A57   A(16,15,47)           108.4621         estimate D2E/DX2                !
 ! A58   A(18,15,47)           109.6698         estimate D2E/DX2                !
 ! A59   A(15,16,17)           116.1304         estimate D2E/DX2                !
 ! A60   A(15,16,21)           119.5088         estimate D2E/DX2                !
 ! A61   A(17,16,21)           124.1387         estimate D2E/DX2                !
 ! A62   A(13,17,16)           120.1249         estimate D2E/DX2                !
 ! A63   A(13,17,48)           119.8731         estimate D2E/DX2                !
 ! A64   A(16,17,48)           119.8385         estimate D2E/DX2                !
 ! A65   A(15,18,19)           111.443          estimate D2E/DX2                !
 ! A66   A(15,18,49)           107.7942         estimate D2E/DX2                !
 ! A67   A(15,18,50)           110.3023         estimate D2E/DX2                !
 ! A68   A(19,18,49)           110.0397         estimate D2E/DX2                !
 ! A69   A(19,18,50)           109.5022         estimate D2E/DX2                !
 ! A70   A(49,18,50)           107.6731         estimate D2E/DX2                !
 ! A71   A(18,19,20)           110.2964         estimate D2E/DX2                !
 ! A72   A(18,19,51)           110.1157         estimate D2E/DX2                !
 ! A73   A(18,19,52)           111.3275         estimate D2E/DX2                !
 ! A74   A(20,19,51)           108.4927         estimate D2E/DX2                !
 ! A75   A(20,19,52)           109.0554         estimate D2E/DX2                !
 ! A76   A(51,19,52)           107.4653         estimate D2E/DX2                !
 ! A77   A(19,20,21)           122.5439         estimate D2E/DX2                !
 ! A78   A(19,20,24)           125.825          estimate D2E/DX2                !
 ! A79   A(21,20,24)           111.4419         estimate D2E/DX2                !
 ! A80   A(16,21,20)           122.3448         estimate D2E/DX2                !
 ! A81   A(16,21,22)           129.3021         estimate D2E/DX2                !
 ! A82   A(20,21,22)           108.3512         estimate D2E/DX2                !
 ! A83   A(21,22,23)           102.6935         estimate D2E/DX2                !
 ! A84   A(21,22,53)           111.2555         estimate D2E/DX2                !
 ! A85   A(21,22,54)           111.207          estimate D2E/DX2                !
 ! A86   A(23,22,53)           112.5638         estimate D2E/DX2                !
 ! A87   A(23,22,54)           112.3373         estimate D2E/DX2                !
 ! A88   A(53,22,54)           106.8712         estimate D2E/DX2                !
 ! A89   A(22,23,24)           108.3343         estimate D2E/DX2                !
 ! A90   A(22,23,28)           131.5397         estimate D2E/DX2                !
 ! A91   A(24,23,28)           120.1244         estimate D2E/DX2                !
 ! A92   A(20,24,23)           109.1272         estimate D2E/DX2                !
 ! A93   A(20,24,25)           128.6425         estimate D2E/DX2                !
 ! A94   A(23,24,25)           122.2266         estimate D2E/DX2                !
 ! A95   A(24,25,26)           117.5833         estimate D2E/DX2                !
 ! A96   A(24,25,55)           122.0844         estimate D2E/DX2                !
 ! A97   A(26,25,55)           120.3266         estimate D2E/DX2                !
 ! A98   A(25,26,27)           119.9625         estimate D2E/DX2                !
 ! A99   A(25,26,56)           120.7445         estimate D2E/DX2                !
 ! A100  A(27,26,56)           119.2907         estimate D2E/DX2                !
 ! A101  A(26,27,28)           122.3773         estimate D2E/DX2                !
 ! A102  A(26,27,30)           118.8507         estimate D2E/DX2                !
 ! A103  A(28,27,30)           118.7472         estimate D2E/DX2                !
 ! A104  A(23,28,27)           117.7097         estimate D2E/DX2                !
 ! A105  A(23,28,57)           122.2019         estimate D2E/DX2                !
 ! A106  A(27,28,57)           120.0832         estimate D2E/DX2                !
 ! A107  A(5,29,31)            100.9617         estimate D2E/DX2                !
 ! A108  A(5,29,32)            103.2672         estimate D2E/DX2                !
 ! A109  A(5,29,33)            102.9545         estimate D2E/DX2                !
 ! A110  A(31,29,32)           115.3465         estimate D2E/DX2                !
 ! A111  A(31,29,33)           115.0978         estimate D2E/DX2                !
 ! A112  A(32,29,33)           116.1133         estimate D2E/DX2                !
 ! A113  A(27,30,34)           108.9387         estimate D2E/DX2                !
 ! A114  A(27,30,35)            98.8872         estimate D2E/DX2                !
 ! A115  A(27,30,36)           109.9406         estimate D2E/DX2                !
 ! A116  A(34,30,35)           108.4614         estimate D2E/DX2                !
 ! A117  A(34,30,36)           121.8335         estimate D2E/DX2                !
 ! A118  A(35,30,36)           106.2917         estimate D2E/DX2                !
 ! A119  A(30,35,58)           105.1339         estimate D2E/DX2                !
 ! D1    D(6,1,2,3)              0.2296         estimate D2E/DX2                !
 ! D2    D(6,1,2,9)            179.4844         estimate D2E/DX2                !
 ! D3    D(37,1,2,3)          -179.6939         estimate D2E/DX2                !
 ! D4    D(37,1,2,9)            -0.4391         estimate D2E/DX2                !
 ! D5    D(2,1,6,5)              0.2993         estimate D2E/DX2                !
 ! D6    D(2,1,6,39)          -178.854          estimate D2E/DX2                !
 ! D7    D(37,1,6,5)          -179.7762         estimate D2E/DX2                !
 ! D8    D(37,1,6,39)            1.0705         estimate D2E/DX2                !
 ! D9    D(1,2,3,4)              0.1791         estimate D2E/DX2                !
 ! D10   D(1,2,3,7)            179.1772         estimate D2E/DX2                !
 ! D11   D(9,2,3,4)           -179.2097         estimate D2E/DX2                !
 ! D12   D(9,2,3,7)             -0.2116         estimate D2E/DX2                !
 ! D13   D(1,2,9,8)            179.9612         estimate D2E/DX2                !
 ! D14   D(1,2,9,10)            -2.006          estimate D2E/DX2                !
 ! D15   D(3,2,9,8)             -0.698          estimate D2E/DX2                !
 ! D16   D(3,2,9,10)           177.3348         estimate D2E/DX2                !
 ! D17   D(2,3,4,5)             -1.0892         estimate D2E/DX2                !
 ! D18   D(2,3,4,38)           178.2031         estimate D2E/DX2                !
 ! D19   D(7,3,4,5)           -179.8057         estimate D2E/DX2                !
 ! D20   D(7,3,4,38)            -0.5134         estimate D2E/DX2                !
 ! D21   D(2,3,7,8)              0.9058         estimate D2E/DX2                !
 ! D22   D(2,3,7,40)          -118.6168         estimate D2E/DX2                !
 ! D23   D(2,3,7,41)           120.0369         estimate D2E/DX2                !
 ! D24   D(4,3,7,8)            179.7356         estimate D2E/DX2                !
 ! D25   D(4,3,7,40)            60.213          estimate D2E/DX2                !
 ! D26   D(4,3,7,41)           -61.1333         estimate D2E/DX2                !
 ! D27   D(3,4,5,6)              1.6249         estimate D2E/DX2                !
 ! D28   D(3,4,5,29)          -177.03           estimate D2E/DX2                !
 ! D29   D(38,4,5,6)          -177.7041         estimate D2E/DX2                !
 ! D30   D(38,4,5,29)            3.641          estimate D2E/DX2                !
 ! D31   D(4,5,6,1)             -1.2491         estimate D2E/DX2                !
 ! D32   D(4,5,6,39)           177.9331         estimate D2E/DX2                !
 ! D33   D(29,5,6,1)           177.3927         estimate D2E/DX2                !
 ! D34   D(29,5,6,39)           -3.425          estimate D2E/DX2                !
 ! D35   D(4,5,29,31)           90.7518         estimate D2E/DX2                !
 ! D36   D(4,5,29,32)         -149.666          estimate D2E/DX2                !
 ! D37   D(4,5,29,33)          -28.45           estimate D2E/DX2                !
 ! D38   D(6,5,29,31)          -87.9206         estimate D2E/DX2                !
 ! D39   D(6,5,29,32)           31.6616         estimate D2E/DX2                !
 ! D40   D(6,5,29,33)          152.8776         estimate D2E/DX2                !
 ! D41   D(3,7,8,9)             -1.3296         estimate D2E/DX2                !
 ! D42   D(3,7,8,13)           179.1237         estimate D2E/DX2                !
 ! D43   D(40,7,8,9)           119.3425         estimate D2E/DX2                !
 ! D44   D(40,7,8,13)          -60.2043         estimate D2E/DX2                !
 ! D45   D(41,7,8,9)          -122.2726         estimate D2E/DX2                !
 ! D46   D(41,7,8,13)           58.1807         estimate D2E/DX2                !
 ! D47   D(7,8,9,2)              1.2998         estimate D2E/DX2                !
 ! D48   D(7,8,9,10)          -176.7185         estimate D2E/DX2                !
 ! D49   D(13,8,9,2)          -179.1136         estimate D2E/DX2                !
 ! D50   D(13,8,9,10)            2.8681         estimate D2E/DX2                !
 ! D51   D(7,8,13,12)         -170.2607         estimate D2E/DX2                !
 ! D52   D(7,8,13,17)           10.6376         estimate D2E/DX2                !
 ! D53   D(9,8,13,12)           10.2451         estimate D2E/DX2                !
 ! D54   D(9,8,13,17)         -168.8567         estimate D2E/DX2                !
 ! D55   D(2,9,10,11)         -160.9364         Scan                            !
 ! D56   D(2,9,10,42)           76.6182         estimate D2E/DX2                !
 ! D57   D(2,9,10,43)          -38.7749         estimate D2E/DX2                !
 ! D58   D(8,9,10,11)           16.857          estimate D2E/DX2                !
 ! D59   D(8,9,10,42)         -105.5885         estimate D2E/DX2                !
 ! D60   D(8,9,10,43)          139.0185         estimate D2E/DX2                !
 ! D61   D(9,10,11,12)         -47.2699         estimate D2E/DX2                !
 ! D62   D(9,10,11,44)        -167.6715         estimate D2E/DX2                !
 ! D63   D(9,10,11,45)          73.8676         estimate D2E/DX2                !
 ! D64   D(42,10,11,12)         73.1254         estimate D2E/DX2                !
 ! D65   D(42,10,11,44)        -47.2761         estimate D2E/DX2                !
 ! D66   D(42,10,11,45)       -165.737          estimate D2E/DX2                !
 ! D67   D(43,10,11,12)       -167.2026         estimate D2E/DX2                !
 ! D68   D(43,10,11,44)         72.3959         estimate D2E/DX2                !
 ! D69   D(43,10,11,45)        -46.0651         estimate D2E/DX2                !
 ! D70   D(10,11,12,13)         59.671          estimate D2E/DX2                !
 ! D71   D(10,11,12,14)       -170.273          estimate D2E/DX2                !
 ! D72   D(10,11,12,46)        -56.1477         estimate D2E/DX2                !
 ! D73   D(44,11,12,13)        179.3957         estimate D2E/DX2                !
 ! D74   D(44,11,12,14)        -50.5483         estimate D2E/DX2                !
 ! D75   D(44,11,12,46)         63.577          estimate D2E/DX2                !
 ! D76   D(45,11,12,13)        -61.6437         estimate D2E/DX2                !
 ! D77   D(45,11,12,14)         68.4123         estimate D2E/DX2                !
 ! D78   D(45,11,12,46)       -177.4625         estimate D2E/DX2                !
 ! D79   D(11,12,13,8)         -41.5681         estimate D2E/DX2                !
 ! D80   D(11,12,13,17)        137.5596         estimate D2E/DX2                !
 ! D81   D(14,12,13,8)        -170.7844         estimate D2E/DX2                !
 ! D82   D(14,12,13,17)          8.3432         estimate D2E/DX2                !
 ! D83   D(46,12,13,8)          74.4721         estimate D2E/DX2                !
 ! D84   D(46,12,13,17)       -106.4003         estimate D2E/DX2                !
 ! D85   D(11,12,14,15)       -102.8299         estimate D2E/DX2                !
 ! D86   D(13,12,14,15)         24.456          estimate D2E/DX2                !
 ! D87   D(46,12,14,15)        140.9879         estimate D2E/DX2                !
 ! D88   D(8,13,17,16)         164.6398         estimate D2E/DX2                !
 ! D89   D(8,13,17,48)         -10.7046         estimate D2E/DX2                !
 ! D90   D(12,13,17,16)        -14.4219         estimate D2E/DX2                !
 ! D91   D(12,13,17,48)        170.2337         estimate D2E/DX2                !
 ! D92   D(12,14,15,16)        -48.3677         estimate D2E/DX2                !
 ! D93   D(12,14,15,18)       -169.8879         estimate D2E/DX2                !
 ! D94   D(12,14,15,47)         71.8153         estimate D2E/DX2                !
 ! D95   D(14,15,16,17)         41.2358         estimate D2E/DX2                !
 ! D96   D(14,15,16,21)       -143.9542         estimate D2E/DX2                !
 ! D97   D(18,15,16,17)        159.9556         estimate D2E/DX2                !
 ! D98   D(18,15,16,21)        -25.2344         estimate D2E/DX2                !
 ! D99   D(47,15,16,17)        -79.4247         estimate D2E/DX2                !
 ! D100  D(47,15,16,21)         95.3853         estimate D2E/DX2                !
 ! D101  D(14,15,18,19)        172.6481         estimate D2E/DX2                !
 ! D102  D(14,15,18,49)         51.8036         estimate D2E/DX2                !
 ! D103  D(14,15,18,50)        -65.4995         estimate D2E/DX2                !
 ! D104  D(16,15,18,19)         50.5931         estimate D2E/DX2                !
 ! D105  D(16,15,18,49)        -70.2514         estimate D2E/DX2                !
 ! D106  D(16,15,18,50)        172.4455         estimate D2E/DX2                !
 ! D107  D(47,15,18,19)        -69.3111         estimate D2E/DX2                !
 ! D108  D(47,15,18,49)        169.8444         estimate D2E/DX2                !
 ! D109  D(47,15,18,50)         52.5413         estimate D2E/DX2                !
 ! D110  D(15,16,17,13)        -10.6954         estimate D2E/DX2                !
 ! D111  D(15,16,17,48)        164.6507         estimate D2E/DX2                !
 ! D112  D(21,16,17,13)        174.7625         estimate D2E/DX2                !
 ! D113  D(21,16,17,48)         -9.8915         estimate D2E/DX2                !
 ! D114  D(15,16,21,20)          0.3238         estimate D2E/DX2                !
 ! D115  D(15,16,21,22)       -179.1046         estimate D2E/DX2                !
 ! D116  D(17,16,21,20)        174.6928         estimate D2E/DX2                !
 ! D117  D(17,16,21,22)         -4.7356         estimate D2E/DX2                !
 ! D118  D(15,18,19,20)        -51.615          estimate D2E/DX2                !
 ! D119  D(15,18,19,51)       -171.3249         estimate D2E/DX2                !
 ! D120  D(15,18,19,52)         69.5889         estimate D2E/DX2                !
 ! D121  D(49,18,19,20)         67.9063         estimate D2E/DX2                !
 ! D122  D(49,18,19,51)        -51.8036         estimate D2E/DX2                !
 ! D123  D(49,18,19,52)       -170.8898         estimate D2E/DX2                !
 ! D124  D(50,18,19,20)       -173.9295         estimate D2E/DX2                !
 ! D125  D(50,18,19,51)         66.3607         estimate D2E/DX2                !
 ! D126  D(50,18,19,52)        -52.7256         estimate D2E/DX2                !
 ! D127  D(18,19,20,21)         27.881          estimate D2E/DX2                !
 ! D128  D(18,19,20,24)       -157.552          estimate D2E/DX2                !
 ! D129  D(51,19,20,21)        148.5677         estimate D2E/DX2                !
 ! D130  D(51,19,20,24)        -36.8653         estimate D2E/DX2                !
 ! D131  D(52,19,20,21)        -94.6668         estimate D2E/DX2                !
 ! D132  D(52,19,20,24)         79.9002         estimate D2E/DX2                !
 ! D133  D(19,20,21,16)         -1.8461         estimate D2E/DX2                !
 ! D134  D(19,20,21,22)        177.6879         estimate D2E/DX2                !
 ! D135  D(24,20,21,16)       -177.1152         estimate D2E/DX2                !
 ! D136  D(24,20,21,22)          2.4188         estimate D2E/DX2                !
 ! D137  D(19,20,24,23)       -176.9403         estimate D2E/DX2                !
 ! D138  D(19,20,24,25)          2.3625         estimate D2E/DX2                !
 ! D139  D(21,20,24,23)         -1.8594         estimate D2E/DX2                !
 ! D140  D(21,20,24,25)        177.4434         estimate D2E/DX2                !
 ! D141  D(16,21,22,23)        177.5301         estimate D2E/DX2                !
 ! D142  D(16,21,22,53)         56.8895         estimate D2E/DX2                !
 ! D143  D(16,21,22,54)        -62.1203         estimate D2E/DX2                !
 ! D144  D(20,21,22,23)         -1.9611         estimate D2E/DX2                !
 ! D145  D(20,21,22,53)       -122.6017         estimate D2E/DX2                !
 ! D146  D(20,21,22,54)        118.3885         estimate D2E/DX2                !
 ! D147  D(21,22,23,24)          0.8727         estimate D2E/DX2                !
 ! D148  D(21,22,23,28)       -178.6413         estimate D2E/DX2                !
 ! D149  D(53,22,23,24)        120.6087         estimate D2E/DX2                !
 ! D150  D(53,22,23,28)        -58.9053         estimate D2E/DX2                !
 ! D151  D(54,22,23,24)       -118.6936         estimate D2E/DX2                !
 ! D152  D(54,22,23,28)         61.7923         estimate D2E/DX2                !
 ! D153  D(22,23,24,20)          0.4914         estimate D2E/DX2                !
 ! D154  D(22,23,24,25)       -178.8649         estimate D2E/DX2                !
 ! D155  D(28,23,24,20)       -179.9291         estimate D2E/DX2                !
 ! D156  D(28,23,24,25)          0.7146         estimate D2E/DX2                !
 ! D157  D(22,23,28,27)        179.7598         estimate D2E/DX2                !
 ! D158  D(22,23,28,57)          0.5858         estimate D2E/DX2                !
 ! D159  D(24,23,28,27)          0.2932         estimate D2E/DX2                !
 ! D160  D(24,23,28,57)       -178.8809         estimate D2E/DX2                !
 ! D161  D(20,24,25,26)       -179.9446         estimate D2E/DX2                !
 ! D162  D(20,24,25,55)         -0.8112         estimate D2E/DX2                !
 ! D163  D(23,24,25,26)         -0.7232         estimate D2E/DX2                !
 ! D164  D(23,24,25,55)        178.4102         estimate D2E/DX2                !
 ! D165  D(24,25,26,27)         -0.2643         estimate D2E/DX2                !
 ! D166  D(24,25,26,56)        179.1741         estimate D2E/DX2                !
 ! D167  D(55,25,26,27)       -179.4137         estimate D2E/DX2                !
 ! D168  D(55,25,26,56)          0.0247         estimate D2E/DX2                !
 ! D169  D(25,26,27,28)          1.2999         estimate D2E/DX2                !
 ! D170  D(25,26,27,30)        179.464          estimate D2E/DX2                !
 ! D171  D(56,26,27,28)       -178.1467         estimate D2E/DX2                !
 ! D172  D(56,26,27,30)          0.0174         estimate D2E/DX2                !
 ! D173  D(26,27,28,23)         -1.2981         estimate D2E/DX2                !
 ! D174  D(26,27,28,57)        177.8942         estimate D2E/DX2                !
 ! D175  D(30,27,28,23)       -179.4639         estimate D2E/DX2                !
 ! D176  D(30,27,28,57)         -0.2716         estimate D2E/DX2                !
 ! D177  D(26,27,30,34)        -15.9148         estimate D2E/DX2                !
 ! D178  D(26,27,30,35)         97.1961         estimate D2E/DX2                !
 ! D179  D(26,27,30,36)       -151.779          estimate D2E/DX2                !
 ! D180  D(28,27,30,34)        162.3167         estimate D2E/DX2                !
 ! D181  D(28,27,30,35)        -84.5724         estimate D2E/DX2                !
 ! D182  D(28,27,30,36)         26.4525         estimate D2E/DX2                !
 ! D183  D(27,30,35,58)        141.5054         estimate D2E/DX2                !
 ! D184  D(34,30,35,58)       -105.0085         estimate D2E/DX2                !
 ! D185  D(36,30,35,58)         27.5935         estimate D2E/DX2                !
 --------------------------------------------------------------------------------
 Trust Radius=3.00D-01 FncErr=1.00D-07 GrdErr=1.00D-06
 Number of optimizations in scan=   3
 Number of steps in this run=    348 maximum allowed number of steps=    348.
 GradGradGradGradGradGradGradGradGradGradGradGradGradGradGradGradGradGrad

                          Input orientation:                          
 ---------------------------------------------------------------------
 Center     Atomic      Atomic             Coordinates (Angstroms)
 Number     Number       Type             X           Y           Z
 ---------------------------------------------------------------------
      1          6           0       -6.866000    1.559000    0.204000
      2          6           0       -5.528000    1.941000    0.085000
      3          6           0       -5.112000    3.284000    0.118000
      4          6           0       -6.048000    4.293000    0.278000
      5          6           0       -7.402000    3.933000    0.380000
      6          6           0       -7.800000    2.586000    0.356000
      7          6           0       -3.608000    3.311000   -0.018000
      8          6           0       -3.256000    1.847000   -0.151000
      9          7           0       -4.381000    1.124000   -0.068000
     10          6           0       -4.424000   -0.346000   -0.086000
     11          6           0       -3.049000   -0.951000    0.205000
     12          6           0       -1.995000   -0.240000   -0.654000
     13          6           0       -1.986000    1.241000   -0.326000
     14          8           0       -0.721000   -0.870000   -0.623000
     15          6           0        0.301000   -0.281000    0.182000
     16          6           0        0.423000    1.213000   -0.059000
     17          6           0       -0.795000    1.925000   -0.194000
     18          6           0        1.599000   -1.004000   -0.175000
     19          6           0        2.807000   -0.344000    0.489000
     20          7           0        2.816000    1.091000    0.213000
     21          6           0        1.665000    1.806000   -0.026000
     22          6           0        2.039000    3.264000   -0.215000
     23          6           0        3.535000    3.254000    0.002000
     24          6           0        3.937000    1.927000    0.260000
     25          6           0        5.265000    1.590000    0.526000
     26          6           0        6.211000    2.623000    0.515000
     27          6           0        5.811000    3.932000    0.239000
     28          6           0        4.470000    4.273000   -0.008000
     29         16           0       -8.670000    5.263000    0.510000
     30         16           0        7.042000    5.231000    0.247000
     31          8           0       -8.999000    5.486000   -0.937000
     32          8           0       -9.754000    4.626000    1.323000
     33          8           0       -7.919000    6.380000    1.171000
     34          8           0        8.251000    4.739000    0.926000
     35          8           0        7.349000    5.305000   -1.390000
     36          8           0        6.413000    6.520000    0.610000
     37          1           0       -7.178000    0.513000    0.182000
     38          1           0       -5.787000    5.351000    0.340000
     39          1           0       -8.863000    2.370000    0.474000
     40          1           0       -3.111000    3.758000    0.858000
     41          1           0       -3.264000    3.872000   -0.903000
     42          1           0       -4.799000   -0.660000   -1.075000
     43          1           0       -5.165000   -0.663000    0.661000
     44          1           0       -3.071000   -2.024000   -0.033000
     45          1           0       -2.801000   -0.845000    1.274000
     46          1           0       -2.312000   -0.335000   -1.710000
     47          1           0        0.064000   -0.446000    1.254000
     48          1           0       -0.799000    3.016000   -0.117000
     49          1           0        1.709000   -0.977000   -1.271000
     50          1           0        1.544000   -2.059000    0.129000
     51          1           0        3.738000   -0.780000    0.099000
     52          1           0        2.800000   -0.501000    1.583000
     53          1           0        1.511000    3.909000    0.507000
     54          1           0        1.764000    3.619000   -1.222000
     55          1           0        5.569000    0.568000    0.750000
     56          1           0        7.260000    2.420000    0.729000
     57          1           0        4.194000    5.314000   -0.186000
     58          1           0        7.465000    6.255000   -1.585000
 ---------------------------------------------------------------------
 Stoichiometry    C25H22N2O7S2
 Framework group  C1[X(C25H22N2O7S2)]
 Deg. of freedom   168
 Full point group                 C1      NOp   1
 Largest Abelian subgroup         C1      NOp   1
 Largest concise Abelian subgroup C1      NOp   1
                         Standard orientation:                         
 ---------------------------------------------------------------------
 Center     Atomic      Atomic             Coordinates (Angstroms)
 Number     Number       Type             X           Y           Z
 ---------------------------------------------------------------------
      1          6           0       -6.109895    1.163797   -0.074480
      2          6           0       -4.769264    0.793053    0.050364
      3          6           0       -4.349127   -0.548441    0.091263
      4          6           0       -5.283552   -1.567615    0.002326
      5          6           0       -6.639902   -1.217876   -0.104059
      6          6           0       -7.042163    0.127130   -0.154397
      7          6           0       -2.843511   -0.563356    0.210176
      8          6           0       -2.494913    0.906873    0.252574
      9          7           0       -3.623287    1.620715    0.141013
     10          6           0       -3.671066    3.089108    0.073106
     11          6           0       -2.301746    3.679638   -0.269777
     12          6           0       -1.235039    3.023223    0.616549
     13          6           0       -1.224962    1.525525    0.376079
     14          8           0        0.036343    3.653729    0.532965
     15          6           0        1.050547    3.021151   -0.248486
     16          6           0        1.180530    1.544244    0.078397
     17          6           0       -0.033322    0.838148    0.269927
     18          6           0        2.350296    3.767380    0.049471
     19          6           0        3.552429    3.072717   -0.589341
     20          7           0        3.569642    1.656463   -0.229604
     21          6           0        2.424051    0.953668    0.065093
     22          6           0        2.805263   -0.489682    0.334866
     23          6           0        4.298492   -0.488444    0.099339
     24          6           0        4.692831    0.822160   -0.241118
     25          6           0        6.016368    1.146498   -0.542718
     26          6           0        6.965940    0.118478   -0.482612
     27          6           0        6.573757   -1.173093   -0.125270
     28          6           0        5.237005   -1.502576    0.157758
     29         16           0       -7.904847   -2.556620   -0.140114
     30         16           0        7.808983   -2.467004   -0.071989
     31          8           0       -8.215592   -2.695014    1.321414
     32          8           0       -9.000745   -1.971452   -0.975806
     33          8           0       -7.158087   -3.708541   -0.743470
     34          8           0        9.008016   -2.012544   -0.793496
     35          8           0        8.135975   -2.443772    1.562646
     36          8           0        7.180035   -3.776807   -0.350863
     37          1           0       -6.425163    2.208439   -0.110177
     38          1           0       -5.019722   -2.626725   -0.000574
     39          1           0       -8.107239    0.332961   -0.271855
     40          1           0       -2.355606   -1.059766   -0.644060
     41          1           0       -2.486944   -1.070408    1.122339
     42          1           0       -4.035164    3.459723    1.046461
     43          1           0       -4.422106    3.359634   -0.682099
     44          1           0       -2.324521    4.764715   -0.095004
     45          1           0       -2.066312    3.511616   -1.333657
     46          1           0       -1.539587    3.179314    1.668944
     47          1           0        0.800061    3.122180   -1.325346
     48          1           0       -0.034540   -0.255499    0.257240
     49          1           0        2.473612    3.805182    1.143732
     50          1           0        2.288041    4.802523   -0.315317
     51          1           0        4.486581    3.533399   -0.237078
     52          1           0        3.531686    3.165084   -1.690509
     53          1           0        2.270782   -1.177445   -0.341451
     54          1           0        2.543651   -0.785580    1.364285
     55          1           0        6.314162    2.154368   -0.830108
     56          1           0        8.011584    0.311358   -0.721011
     57          1           0        4.966717   -2.532043    0.400005
     58          1           0        8.257553   -3.380345    1.811711
 ---------------------------------------------------------------------
 Rotational constants (GHZ):      0.1787157      0.0299184      0.0260352
 Standard basis: CC-pVDZ (5D, 7F)
 There are   622 symmetry adapted basis functions of A   symmetry.
 Integral buffers will be    131072 words long.
 Raffenetti 2 integral format.
 Two-electron integral symmetry is turned on.
   622 basis functions,  1418 primitive gaussians,   658 cartesian basis functions
   137 alpha electrons      137 beta electrons
       nuclear repulsion energy      3958.3699132388 Hartrees.
 NAtoms=   58 NActive=   58 NUniq=   58 SFac= 1.00D+00 NAtFMM=   50 NAOKFM=T Big=T
 One-electron integrals computed using PRISM.
 NBasis=   622 RedAO= T  NBF=   622
 NBsUse=   622 1.00D-06 NBFU=   622
 Harris functional with IExCor=  402 diagonalized for initial guess.
 ExpMin= 1.22D-01 ExpMax= 1.11D+05 ExpMxC= 1.07D+03 IAcc=2 IRadAn=         0 AccDes= 0.00D+00
 HarFok:  IExCor=  402 AccDes= 0.00D+00 IRadAn=         0 IDoV= 1
 ScaDFX=  1.000000  1.000000  1.000000  1.000000
 FoFCou: FMM=F IPFlag=           0 FMFlag=      100000 FMFlg1=        2001
         NFxFlg=           0 DoJE=T BraDBF=F KetDBF=T FulRan=T
         Omega=  0.000000  0.000000  1.000000  0.000000  0.000000 ICntrl=     500 IOpCl=  0
         NMat0=    1 NMatS0=    1 NMatT0=    0 NMatD0=    1 NMtDS0=    0 NMtDT0=    0
         I1Cent=           4 NGrid=           0.
 Petite list used in FoFCou.
 Initial guess orbital symmetries:
       Occupied  (A) (A) (A) (A) (A) (A) (A) (A) (A) (A) (A) (A)
                 (A) (A) (A) (A) (A) (A) (A) (A) (A) (A) (A) (A)
                 (A) (A) (A) (A) (A) (A) (A) (A) (A) (A) (A) (A)
                 (A) (A) (A) (A) (A) (A) (A) (A) (A) (A) (A) (A)
                 (A) (A) (A) (A) (A) (A) (A) (A) (A) (A) (A) (A)
                 (A) (A) (A) (A) (A) (A) (A) (A) (A) (A) (A) (A)
                 (A) (A) (A) (A) (A) (A) (A) (A) (A) (A) (A) (A)
                 (A) (A) (A) (A) (A) (A) (A) (A) (A) (A) (A) (A)
                 (A) (A) (A) (A) (A) (A) (A) (A) (A) (A) (A) (A)
                 (A) (A) (A) (A) (A) (A) (A) (A) (A) (A) (A) (A)
                 (A) (A) (A) (A) (A) (A) (A) (A) (A) (A) (A) (A)
                 (A) (A) (A) (A) (A)
       Virtual   (A) (A) (A) (A) (A) (A) (A) (A) (A) (A) (A) (A)
                 (A) (A) (A) (A) (A) (A) (A) (A) (A) (A) (A) (A)
                 (A) (A) (A) (A) (A) (A) (A) (A) (A) (A) (A) (A)
                 (A) (A) (A) (A) (A) (A) (A) (A) (A) (A) (A) (A)
                 (A) (A) (A) (A) (A) (A) (A) (A) (A) (A) (A) (A)
                 (A) (A) (A) (A) (A) (A) (A) (A) (A) (A) (A) (A)
                 (A) (A) (A) (A) (A) (A) (A) (A) (A) (A) (A) (A)
                 (A) (A) (A) (A) (A) (A) (A) (A) (A) (A) (A) (A)
                 (A) (A) (A) (A) (A) (A) (A) (A) (A) (A) (A) (A)
                 (A) (A) (A) (A) (A) (A) (A) (A) (A) (A) (A) (A)
                 (A) (A) (A) (A) (A) (A) (A) (A) (A) (A) (A) (A)
                 (A) (A) (A) (A) (A) (A) (A) (A) (A) (A) (A) (A)
                 (A) (A) (A) (A) (A) (A) (A) (A) (A) (A) (A) (A)
                 (A) (A) (A) (A) (A) (A) (A) (A) (A) (A) (A) (A)
                 (A) (A) (A) (A) (A) (A) (A) (A) (A) (A) (A) (A)
                 (A) (A) (A) (A) (A) (A) (A) (A) (A) (A) (A) (A)
                 (A) (A) (A) (A) (A) (A) (A) (A) (A) (A) (A) (A)
                 (A) (A) (A) (A) (A) (A) (A) (A) (A) (A) (A) (A)
                 (A) (A) (A) (A) (A) (A) (A) (A) (A) (A) (A) (A)
                 (A) (A) (A) (A) (A) (A) (A) (A) (A) (A) (A) (A)
                 (A) (A) (A) (A) (A) (A) (A) (A) (A) (A) (A) (A)
                 (A) (A) (A) (A) (A) (A) (A) (A) (A) (A) (A) (A)
                 (A) (A) (A) (A) (A) (A) (A) (A) (A) (A) (A) (A)
                 (A) (A) (A) (A) (A) (A) (A) (A) (A) (A) (A) (A)
                 (A) (A) (A) (A) (A) (A) (A) (A) (A) (A) (A) (A)
                 (A) (A) (A) (A) (A) (A) (A) (A) (A) (A) (A) (A)
                 (A) (A) (A) (A) (A) (A) (A) (A) (A) (A) (A) (A)
                 (A) (A) (A) (A) (A) (A) (A) (A) (A) (A) (A) (A)
                 (A) (A) (A) (A) (A) (A) (A) (A) (A) (A) (A) (A)
                 (A) (A) (A) (A) (A) (A) (A) (A) (A) (A) (A) (A)
                 (A) (A) (A) (A) (A) (A) (A) (A) (A) (A) (A) (A)
                 (A) (A) (A) (A) (A) (A) (A) (A) (A) (A) (A) (A)
                 (A) (A) (A) (A) (A) (A) (A) (A) (A) (A) (A) (A)
                 (A) (A) (A) (A) (A) (A) (A) (A) (A) (A) (A) (A)
                 (A) (A) (A) (A) (A) (A) (A) (A) (A) (A) (A) (A)
                 (A) (A) (A) (A) (A) (A) (A) (A) (A) (A) (A) (A)
                 (A) (A) (A) (A) (A) (A) (A) (A) (A) (A) (A) (A)
                 (A) (A) (A) (A) (A) (A) (A) (A) (A) (A) (A) (A)
                 (A) (A) (A) (A) (A) (A) (A) (A) (A) (A) (A) (A)
                 (A) (A) (A) (A) (A) (A) (A) (A) (A) (A) (A) (A)
                 (A) (A) (A) (A) (A)
 The electronic state of the initial guess is 1-A.
 Requested convergence on RMS density matrix=1.00D-08 within 128 cycles.
 Requested convergence on MAX density matrix=1.00D-06.
 Requested convergence on             energy=1.00D-06.
 No special actions if energy rises.
 Integral accuracy reduced to 1.0D-05 until final iterations.
 EnCoef did     4 forward-backward iterations
 EnCoef did     6 forward-backward iterations
 EnCoef did     1 forward-backward iterations
 Initial convergence to 1.0D-05 achieved.  Increase integral accuracy.
 SCF Done:  E(RB3LYP) =  -2398.26711824     A.U. after   22 cycles
             Convg  =    0.9583D-08             -V/T =  2.0051

 **********************************************************************

            Population analysis using the SCF density.

 **********************************************************************

 Orbital symmetries:
       Occupied  (A) (A) (A) (A) (A) (A) (A) (A) (A) (A) (A) (A)
                 (A) (A) (A) (A) (A) (A) (A) (A) (A) (A) (A) (A)
                 (A) (A) (A) (A) (A) (A) (A) (A) (A) (A) (A) (A)
                 (A) (A) (A) (A) (A) (A) (A) (A) (A) (A) (A) (A)
                 (A) (A) (A) (A) (A) (A) (A) (A) (A) (A) (A) (A)
                 (A) (A) (A) (A) (A) (A) (A) (A) (A) (A) (A) (A)
                 (A) (A) (A) (A) (A) (A) (A) (A) (A) (A) (A) (A)
                 (A) (A) (A) (A) (A) (A) (A) (A) (A) (A) (A) (A)
                 (A) (A) (A) (A) (A) (A) (A) (A) (A) (A) (A) (A)
                 (A) (A) (A) (A) (A) (A) (A) (A) (A) (A) (A) (A)
                 (A) (A) (A) (A) (A) (A) (A) (A) (A) (A) (A) (A)
                 (A) (A) (A) (A) (A)
       Virtual   (A) (A) (A) (A) (A) (A) (A) (A) (A) (A) (A) (A)
                 (A) (A) (A) (A) (A) (A) (A) (A) (A) (A) (A) (A)
                 (A) (A) (A) (A) (A) (A) (A) (A) (A) (A) (A) (A)
                 (A) (A) (A) (A) (A) (A) (A) (A) (A) (A) (A) (A)
                 (A) (A) (A) (A) (A) (A) (A) (A) (A) (A) (A) (A)
                 (A) (A) (A) (A) (A) (A) (A) (A) (A) (A) (A) (A)
                 (A) (A) (A) (A) (A) (A) (A) (A) (A) (A) (A) (A)
                 (A) (A) (A) (A) (A) (A) (A) (A) (A) (A) (A) (A)
                 (A) (A) (A) (A) (A) (A) (A) (A) (A) (A) (A) (A)
                 (A) (A) (A) (A) (A) (A) (A) (A) (A) (A) (A) (A)
                 (A) (A) (A) (A) (A) (A) (A) (A) (A) (A) (A) (A)
                 (A) (A) (A) (A) (A) (A) (A) (A) (A) (A) (A) (A)
                 (A) (A) (A) (A) (A) (A) (A) (A) (A) (A) (A) (A)
                 (A) (A) (A) (A) (A) (A) (A) (A) (A) (A) (A) (A)
                 (A) (A) (A) (A) (A) (A) (A) (A) (A) (A) (A) (A)
                 (A) (A) (A) (A) (A) (A) (A) (A) (A) (A) (A) (A)
                 (A) (A) (A) (A) (A) (A) (A) (A) (A) (A) (A) (A)
                 (A) (A) (A) (A) (A) (A) (A) (A) (A) (A) (A) (A)
                 (A) (A) (A) (A) (A) (A) (A) (A) (A) (A) (A) (A)
                 (A) (A) (A) (A) (A) (A) (A) (A) (A) (A) (A) (A)
                 (A) (A) (A) (A) (A) (A) (A) (A) (A) (A) (A) (A)
                 (A) (A) (A) (A) (A) (A) (A) (A) (A) (A) (A) (A)
                 (A) (A) (A) (A) (A) (A) (A) (A) (A) (A) (A) (A)
                 (A) (A) (A) (A) (A) (A) (A) (A) (A) (A) (A) (A)
                 (A) (A) (A) (A) (A) (A) (A) (A) (A) (A) (A) (A)
                 (A) (A) (A) (A) (A) (A) (A) (A) (A) (A) (A) (A)
                 (A) (A) (A) (A) (A) (A) (A) (A) (A) (A) (A) (A)
                 (A) (A) (A) (A) (A) (A) (A) (A) (A) (A) (A) (A)
                 (A) (A) (A) (A) (A) (A) (A) (A) (A) (A) (A) (A)
                 (A) (A) (A) (A) (A) (A) (A) (A) (A) (A) (A) (A)
                 (A) (A) (A) (A) (A) (A) (A) (A) (A) (A) (A) (A)
                 (A) (A) (A) (A) (A) (A) (A) (A) (A) (A) (A) (A)
                 (A) (A) (A) (A) (A) (A) (A) (A) (A) (A) (A) (A)
                 (A) (A) (A) (A) (A) (A) (A) (A) (A) (A) (A) (A)
                 (A) (A) (A) (A) (A) (A) (A) (A) (A) (A) (A) (A)
                 (A) (A) (A) (A) (A) (A) (A) (A) (A) (A) (A) (A)
                 (A) (A) (A) (A) (A) (A) (A) (A) (A) (A) (A) (A)
                 (A) (A) (A) (A) (A) (A) (A) (A) (A) (A) (A) (A)
                 (A) (A) (A) (A) (A) (A) (A) (A) (A) (A) (A) (A)
                 (A) (A) (A) (A) (A) (A) (A) (A) (A) (A) (A) (A)
                 (A) (A) (A) (A) (A)
 The electronic state is 1-A.
 Alpha  occ. eigenvalues --  -89.14950 -89.01753 -19.21112 -19.19723 -19.16656
 Alpha  occ. eigenvalues --  -19.16586 -19.02815 -19.02798 -19.02711 -14.45949
 Alpha  occ. eigenvalues --  -14.44610 -10.30983 -10.30773 -10.30000 -10.29949
 Alpha  occ. eigenvalues --  -10.29555 -10.29514 -10.29255 -10.27027 -10.26548
 Alpha  occ. eigenvalues --  -10.26489 -10.25953 -10.25798 -10.25608 -10.25447
 Alpha  occ. eigenvalues --  -10.25422 -10.25369 -10.25353 -10.24943 -10.24876
 Alpha  occ. eigenvalues --  -10.24571 -10.22206 -10.21477 -10.19611 -10.19382
 Alpha  occ. eigenvalues --  -10.18921  -8.18112  -8.04589  -6.14536  -6.14380
 Alpha  occ. eigenvalues --   -6.14241  -6.00919  -6.00892  -6.00883  -1.15785
 Alpha  occ. eigenvalues --   -1.09487  -1.06147  -1.06036  -1.05272  -1.03071
 Alpha  occ. eigenvalues --   -1.01664  -0.92539  -0.89728  -0.89030  -0.88414
 Alpha  occ. eigenvalues --   -0.88120  -0.87739  -0.86831  -0.85200  -0.82508
 Alpha  occ. eigenvalues --   -0.81594  -0.80085  -0.77645  -0.77076  -0.75002
 Alpha  occ. eigenvalues --   -0.74402  -0.73318  -0.71314  -0.68520  -0.68011
 Alpha  occ. eigenvalues --   -0.66464  -0.65260  -0.64688  -0.62522  -0.61644
 Alpha  occ. eigenvalues --   -0.59942  -0.58704  -0.58028  -0.57690  -0.57107
 Alpha  occ. eigenvalues --   -0.55929  -0.55091  -0.54538  -0.54183  -0.53221
 Alpha  occ. eigenvalues --   -0.52542  -0.52464  -0.51353  -0.50858  -0.50141
 Alpha  occ. eigenvalues --   -0.49704  -0.49243  -0.48715  -0.48426  -0.47796
 Alpha  occ. eigenvalues --   -0.47761  -0.46759  -0.46361  -0.45916  -0.45725
 Alpha  occ. eigenvalues --   -0.45189  -0.44789  -0.44615  -0.44264  -0.43957
 Alpha  occ. eigenvalues --   -0.43297  -0.43042  -0.42331  -0.41587  -0.40656
 Alpha  occ. eigenvalues --   -0.40083  -0.39991  -0.39384  -0.38886  -0.38350
 Alpha  occ. eigenvalues --   -0.38083  -0.36792  -0.36355  -0.36190  -0.35902
 Alpha  occ. eigenvalues --   -0.34848  -0.34727  -0.34133  -0.34132  -0.32066
 Alpha  occ. eigenvalues --   -0.31406  -0.31348  -0.30620  -0.27132  -0.26735
 Alpha  occ. eigenvalues --   -0.23971  -0.23688  -0.23529  -0.20900  -0.20645
 Alpha  occ. eigenvalues --   -0.19678  -0.16520
 Alpha virt. eigenvalues --   -0.13666  -0.07445  -0.07188  -0.04601  -0.02106
 Alpha virt. eigenvalues --   -0.00561  -0.00005   0.00264   0.00835   0.00990
 Alpha virt. eigenvalues --    0.02065   0.03005   0.03901   0.03989   0.04886
 Alpha virt. eigenvalues --    0.05143   0.05603   0.05843   0.06685   0.06848
 Alpha virt. eigenvalues --    0.07201   0.07420   0.08129   0.08433   0.08510
 Alpha virt. eigenvalues --    0.08901   0.09287   0.09459   0.09972   0.10024
 Alpha virt. eigenvalues --    0.10427   0.10964   0.11558   0.11783   0.12136
 Alpha virt. eigenvalues --    0.12463   0.12905   0.13510   0.14607   0.14932
 Alpha virt. eigenvalues --    0.15412   0.15939   0.16177   0.16998   0.17683
 Alpha virt. eigenvalues --    0.17765   0.18495   0.19354   0.19998   0.20770
 Alpha virt. eigenvalues --    0.21454   0.22761   0.23800   0.24212   0.24598
 Alpha virt. eigenvalues --    0.26487   0.27427   0.27470   0.27853   0.28501
 Alpha virt. eigenvalues --    0.29320   0.29881   0.31237   0.31685   0.32933
 Alpha virt. eigenvalues --    0.33547   0.34405   0.34606   0.35477   0.36381
 Alpha virt. eigenvalues --    0.37295   0.37785   0.38341   0.38707   0.39067
 Alpha virt. eigenvalues --    0.39772   0.40303   0.40413   0.40872   0.41034
 Alpha virt. eigenvalues --    0.41490   0.41809   0.42183   0.42848   0.42980
 Alpha virt. eigenvalues --    0.43470   0.43589   0.44333   0.44527   0.45258
 Alpha virt. eigenvalues --    0.45607   0.45907   0.46161   0.46693   0.47220
 Alpha virt. eigenvalues --    0.47669   0.48177   0.48577   0.48892   0.49175
 Alpha virt. eigenvalues --    0.49849   0.49898   0.50246   0.50735   0.51017
 Alpha virt. eigenvalues --    0.51504   0.52051   0.52318   0.52597   0.52928
 Alpha virt. eigenvalues --    0.53475   0.54123   0.54496   0.54847   0.55584
 Alpha virt. eigenvalues --    0.55739   0.56390   0.56533   0.56804   0.57322
 Alpha virt. eigenvalues --    0.57444   0.57782   0.58054   0.58302   0.58725
 Alpha virt. eigenvalues --    0.59091   0.59415   0.59971   0.60130   0.60557
 Alpha virt. eigenvalues --    0.61080   0.61245   0.61374   0.62171   0.62482
 Alpha virt. eigenvalues --    0.62693   0.62916   0.63332   0.63673   0.63795
 Alpha virt. eigenvalues --    0.64063   0.65035   0.65099   0.65250   0.65801
 Alpha virt. eigenvalues --    0.66088   0.66705   0.67353   0.67674   0.68460
 Alpha virt. eigenvalues --    0.68877   0.69234   0.69495   0.69604   0.70263
 Alpha virt. eigenvalues --    0.70934   0.72764   0.73036   0.73906   0.74746
 Alpha virt. eigenvalues --    0.75963   0.77114   0.77801   0.78316   0.79121
 Alpha virt. eigenvalues --    0.79548   0.80913   0.81735   0.82161   0.82781
 Alpha virt. eigenvalues --    0.83214   0.83905   0.84548   0.84892   0.85352
 Alpha virt. eigenvalues --    0.86021   0.86164   0.86613   0.87294   0.87818
 Alpha virt. eigenvalues --    0.88345   0.89099   0.89148   0.89386   0.91073
 Alpha virt. eigenvalues --    0.91649   0.92006   0.92937   0.93271   0.93395
 Alpha virt. eigenvalues --    0.93960   0.94531   0.95099   0.95525   0.95985
 Alpha virt. eigenvalues --    0.96489   0.96978   0.98295   0.98580   0.99173
 Alpha virt. eigenvalues --    0.99282   1.00614   1.00750   1.00936   1.01991
 Alpha virt. eigenvalues --    1.02770   1.03971   1.04642   1.04829   1.05647
 Alpha virt. eigenvalues --    1.06519   1.07001   1.07474   1.08238   1.08791
 Alpha virt. eigenvalues --    1.09037   1.10324   1.10594   1.11385   1.11691
 Alpha virt. eigenvalues --    1.13230   1.13878   1.13952   1.14477   1.14817
 Alpha virt. eigenvalues --    1.15668   1.16169   1.16386   1.16643   1.16891
 Alpha virt. eigenvalues --    1.17433   1.19285   1.20021   1.20305   1.20788
 Alpha virt. eigenvalues --    1.21149   1.21333   1.22207   1.22790   1.23378
 Alpha virt. eigenvalues --    1.24370   1.25155   1.25756   1.25905   1.26568
 Alpha virt. eigenvalues --    1.27330   1.28778   1.29141   1.29332   1.30855
 Alpha virt. eigenvalues --    1.31910   1.32444   1.33176   1.33829   1.34190
 Alpha virt. eigenvalues --    1.34306   1.35473   1.36270   1.36864   1.36969
 Alpha virt. eigenvalues --    1.37750   1.38905   1.39554   1.40475   1.41139
 Alpha virt. eigenvalues --    1.41961   1.42372   1.42745   1.43816   1.44665
 Alpha virt. eigenvalues --    1.45146   1.45295   1.46278   1.47616   1.48170
 Alpha virt. eigenvalues --    1.48651   1.49398   1.49767   1.50029   1.50572
 Alpha virt. eigenvalues --    1.51447   1.52049   1.52499   1.52742   1.53214
 Alpha virt. eigenvalues --    1.53601   1.54174   1.54906   1.55451   1.55773
 Alpha virt. eigenvalues --    1.57021   1.57339   1.58178   1.58789   1.59743
 Alpha virt. eigenvalues --    1.59826   1.60606   1.60783   1.61320   1.61483
 Alpha virt. eigenvalues --    1.62148   1.62808   1.63160   1.63948   1.64152
 Alpha virt. eigenvalues --    1.64914   1.65634   1.65868   1.66158   1.66289
 Alpha virt. eigenvalues --    1.67112   1.67170   1.67584   1.68220   1.68478
 Alpha virt. eigenvalues --    1.69631   1.70105   1.70926   1.71629   1.71826
 Alpha virt. eigenvalues --    1.71863   1.72338   1.73461   1.73704   1.74066
 Alpha virt. eigenvalues --    1.74991   1.75176   1.75959   1.76399   1.76838
 Alpha virt. eigenvalues --    1.76969   1.77216   1.77739   1.78061   1.78373
 Alpha virt. eigenvalues --    1.79523   1.79669   1.80781   1.82032   1.82656
 Alpha virt. eigenvalues --    1.83320   1.83941   1.84462   1.84584   1.85199
 Alpha virt. eigenvalues --    1.86762   1.87478   1.87768   1.88477   1.89089
 Alpha virt. eigenvalues --    1.89585   1.90118   1.90599   1.91131   1.92254
 Alpha virt. eigenvalues --    1.92611   1.93545   1.94429   1.95244   1.96039
 Alpha virt. eigenvalues --    1.96601   1.97929   1.98753   1.99928   2.00576
 Alpha virt. eigenvalues --    2.01036   2.01415   2.01587   2.02384   2.02589
 Alpha virt. eigenvalues --    2.03867   2.04194   2.05010   2.05263   2.05678
 Alpha virt. eigenvalues --    2.06206   2.07281   2.07683   2.08358   2.09018
 Alpha virt. eigenvalues --    2.10257   2.10588   2.11540   2.12652   2.13183
 Alpha virt. eigenvalues --    2.13385   2.13657   2.14485   2.15486   2.16164
 Alpha virt. eigenvalues --    2.16526   2.17029   2.17817   2.18945   2.20256
 Alpha virt. eigenvalues --    2.22368   2.23423   2.23751   2.25032   2.26560
 Alpha virt. eigenvalues --    2.26773   2.27667   2.29779   2.30400   2.31369
 Alpha virt. eigenvalues --    2.32706   2.33698   2.35450   2.36651   2.36960
 Alpha virt. eigenvalues --    2.37511   2.39507   2.39658   2.41033   2.41895
 Alpha virt. eigenvalues --    2.42722   2.43608   2.45172   2.47705   2.48394
 Alpha virt. eigenvalues --    2.48884   2.49644   2.51646   2.52258   2.52960
 Alpha virt. eigenvalues --    2.53964   2.54783   2.55133   2.55910   2.56325
 Alpha virt. eigenvalues --    2.57458   2.58292   2.58785   2.59326   2.59669
 Alpha virt. eigenvalues --    2.60022   2.60288   2.61584   2.61614   2.62420
 Alpha virt. eigenvalues --    2.63055   2.63646   2.64584   2.67840   2.70158
 Alpha virt. eigenvalues --    2.70404   2.70607   2.70801   2.72196   2.73268
 Alpha virt. eigenvalues --    2.74681   2.75500   2.76258   2.77018   2.77917
 Alpha virt. eigenvalues --    2.79558   2.81349   2.82990   2.84018   2.85795
 Alpha virt. eigenvalues --    2.86408   2.87706   2.88543   2.89502   2.91343
 Alpha virt. eigenvalues --    2.95015   2.95600   2.96899   2.97904   2.99418
 Alpha virt. eigenvalues --    2.99587   3.03835   3.07252   3.08063   3.10825
 Alpha virt. eigenvalues --    3.22533   3.25934   3.31009   3.33363   3.35619
 Alpha virt. eigenvalues --    3.36825   3.38182   3.41033   3.41840   3.58169
          Condensed to atoms (all electrons):
 Mulliken atomic charges:
              1
     1  C   -0.009440
     2  C    0.223429
     3  C   -0.131865
     4  C    0.043387
     5  C   -0.243227
     6  C    0.111168
     7  C    0.179582
     8  C    0.080695
     9  N   -0.265479
    10  C    0.088322
    11  C    0.047629
    12  C    0.157193
    13  C   -0.118145
    14  O   -0.319801
    15  C    0.129399
    16  C   -0.098469
    17  C    0.009514
    18  C    0.038473
    19  C    0.095735
    20  N   -0.313988
    21  C    0.081996
    22  C    0.186878
    23  C   -0.155143
    24  C    0.268097
    25  C   -0.010123
    26  C    0.108551
    27  C   -0.251779
    28  C    0.049993
    29  S    0.986383
    30  S    0.994661
    31  O   -0.517310
    32  O   -0.519918
    33  O   -0.524896
    34  O   -0.410353
    35  O   -0.325242
    36  O   -0.438069
    37  H   -0.027858
    38  H   -0.024986
    39  H   -0.006400
    40  H    0.081326
    41  H    0.081341
    42  H    0.058144
    43  H    0.061025
    44  H    0.031164
    45  H    0.024630
    46  H    0.026462
    47  H    0.011908
    48  H   -0.026090
    49  H    0.032416
    50  H    0.026611
    51  H    0.048146
    52  H    0.045548
    53  H    0.079214
    54  H    0.080006
    55  H   -0.011006
    56  H    0.005030
    57  H   -0.014855
    58  H    0.190385
 Sum of Mulliken atomic charges =   0.00000
 Mulliken charges with hydrogens summed into heavy atoms:
              1
     1  C   -0.037298
     2  C    0.223429
     3  C   -0.131865
     4  C    0.018400
     5  C   -0.243227
     6  C    0.104768
     7  C    0.342250
     8  C    0.080695
     9  N   -0.265479
    10  C    0.207491
    11  C    0.103422
    12  C    0.183655
    13  C   -0.118145
    14  O   -0.319801
    15  C    0.141307
    16  C   -0.098469
    17  C   -0.016576
    18  C    0.097500
    19  C    0.189429
    20  N   -0.313988
    21  C    0.081996
    22  C    0.346098
    23  C   -0.155143
    24  C    0.268097
    25  C   -0.021129
    26  C    0.113581
    27  C   -0.251779
    28  C    0.035138
    29  S    0.986383
    30  S    0.994661
    31  O   -0.517310
    32  O   -0.519918
    33  O   -0.524896
    34  O   -0.410353
    35  O   -0.134856
    36  O   -0.438069
 Sum of Mulliken charges with hydrogens summed into heavy atoms =   0.00000
 Electronic spatial extent (au):  <R**2>=          36749.8354
 Charge=              0.0000 electrons
 Dipole moment (field-independent basis, Debye):
    X=             22.9029    Y=             16.9991    Z=              1.4856  Tot=             28.5608
 Quadrupole moment (field-independent basis, Debye-Ang):
   XX=           -438.7558   YY=           -227.5685   ZZ=           -224.9573
   XY=            -76.7742   XZ=              7.4042   YZ=            -14.9192
 Traceless Quadrupole moment (field-independent basis, Debye-Ang):
   XX=           -141.6619   YY=             69.5254   ZZ=             72.1366
   XY=            -76.7742   XZ=              7.4042   YZ=            -14.9192
 Octapole moment (field-independent basis, Debye-Ang**2):
  XXX=           1638.6766  YYY=            148.8631  ZZZ=              5.5190  XYY=            239.4346
  XXY=            866.2669  XXZ=            142.6686  XZZ=             70.9576  YZZ=             -0.6838
  YYZ=             28.1890  XYZ=            -75.7716
 Hexadecapole moment (field-independent basis, Debye-Ang**3):
 XXXX=         -59163.4437 YYYY=          -6885.5628 ZZZZ=           -585.8179 XXXY=          -5005.0541
 XXXZ=            762.6477 YYYX=           -887.4938 YYYZ=           -225.2385 ZZZX=             82.4961
 ZZZY=            -12.3311 XXYY=          -9215.5056 XXZZ=          -7240.3643 YYZZ=          -1204.6785
 XXYZ=           -699.4910 YYXZ=            206.4417 ZZXY=           -234.1333
 N-N= 3.958369913239D+03 E-N=-1.353923987974D+04  KE= 2.386023087375D+03
 Calling FoFJK, ICntrl=      2127 FMM=T ISym2X=0 I1Cent= 0 IOpClX= 0 NMat=1 NMatS=1 NMatT=0.
 ***** Axes restored to original set *****
 -------------------------------------------------------------------
 Center     Atomic                   Forces (Hartrees/Bohr)
 Number     Number              X              Y              Z
 -------------------------------------------------------------------
      1        6           0.000159768    0.000076746    0.000129169
      2        6           0.000128547   -0.000143600   -0.000203834
      3        6          -0.000410203    0.000506096    0.000207624
      4        6           0.000360495   -0.000854621   -0.000250509
      5        6          -0.000036577    0.000016452    0.000236346
      6        6          -0.000014512    0.000271809   -0.000151426
      7        6          -0.000267654   -0.000722809   -0.000334782
      8        6           0.000004829    0.000337163    0.000020987
      9        7           0.000176090    0.000297789    0.000144281
     10        6          -0.000353503   -0.000221559   -0.000254783
     11        6           0.000200202    0.000336293    0.000042499
     12        6          -0.000309743    0.000239839    0.000410131
     13        6           0.000262796   -0.000124292   -0.000101480
     14        8           0.000100974    0.000082301    0.000097008
     15        6           0.000408648   -0.000096384    0.000000067
     16        6          -0.000068597    0.000183299   -0.000107142
     17        6          -0.000279099   -0.000188387   -0.000045900
     18        6           0.000003533    0.000178401    0.000084769
     19        6          -0.000058511   -0.000343640   -0.000231043
     20        7           0.000392521    0.000790269   -0.000092350
     21        6          -0.000440579   -0.000491788   -0.000064840
     22        6          -0.000100239    0.000177477   -0.000220474
     23        6           0.000037668   -0.000561606    0.000190520
     24        6           0.000082679   -0.000147908   -0.000136928
     25        6           0.000414498    0.001129173    0.000095448
     26        6          -0.000937899   -0.000144954   -0.000338056
     27        6          -0.000027970   -0.000737063    0.000205607
     28        6           0.000030876    0.000965712   -0.000164292
     29       16           0.000333187    0.000108547   -0.000580481
     30       16          -0.000799648    0.000894904   -0.000358081
     31        8          -0.000003143   -0.000018909    0.000096033
     32        8          -0.000381995   -0.000207366    0.000326091
     33        8           0.000049857    0.000047100    0.000098149
     34        8           0.000643329   -0.000280894    0.000356029
     35        8           0.000008019   -0.000125531    0.000013266
     36        8           0.000206650   -0.000367082   -0.000085618
     37        1           0.000016037    0.000022696   -0.000007415
     38        1           0.000020492    0.000299333    0.000034351
     39        1          -0.000171140   -0.000074189    0.000023355
     40        1           0.000219554    0.000223903    0.000385576
     41        1           0.000034603    0.000082674   -0.000085991
     42        1           0.000076465   -0.000033292    0.000102128
     43        1           0.000085249   -0.000016123    0.000018721
     44        1          -0.000023329   -0.000181722   -0.000056279
     45        1           0.000028395   -0.000018168   -0.000093389
     46        1          -0.000032261   -0.000049356   -0.000140927
     47        1          -0.000082054   -0.000076036   -0.000051191
     48        1          -0.000009289    0.000004618    0.000023823
     49        1          -0.000018678   -0.000013832    0.000091090
     50        1          -0.000020112    0.000025239   -0.000015543
     51        1          -0.000087839    0.000046859    0.000034365
     52        1          -0.000024232   -0.000082042    0.000203655
     53        1          -0.000037969    0.000090111    0.000069383
     54        1           0.000014787   -0.000109873    0.000160787
     55        1           0.000116489   -0.000477164    0.000057296
     56        1           0.000299642   -0.000098089    0.000107770
     57        1           0.000093639   -0.000478224    0.000051299
     58        1          -0.000013745    0.000051700    0.000055131
 -------------------------------------------------------------------
 Cartesian Forces:  Max     0.001129173 RMS     0.000285204

 GradGradGradGradGradGradGradGradGradGradGradGradGradGradGradGradGradGrad
 Berny optimization.
 Internal  Forces:  Max     0.000787689 RMS     0.000115960
 Search for a local minimum.
 Step number   1 out of a maximum of  348 on scan point     1 out of     3
 All quantities printed in internal units (Hartrees-Bohrs-Radians)
 Mixed Optimization -- En-DIIS/RFO-DIIS
 Second derivative matrix not updated -- first step.
 ITU=  0
     Eigenvalues ---    0.00230   0.00507   0.00689   0.00696   0.00840
     Eigenvalues ---    0.00953   0.00989   0.01064   0.01293   0.01317
     Eigenvalues ---    0.01341   0.01451   0.01461   0.01516   0.01532
     Eigenvalues ---    0.01545   0.01694   0.01730   0.01779   0.01886
     Eigenvalues ---    0.01921   0.01956   0.01974   0.02052   0.02083
     Eigenvalues ---    0.02089   0.02104   0.02119   0.02122   0.02135
     Eigenvalues ---    0.02148   0.02148   0.02172   0.02190   0.02991
     Eigenvalues ---    0.03261   0.03484   0.03832   0.04280   0.04710
     Eigenvalues ---    0.04808   0.04879   0.05026   0.05074   0.05587
     Eigenvalues ---    0.05644   0.05920   0.05973   0.07098   0.07104
     Eigenvalues ---    0.07122   0.07396   0.07710   0.08110   0.08145
     Eigenvalues ---    0.08460   0.08490   0.08527   0.09133   0.09209
     Eigenvalues ---    0.09312   0.09417   0.10549   0.11162   0.11395
     Eigenvalues ---    0.12604   0.13143   0.13481   0.15340   0.15949
     Eigenvalues ---    0.15998   0.15998   0.15998   0.15999   0.15999
     Eigenvalues ---    0.16000   0.16000   0.16160   0.16981   0.18663
     Eigenvalues ---    0.18745   0.20112   0.20482   0.20936   0.22449
     Eigenvalues ---    0.22455   0.23057   0.23236   0.23477   0.23482
     Eigenvalues ---    0.23824   0.23834   0.24634   0.24648   0.24703
     Eigenvalues ---    0.24770   0.24951   0.24970   0.24988   0.24993
     Eigenvalues ---    0.25000   0.25000   0.25000   0.25000   0.26950
     Eigenvalues ---    0.27407   0.28140   0.28462   0.28616   0.28669
     Eigenvalues ---    0.29502   0.29864   0.30236   0.30405   0.30589
     Eigenvalues ---    0.32577   0.32958   0.33110   0.33316   0.33369
     Eigenvalues ---    0.33378   0.33398   0.33407   0.33472   0.33480
     Eigenvalues ---    0.33735   0.33759   0.33760   0.33804   0.34386
     Eigenvalues ---    0.34610   0.34631   0.34642   0.34683   0.34802
     Eigenvalues ---    0.34849   0.34867   0.35720   0.38656   0.38888
     Eigenvalues ---    0.39165   0.40149   0.40221   0.41243   0.41395
     Eigenvalues ---    0.41865   0.42124   0.42572   0.43530   0.43972
     Eigenvalues ---    0.44046   0.45294   0.45418   0.45916   0.45937
     Eigenvalues ---    0.46088   0.47518   0.47663   0.47851   0.48440
     Eigenvalues ---    0.51751   0.52027   0.76481   0.76830   0.77591
     Eigenvalues ---    0.83886   0.870161000.000001000.000001000.00000
     Eigenvalues --- 1000.000001000.000001000.000001000.000001000.00000
     Eigenvalues --- 1000.000001000.000001000.000001000.000001000.00000
     Eigenvalues --- 1000.000001000.000001000.000001000.000001000.00000
     Eigenvalues --- 1000.000001000.000001000.000001000.000001000.00000
     Eigenvalues --- 1000.000001000.000001000.000001000.000001000.00000
     Eigenvalues --- 1000.000001000.000001000.000001000.000001000.00000
     Eigenvalues --- 1000.000001000.000001000.000001000.000001000.00000
     Eigenvalues --- 1000.000001000.000001000.000001000.000001000.00000
     Eigenvalues --- 1000.000001000.000001000.000001000.000001000.00000
     Eigenvalues --- 1000.000001000.000001000.000001000.000001000.00000
     Eigenvalues --- 1000.000001000.000001000.000001000.000001000.00000
     Eigenvalues --- 1000.000001000.000001000.000001000.000001000.00000
     Eigenvalues --- 1000.000001000.000001000.000001000.000001000.00000
     Eigenvalues --- 1000.000001000.000001000.000001000.000001000.00000
     Eigenvalues --- 1000.000001000.000001000.000001000.000001000.00000
     Eigenvalues --- 1000.000001000.000001000.000001000.000001000.00000
     Eigenvalues --- 1000.000001000.000001000.000001000.000001000.00000
     Eigenvalues --- 1000.000001000.000001000.000001000.000001000.00000
     Eigenvalues --- 1000.000001000.000001000.000001000.000001000.00000
     Eigenvalues --- 1000.000001000.000001000.000001000.000001000.00000
     Eigenvalues --- 1000.000001000.000001000.000001000.000001000.00000
     Eigenvalues --- 1000.000001000.000001000.000001000.000001000.00000
     Eigenvalues --- 1000.000001000.000001000.000001000.000001000.00000
[...]
                 (A) (A) (A) (A) (A) (A) (A) (A) (A) (A) (A) (A)
                 (A) (A) (A) (A) (A) (A) (A) (A) (A) (A) (A) (A)
                 (A) (A) (A) (A) (A) (A) (A) (A) (A) (A) (A) (A)
                 (A) (A) (A) (A) (A) (A) (A) (A) (A) (A) (A) (A)
                 (A) (A) (A) (A) (A) (A) (A) (A) (A) (A) (A) (A)
                 (A) (A) (A) (A) (A) (A) (A) (A) (A) (A) (A) (A)
                 (A) (A) (A) (A) (A)
       Virtual   (A) (A) (A) (A) (A) (A) (A) (A) (A) (A) (A) (A)
                 (A) (A) (A) (A) (A) (A) (A) (A) (A) (A) (A) (A)
                 (A) (A) (A) (A) (A) (A) (A) (A) (A) (A) (A) (A)
                 (A) (A) (A) (A) (A) (A) (A) (A) (A) (A) (A) (A)
                 (A) (A) (A) (A) (A) (A) (A) (A) (A) (A) (A) (A)
                 (A) (A) (A) (A) (A) (A) (A) (A) (A) (A) (A) (A)
                 (A) (A) (A) (A) (A) (A) (A) (A) (A) (A) (A) (A)
                 (A) (A) (A) (A) (A) (A) (A) (A) (A) (A) (A) (A)
                 (A) (A) (A) (A) (A) (A) (A) (A) (A) (A) (A) (A)
                 (A) (A) (A) (A) (A) (A) (A) (A) (A) (A) (A) (A)
                 (A) (A) (A) (A) (A) (A) (A) (A) (A) (A) (A) (A)
                 (A) (A) (A) (A) (A) (A) (A) (A) (A) (A) (A) (A)
                 (A) (A) (A) (A) (A) (A) (A) (A) (A) (A) (A) (A)
                 (A) (A) (A) (A) (A) (A) (A) (A) (A) (A) (A) (A)
                 (A) (A) (A) (A) (A) (A) (A) (A) (A) (A) (A) (A)
                 (A) (A) (A) (A) (A) (A) (A) (A) (A) (A) (A) (A)
                 (A) (A) (A) (A) (A) (A) (A) (A) (A) (A) (A) (A)
                 (A) (A) (A) (A) (A) (A) (A) (A) (A) (A) (A) (A)
                 (A) (A) (A) (A) (A) (A) (A) (A) (A) (A) (A) (A)
                 (A) (A) (A) (A) (A) (A) (A) (A) (A) (A) (A) (A)
                 (A) (A) (A) (A) (A) (A) (A) (A) (A) (A) (A) (A)
                 (A) (A) (A) (A) (A) (A) (A) (A) (A) (A) (A) (A)
                 (A) (A) (A) (A) (A) (A) (A) (A) (A) (A) (A) (A)
                 (A) (A) (A) (A) (A) (A) (A) (A) (A) (A) (A) (A)
                 (A) (A) (A) (A) (A) (A) (A) (A) (A) (A) (A) (A)
                 (A) (A) (A) (A) (A) (A) (A) (A) (A) (A) (A) (A)
                 (A) (A) (A) (A) (A) (A) (A) (A) (A) (A) (A) (A)
                 (A) (A) (A) (A) (A) (A) (A) (A) (A) (A) (A) (A)
                 (A) (A) (A) (A) (A) (A) (A) (A) (A) (A) (A) (A)
                 (A) (A) (A) (A) (A) (A) (A) (A) (A) (A) (A) (A)
                 (A) (A) (A) (A) (A) (A) (A) (A) (A) (A) (A) (A)
                 (A) (A) (A) (A) (A) (A) (A) (A) (A) (A) (A) (A)
                 (A) (A) (A) (A) (A) (A) (A) (A) (A) (A) (A) (A)
                 (A) (A) (A) (A) (A) (A) (A) (A) (A) (A) (A) (A)
                 (A) (A) (A) (A) (A) (A) (A) (A) (A) (A) (A) (A)
                 (A) (A) (A) (A) (A) (A) (A) (A) (A) (A) (A) (A)
                 (A) (A) (A) (A) (A) (A) (A) (A) (A) (A) (A) (A)
                 (A) (A) (A) (A) (A) (A) (A) (A) (A) (A) (A) (A)
                 (A) (A) (A) (A) (A) (A) (A) (A) (A) (A) (A) (A)
                 (A) (A) (A) (A) (A) (A) (A) (A) (A) (A) (A) (A)
                 (A) (A) (A) (A) (A)
 The electronic state is 1-A.
 Alpha  occ. eigenvalues --  -89.14931 -89.01764 -19.21102 -19.19697 -19.16653
 Alpha  occ. eigenvalues --  -19.16552 -19.02821 -19.02819 -19.02707 -14.46129
 Alpha  occ. eigenvalues --  -14.44533 -10.31074 -10.30717 -10.30034 -10.29937
 Alpha  occ. eigenvalues --  -10.29524 -10.29474 -10.29369 -10.26987 -10.26514
 Alpha  occ. eigenvalues --  -10.26475 -10.25913 -10.25765 -10.25570 -10.25483
 Alpha  occ. eigenvalues --  -10.25416 -10.25364 -10.25331 -10.24964 -10.24912
 Alpha  occ. eigenvalues --  -10.24520 -10.22285 -10.21520 -10.19675 -10.19379
 Alpha  occ. eigenvalues --  -10.18948  -8.18093  -8.04598  -6.14517  -6.14361
 Alpha  occ. eigenvalues --   -6.14222  -6.00929  -6.00901  -6.00892  -1.15761
 Alpha  occ. eigenvalues --   -1.09485  -1.06228  -1.05980  -1.05248  -1.03049
 Alpha  occ. eigenvalues --   -1.01663  -0.92507  -0.89673  -0.88947  -0.88409
 Alpha  occ. eigenvalues --   -0.88130  -0.87709  -0.86858  -0.85199  -0.82492
 Alpha  occ. eigenvalues --   -0.81557  -0.80097  -0.77680  -0.77075  -0.75031
 Alpha  occ. eigenvalues --   -0.74459  -0.73338  -0.71327  -0.68565  -0.68001
 Alpha  occ. eigenvalues --   -0.66468  -0.65261  -0.64651  -0.62479  -0.61670
 Alpha  occ. eigenvalues --   -0.59886  -0.58680  -0.57871  -0.57568  -0.57088
 Alpha  occ. eigenvalues --   -0.55911  -0.55301  -0.54558  -0.54186  -0.53219
 Alpha  occ. eigenvalues --   -0.52597  -0.52338  -0.51336  -0.50811  -0.50125
 Alpha  occ. eigenvalues --   -0.49714  -0.49212  -0.48702  -0.48372  -0.47870
 Alpha  occ. eigenvalues --   -0.47745  -0.46782  -0.46298  -0.45950  -0.45807
 Alpha  occ. eigenvalues --   -0.45110  -0.44851  -0.44604  -0.44284  -0.43896
 Alpha  occ. eigenvalues --   -0.43446  -0.43052  -0.42384  -0.41540  -0.40712
 Alpha  occ. eigenvalues --   -0.40201  -0.39848  -0.39119  -0.38848  -0.38344
 Alpha  occ. eigenvalues --   -0.38052  -0.36713  -0.36364  -0.36171  -0.35906
 Alpha  occ. eigenvalues --   -0.34821  -0.34784  -0.34127  -0.34085  -0.32035
 Alpha  occ. eigenvalues --   -0.31367  -0.31320  -0.30620  -0.27062  -0.26763
 Alpha  occ. eigenvalues --   -0.23977  -0.23693  -0.23561  -0.20897  -0.20662
 Alpha  occ. eigenvalues --   -0.19723  -0.16527
 Alpha virt. eigenvalues --   -0.13631  -0.07469  -0.07153  -0.04683  -0.02168
 Alpha virt. eigenvalues --   -0.00632  -0.00043   0.00201   0.00764   0.00866
 Alpha virt. eigenvalues --    0.01709   0.03049   0.03789   0.03964   0.04758
 Alpha virt. eigenvalues --    0.04979   0.05581   0.05804   0.06657   0.06899
 Alpha virt. eigenvalues --    0.06971   0.07385   0.07969   0.08371   0.08400
 Alpha virt. eigenvalues --    0.08586   0.09230   0.09504   0.09842   0.10064
 Alpha virt. eigenvalues --    0.10424   0.11346   0.11637   0.12083   0.12428
 Alpha virt. eigenvalues --    0.12621   0.13369   0.13764   0.14521   0.14983
 Alpha virt. eigenvalues --    0.15275   0.16065   0.16270   0.17089   0.17575
 Alpha virt. eigenvalues --    0.17934   0.18494   0.19304   0.20396   0.20826
 Alpha virt. eigenvalues --    0.21439   0.22840   0.23987   0.24297   0.24699
 Alpha virt. eigenvalues --    0.26494   0.27181   0.27425   0.28041   0.28605
 Alpha virt. eigenvalues --    0.29701   0.29878   0.30849   0.31506   0.32870
 Alpha virt. eigenvalues --    0.33604   0.34308   0.34413   0.35414   0.36318
 Alpha virt. eigenvalues --    0.37338   0.37637   0.38277   0.38471   0.39226
 Alpha virt. eigenvalues --    0.39833   0.39945   0.40754   0.41051   0.41099
 Alpha virt. eigenvalues --    0.41253   0.41788   0.42061   0.42574   0.43405
 Alpha virt. eigenvalues --    0.43419   0.43967   0.44403   0.44759   0.45422
 Alpha virt. eigenvalues --    0.45808   0.46021   0.46284   0.46752   0.47338
 Alpha virt. eigenvalues --    0.47605   0.48172   0.48400   0.48910   0.49421
 Alpha virt. eigenvalues --    0.49549   0.49846   0.50162   0.50533   0.51027
 Alpha virt. eigenvalues --    0.51413   0.52090   0.52332   0.52714   0.53110
 Alpha virt. eigenvalues --    0.53391   0.54053   0.54666   0.54803   0.55575
 Alpha virt. eigenvalues --    0.55790   0.56051   0.56380   0.56793   0.57230
 Alpha virt. eigenvalues --    0.57374   0.57745   0.57874   0.57931   0.58671
 Alpha virt. eigenvalues --    0.58923   0.59453   0.59992   0.60238   0.60305
 Alpha virt. eigenvalues --    0.60605   0.61096   0.61449   0.62165   0.62353
 Alpha virt. eigenvalues --    0.62594   0.62763   0.62881   0.63623   0.63775
 Alpha virt. eigenvalues --    0.63883   0.64923   0.65207   0.65312   0.65588
 Alpha virt. eigenvalues --    0.66250   0.66725   0.66960   0.67474   0.68290
 Alpha virt. eigenvalues --    0.68854   0.69258   0.69579   0.70149   0.70379
 Alpha virt. eigenvalues --    0.71362   0.72029   0.73017   0.73636   0.74887
 Alpha virt. eigenvalues --    0.75627   0.76156   0.77414   0.77817   0.78312
 Alpha virt. eigenvalues --    0.79068   0.79613   0.81588   0.81917   0.82603
 Alpha virt. eigenvalues --    0.83294   0.83739   0.84559   0.84731   0.84944
 Alpha virt. eigenvalues --    0.85748   0.86510   0.86896   0.87027   0.87692
 Alpha virt. eigenvalues --    0.88343   0.89141   0.89335   0.90088   0.91106
 Alpha virt. eigenvalues --    0.91644   0.92029   0.93024   0.93142   0.93464
 Alpha virt. eigenvalues --    0.94080   0.94717   0.95409   0.95623   0.95947
 Alpha virt. eigenvalues --    0.96551   0.96787   0.98266   0.98624   0.98857
 Alpha virt. eigenvalues --    0.99331   1.00337   1.00679   1.01152   1.01865
 Alpha virt. eigenvalues --    1.02689   1.04203   1.04434   1.05089   1.06456
 Alpha virt. eigenvalues --    1.06949   1.07487   1.07941   1.08627   1.08698
 Alpha virt. eigenvalues --    1.09249   1.10310   1.10632   1.11655   1.12307
 Alpha virt. eigenvalues --    1.12598   1.13575   1.14031   1.14417   1.14848
 Alpha virt. eigenvalues --    1.15595   1.15937   1.16291   1.16909   1.17285
 Alpha virt. eigenvalues --    1.17431   1.19344   1.20130   1.20390   1.20809
 Alpha virt. eigenvalues --    1.20904   1.21257   1.22160   1.22821   1.23351
 Alpha virt. eigenvalues --    1.24477   1.25236   1.25803   1.26016   1.26473
 Alpha virt. eigenvalues --    1.27292   1.27966   1.28992   1.29262   1.30903
 Alpha virt. eigenvalues --    1.31825   1.32306   1.32676   1.33660   1.34085
 Alpha virt. eigenvalues --    1.34473   1.35031   1.36105   1.36268   1.36892
 Alpha virt. eigenvalues --    1.37604   1.38685   1.39615   1.40551   1.41211
 Alpha virt. eigenvalues --    1.42297   1.42465   1.42973   1.43578   1.44111
 Alpha virt. eigenvalues --    1.44719   1.45581   1.46088   1.46979   1.47823
 Alpha virt. eigenvalues --    1.48522   1.48899   1.49487   1.49733   1.50300
 Alpha virt. eigenvalues --    1.51034   1.51481   1.51680   1.52716   1.53237
 Alpha virt. eigenvalues --    1.54087   1.54481   1.54779   1.55299   1.55894
 Alpha virt. eigenvalues --    1.56661   1.57715   1.58211   1.58618   1.59386
 Alpha virt. eigenvalues --    1.59818   1.60254   1.60936   1.61132   1.61717
 Alpha virt. eigenvalues --    1.62072   1.62678   1.63081   1.63456   1.64015
 Alpha virt. eigenvalues --    1.65075   1.65307   1.65610   1.65830   1.66400
 Alpha virt. eigenvalues --    1.66841   1.67269   1.67817   1.68580   1.68900
 Alpha virt. eigenvalues --    1.69985   1.70305   1.70597   1.70720   1.71991
 Alpha virt. eigenvalues --    1.72381   1.72831   1.73644   1.73962   1.74432
 Alpha virt. eigenvalues --    1.74919   1.75520   1.75876   1.75927   1.76448
 Alpha virt. eigenvalues --    1.77129   1.77596   1.78126   1.78668   1.79235
 Alpha virt. eigenvalues --    1.79536   1.79915   1.80672   1.81420   1.82215
 Alpha virt. eigenvalues --    1.82594   1.83540   1.84419   1.84620   1.85372
 Alpha virt. eigenvalues --    1.86787   1.86872   1.87915   1.88501   1.88999
 Alpha virt. eigenvalues --    1.89549   1.90370   1.90589   1.91917   1.92273
 Alpha virt. eigenvalues --    1.92887   1.93418   1.94518   1.94863   1.96382
 Alpha virt. eigenvalues --    1.96622   1.97292   1.98101   1.99331   2.00189
 Alpha virt. eigenvalues --    2.01077   2.01218   2.01776   2.02365   2.02742
 Alpha virt. eigenvalues --    2.04033   2.04253   2.04584   2.04870   2.06134
 Alpha virt. eigenvalues --    2.06492   2.07583   2.07948   2.08846   2.09510
 Alpha virt. eigenvalues --    2.10293   2.10570   2.11296   2.12446   2.12720
 Alpha virt. eigenvalues --    2.12999   2.13540   2.14140   2.14889   2.15457
 Alpha virt. eigenvalues --    2.16330   2.17489   2.17672   2.18119   2.20792
 Alpha virt. eigenvalues --    2.23057   2.23523   2.23695   2.24932   2.26493
 Alpha virt. eigenvalues --    2.26928   2.28339   2.29521   2.31058   2.31389
 Alpha virt. eigenvalues --    2.32154   2.33472   2.34852   2.36509   2.37292
 Alpha virt. eigenvalues --    2.37931   2.38969   2.39841   2.40276   2.41677
 Alpha virt. eigenvalues --    2.43084   2.44171   2.45217   2.46716   2.48009
 Alpha virt. eigenvalues --    2.48305   2.48526   2.51801   2.52375   2.53015
 Alpha virt. eigenvalues --    2.53371   2.54516   2.54925   2.55628   2.56381
 Alpha virt. eigenvalues --    2.57157   2.57580   2.58265   2.58381   2.59476
 Alpha virt. eigenvalues --    2.59731   2.60239   2.61045   2.61972   2.62427
 Alpha virt. eigenvalues --    2.63678   2.64411   2.64682   2.67671   2.70144
 Alpha virt. eigenvalues --    2.70385   2.70631   2.70831   2.72181   2.73200
 Alpha virt. eigenvalues --    2.74646   2.75271   2.75967   2.76954   2.78077
 Alpha virt. eigenvalues --    2.79124   2.81391   2.82650   2.84036   2.85780
 Alpha virt. eigenvalues --    2.86597   2.87698   2.88492   2.89464   2.91382
 Alpha virt. eigenvalues --    2.94614   2.95545   2.96831   2.97921   2.98667
 Alpha virt. eigenvalues --    2.99465   3.04574   3.07223   3.07945   3.10790
 Alpha virt. eigenvalues --    3.22532   3.25898   3.31002   3.33157   3.35703
 Alpha virt. eigenvalues --    3.37107   3.37784   3.40911   3.41814   3.58170
          Condensed to atoms (all electrons):
 Mulliken atomic charges:
              1
     1  C   -0.005132
     2  C    0.219212
     3  C   -0.130856
     4  C    0.046363
     5  C   -0.242881
     6  C    0.106472
     7  C    0.174731
     8  C    0.076676
     9  N   -0.261276
    10  C    0.088287
    11  C    0.050591
    12  C    0.153345
    13  C   -0.115783
    14  O   -0.319806
    15  C    0.126445
    16  C   -0.096641
    17  C    0.017156
    18  C    0.039290
    19  C    0.095655
    20  N   -0.315048
    21  C    0.081653
    22  C    0.186462
    23  C   -0.155649
    24  C    0.268851
    25  C   -0.010805
    26  C    0.109046
    27  C   -0.252192
    28  C    0.050504
    29  S    0.986482
    30  S    0.994052
    31  O   -0.517922
    32  O   -0.519996
    33  O   -0.524929
    34  O   -0.411127
    35  O   -0.324688
    36  O   -0.438118
    37  H   -0.029235
    38  H   -0.024310
    39  H   -0.005787
    40  H    0.082858
    41  H    0.077123
    42  H    0.062963
    43  H    0.061466
    44  H    0.033287
    45  H    0.020984
    46  H    0.029619
    47  H    0.011090
    48  H   -0.028620
    49  H    0.033279
    50  H    0.026308
    51  H    0.048169
    52  H    0.044788
    53  H    0.078320
    54  H    0.080169
    55  H   -0.011035
    56  H    0.005000
    57  H   -0.015299
    58  H    0.190437
 Sum of Mulliken atomic charges =   0.00000
 Mulliken charges with hydrogens summed into heavy atoms:
              1
     1  C   -0.034367
     2  C    0.219212
     3  C   -0.130856
     4  C    0.022053
     5  C   -0.242881
     6  C    0.100685
     7  C    0.334711
     8  C    0.076676
     9  N   -0.261276
    10  C    0.212715
    11  C    0.104862
    12  C    0.182964
    13  C   -0.115783
    14  O   -0.319806
    15  C    0.137535
    16  C   -0.096641
    17  C   -0.011464
    18  C    0.098876
    19  C    0.188612
    20  N   -0.315048
    21  C    0.081653
    22  C    0.344951
    23  C   -0.155649
    24  C    0.268851
    25  C   -0.021840
    26  C    0.114046
    27  C   -0.252192
    28  C    0.035205
    29  S    0.986482
    30  S    0.994052
    31  O   -0.517922
    32  O   -0.519996
    33  O   -0.524929
    34  O   -0.411127
    35  O   -0.134251
    36  O   -0.438118
 Sum of Mulliken charges with hydrogens summed into heavy atoms =   0.00000
 Electronic spatial extent (au):  <R**2>=          37093.6928
 Charge=              0.0000 electrons
 Dipole moment (field-independent basis, Debye):
    X=             23.1094    Y=             16.1613    Z=             -0.5038  Tot=             28.2044
 Quadrupole moment (field-independent basis, Debye-Ang):
   XX=           -449.2559   YY=           -220.6511   ZZ=           -227.7287
   XY=            -75.2615   XZ=             23.4732   YZ=            -10.2328
 Traceless Quadrupole moment (field-independent basis, Debye-Ang):
   XX=           -150.0440   YY=             78.5608   ZZ=             71.4832
   XY=            -75.2615   XZ=             23.4732   YZ=            -10.2328
 Octapole moment (field-independent basis, Debye-Ang**2):
  XXX=           1680.7139  YYY=            123.8097  ZZZ=             -3.0221  XYY=            256.7552
  XXY=            842.7486  XXZ=             60.4548  XZZ=             51.2626  YZZ=              2.6001
  YYZ=             22.8603  XYZ=            -72.4086
 Hexadecapole moment (field-independent basis, Debye-Ang**3):
 XXXX=         -61430.4910 YYYY=          -6444.7509 ZZZZ=           -586.4930 XXXY=          -5012.3612
 XXXZ=           1435.9821 YYYX=           -969.2045 YYYZ=           -217.3696 ZZZX=             72.1904
 ZZZY=             12.7647 XXYY=          -9026.9462 XXZZ=          -7463.3250 YYZZ=          -1183.5611
 XXYZ=           -450.1741 YYXZ=            315.0625 ZZXY=           -184.0082
 N-N= 3.955718997600D+03 E-N=-1.353393561359D+04  KE= 2.386017710037D+03
 1\1\GINC-NODE109\Scan\RB3LYP\CC-pVDZ\C25H22N2O7S2\CHS2057\21-Mar-2015\
 0\\# opt=modredundant B3LYP/cc-pVDZ Geom=PrintInputOrient\\CY3 Dihedra
 l Scan at MP2/6-31G*\\0,1\C,-6.8630990513,1.5401158808,0.3376338333\C,
 -5.5314321161,1.9556770559,0.2876433464\C,-5.1567488427,3.3072948082,0
 .1767572705\C,-6.1304701532,4.2877909222,0.0909571515\C,-7.4777301813,
 3.8881709154,0.090247874\C,-7.8354633646,2.5372208888,0.22615433\C,-3.
 647149676,3.3774656591,0.2075170054\C,-3.2502126525,1.9206774273,0.253
 5687747\N,-4.352141841,1.1761169659,0.4039757771\C,-4.3726846939,-0.29
 15833176,0.5217796397\C,-2.9866672862,-0.9425205919,0.368455781\C,-2.0
 591773376,-0.1026298642,-0.513400617\C,-1.9878831777,1.3203097224,0.00
 46300066\O,-0.7980346228,-0.7227235264,-0.7282663282\C,0.3069844648,-0
 .270347756,0.0565751283\C,0.4318095346,1.2428034414,0.0387230574\C,-0.
 7815775992,1.9734959771,0.1181786969\C,1.5510955075,-0.9321736913,-0.5
 335974574\C,2.8299525416,-0.3877158993,0.1008856548\N,2.8377429318,1.0
 733553449,0.0526370066\C,1.6808868826,1.8194339425,0.0412592217\C,2.06
 18034542,3.2885308426,0.0455630501\C,3.5714769115,3.2398580182,0.11418
 14527\C,3.9724554707,1.8880409534,0.1210378696\C,5.3137597826,1.510452
 1643,0.2017015513\C,6.2717191139,2.529225839,0.26142719\C,5.8708672758
 ,3.8660758551,0.235281935\C,4.5190675492,4.24604354,0.1740676415\S,-8.
 7837821095,5.1680154546,-0.132770797\S,7.1199347415,5.1443201619,0.333
 0251559\O,-8.8843480267,5.2195705441,-1.6286463212\O,-9.9674041309,4.5
 784327527,0.5710924193\O,-8.1730322318,6.3800732586,0.5052112208\O,8.3
 749939416,4.5489254825,0.8204279426\O,7.28669474,5.4679498183,-1.29368
 3017\O,6.5469566419,6.3637333382,0.9434777561\H,-7.142215194,0.4918051
 519,0.4595746436\H,-5.9056214999,5.3544105418,0.0278612038\H,-8.899744
 4838,2.2974848892,0.2594224491\H,-3.2748073317,3.9153416467,1.09758695
 8\H,-3.2080825565,3.8715841579,-0.6734615085\H,-5.0612461819,-0.651414
 259,-0.2589800288\H,-4.8298086137,-0.5424976974,1.4910549861\H,-3.1081
 95732,-1.948208165,-0.0590800792\H,-2.5150087188,-1.0619704794,1.35762
 11744\H,-2.5047225328,-0.0466898117,-1.5246407849\H,0.1703090271,-0.60
 13870558,1.1076176951\H,-0.7614747548,3.0446334861,0.3399391134\H,1.55
 42091658,-0.7356538881,-1.6175682841\H,1.5062242724,-2.0214537522,-0.3
 926388327\H,3.7097971604,-0.7591298957,-0.4437866803\H,2.928234357,-0.
 7155533799,1.1522452057\H,1.6158870893,3.8155254817,0.9055430512\H,1.6
 998875933,3.7956041131,-0.8638215988\H,5.6195660268,0.4643520706,0.230
 7651984\H,7.3328862349,2.2921504254,0.3399520938\H,4.2458090427,5.3020
 272715,0.188082337\H,7.4079553675,6.435556358,-1.3499987864\\Version=E
 M64L-G09RevB.01\State=1-A\HF=-2398.2671261,-2398.2656332,-2398.2616104
 \RMSD=9.072e-09,4.664e-09,8.733e-09\PG=C01 [X(C25H22N2O7S2)]\\@


 NEVER LISTEN TO CRITICISM
 OR YOU'LL BE DOIN' EVERYBODY ELSE'S THING BUT BUT YOUR OWN.

                                               -- ANDY CAPP
 Job cpu time:  0 days 16 hours 56 minutes 31.7 seconds.
 File lengths (MBytes):  RWF=    303 Int=      0 D2E=      0 Chk=     28 Scr=      2
 Normal termination of Gaussian 09 at Sat Mar 21 00:51:31 2015.
