    -----------------------------------------------------------------------
          Psi4: An Open-Source Ab Initio Electronic Structure Package
                              Psi4 1.0.0 Driver

                          Git: Rev {master} 6a9a71b 

    J. M. Turney, A. C. Simmonett, R. M. Parrish, E. G. Hohenstein,
    F. A. Evangelista, J. T. Fermann, B. J. Mintz, L. A. Burns, J. J. Wilke,
    M. L. Abrams, N. J. Russ, M. L. Leininger, C. L. Janssen, E. T. Seidl,
    W. D. Allen, H. F. Schaefer, R. A. King, E. F. Valeev, C. D. Sherrill,
    and T. D. Crawford, WIREs Comput. Mol. Sci. 2, 556-565 (2012)
    (doi: 10.1002/wcms.93)

                         Additional Contributions by
    A. E. DePrince, U. Bozkaya, A. Yu. Sokolov, D. G. A. Smith, R. Di Remigio,
    R. M. Richard, J. F. Gonthier, H. R. McAlexander, M. Saitow, and
    B. P. Pritchard
    -----------------------------------------------------------------------


    Psi4 started on: Thu Feb 16 16:30:02 2017

    Process ID:   1755
    PSI4DATADIR: /Users/sternc1/anaconda/share/psi4
    Memory level set to 256.000 MB

  ==> Input File <==

--------------------------------------------------------------------------

memory 1000 mb

molecule butane {
  symmetry C1
  0 1 
  H      1.604   0.760   -8.260
  H      1.745   2.388   -8.880
  H      2.043   1.024   -9.930
  C      2.142   1.395   -8.932
  H      4.169   2.051   -9.210
  H      3.731   1.788   -7.539
  C      3.631   1.416   -8.537
  H      3.492   -0.656   -9.084
  H      5.109   -0.004   -9.180
  C      4.203   -0.012   -8.612
  H      4.892   -1.516   -7.242
  H      3.589   -0.533   -6.621
  H      5.206   0.120   -6.717
  C      4.495   -0.524   -7.190
  units Angstrom
}

dih_string = "4 7 10 14 250"
set optking fixed_dihedral = $dih_string

optimize('MP2/6-31G(d)')
--------------------------------------------------------------------------

  Memory set to 1000.000 MiB by Python script.
gradient() will perform analytic gradient computation.
    SCF Algorithm Type (re)set to DF.

*** tstart() called on lski1497
*** at Thu Feb 16 16:30:04 2017


         ---------------------------------------------------------
                                   SCF
            by Justin Turney, Rob Parrish, and Andy Simmonett
                              RHF Reference
                        1 Threads,   1000 MiB Core
         ---------------------------------------------------------

  ==> Geometry <==

    Molecular point group: c1
    Full point group: C1

    Geometry (in Angstrom), charge = 0, multiplicity = 1:

       Center              X                  Y                   Z               Mass       
    ------------   -----------------  -----------------  -----------------  -----------------
           H         -2.003381652928     0.195857190205     0.048821942145     1.007825032070
           H         -1.862381652928     1.823857190205    -0.571178057855     1.007825032070
           H         -1.564381652928     0.459857190205    -1.621178057855     1.007825032070
           C         -1.465381652928     0.830857190205    -0.623178057855    12.000000000000
           H          0.561618347072     1.486857190205    -0.901178057855     1.007825032070
           H          0.123618347072     1.223857190205     0.769821942145     1.007825032070
           C          0.023618347072     0.851857190205    -0.228178057855    12.000000000000
           H         -0.115381652928    -1.220142809795    -0.775178057855     1.007825032070
           H          1.501618347072    -0.568142809795    -0.871178057855     1.007825032070
           C          0.595618347072    -0.576142809795    -0.303178057855    12.000000000000
           H          1.284618347072    -2.080142809795     1.066821942145     1.007825032070
           H         -0.018381652928    -1.097142809795     1.687821942145     1.007825032070
           H          1.598618347072    -0.444142809795     1.591821942145     1.007825032070
           C          0.887618347072    -1.088142809795     1.118821942145    12.000000000000

  Running in c1 symmetry.

  Rotational constants: A =      0.55090  B =      0.13658  C =      0.13335 [cm^-1]
  Rotational constants: A =  16515.49145  B =   4094.47632  C =   3997.74572 [MHz]
  Nuclear repulsion =  132.841119091007272

  Charge       = 0
  Multiplicity = 1
  Electrons    = 34
  Nalpha       = 17
  Nbeta        = 17

  ==> Algorithm <==

  SCF Algorithm Type is DF.
  DIIS enabled.
  MOM disabled.
  Fractional occupation disabled.
  Guess Type is SAD.
  Energy threshold   = 1.00e-10
  Density threshold  = 1.00e-10
  Integral threshold = 0.00e+00

  ==> Primary Basis <==

  Basis Set: 6-31G(D)
    Number of shells: 44
    Number of basis function: 80
    Number of Cartesian functions: 80
    Spherical Harmonics?: false
    Max angular momentum: 2

  ==> Pre-Iterations <==

   -------------------------------------------------------
    Irrep   Nso     Nmo     Nalpha   Nbeta   Ndocc  Nsocc
   -------------------------------------------------------
     A         80      80       0       0       0       0
   -------------------------------------------------------
    Total      80      80      17      17      17       0
   -------------------------------------------------------

  ==> Integral Setup <==

  ==> DFJK: Density-Fitted J/K Matrices <==

    J tasked:                  Yes
    K tasked:                  Yes
    wK tasked:                  No
    OpenMP threads:              1
    Integrals threads:           1
    Memory (MB):               715
    Algorithm:                Core
    Integral Cache:           NONE
    Schwarz Cutoff:          1E-12
    Fitting Condition:       1E-12

   => Auxiliary Basis Set <=

  Basis Set: 
    Number of shells: 186
    Number of basis function: 574
    Number of Cartesian functions: 574
    Spherical Harmonics?: false
    Max angular momentum: 3

  Minimum eigenvalue in the overlap matrix is 4.9576538707E-03.
  Using Symmetric Orthogonalization.
  SCF Guess: Superposition of Atomic Densities via on-the-fly atomic UHF.

  ==> Iterations <==

                           Total Energy        Delta E     RMS |[F,P]|

   @DF-RHF iter   0:  -158.94526964358522   -1.58945e+02   4.72418e-02 
   @DF-RHF iter   1:  -157.19753959855825    1.74773e+00   4.01340e-03 
   @DF-RHF iter   2:  -157.27944398976064   -8.19044e-02   1.12854e-03 DIIS
   @DF-RHF iter   3:  -157.28766005427826   -8.21606e-03   3.17325e-04 DIIS
   @DF-RHF iter   4:  -157.28815961772210   -4.99563e-04   8.55188e-05 DIIS
   @DF-RHF iter   5:  -157.28820379661227   -4.41789e-05   1.39042e-05 DIIS
   @DF-RHF iter   6:  -157.28820534855004   -1.55194e-06   2.29242e-06 DIIS
   @DF-RHF iter   7:  -157.28820538201802   -3.34680e-08   7.16402e-07 DIIS
   @DF-RHF iter   8:  -157.28820538491982   -2.90180e-09   1.67601e-07 DIIS
   @DF-RHF iter   9:  -157.28820538512809   -2.08274e-10   4.29486e-08 DIIS
   @DF-RHF iter  10:  -157.28820538514231   -1.42109e-11   7.89206e-09 DIIS
   @DF-RHF iter  11:  -157.28820538514293   -6.25278e-13   2.25508e-09 DIIS
   @DF-RHF iter  12:  -157.28820538514259    3.41061e-13   5.21501e-10 DIIS
   @DF-RHF iter  13:  -157.28820538514299   -3.97904e-13   9.70984e-11 DIIS

  ==> Post-Iterations <==

    Orbital Energies (a.u.)
    -----------------------

    Doubly Occupied:                                                      

       1A    -11.206217     2A    -11.205589     3A    -11.201157  
       4A    -11.200963     5A     -1.071816     6A     -0.979436  
       7A     -0.866254     8A     -0.792154     9A     -0.635958  
      10A     -0.610457    11A     -0.583050    12A     -0.550843  
      13A     -0.517718    14A     -0.509415    15A     -0.472180  
      16A     -0.460997    17A     -0.443302  

    Virtual:                                                              

      18A      0.234324    19A      0.274897    20A      0.287551  
      21A      0.296418    22A      0.317163    23A      0.326267  
      24A      0.339255    25A      0.350318    26A      0.351386  
      27A      0.366141    28A      0.410983    29A      0.449779  
      30A      0.453681    31A      0.714255    32A      0.728392  
      33A      0.731698    34A      0.783210    35A      0.790583  
      36A      0.813881    37A      0.841748    38A      0.935993  
      39A      0.941744    40A      0.999310    41A      1.056077  
      42A      1.108418    43A      1.174336    44A      1.177067  
      45A      1.195314    46A      1.209721    47A      1.209907  
      48A      1.228195    49A      1.246230    50A      1.258622  
      51A      1.264404    52A      1.285303    53A      1.285946  
      54A      1.448332    55A      1.688179    56A      1.736265  
      57A      1.802524    58A      1.902625    59A      2.048698  
      60A      2.064594    61A      2.190930    62A      2.250978  
      63A      2.267628    64A      2.308740    65A      2.384682  
      66A      2.464766    67A      2.504672    68A      2.637539  
      69A      2.653255    70A      2.672263    71A      2.733168  
      72A      2.767214    73A      2.792268    74A      2.897480  
      75A      3.003238    76A      3.085994    77A      4.574858  
      78A      4.665814    79A      4.834041    80A      4.966922  

    Final Occupation by Irrep:
              A 
    DOCC [    17 ]

  Energy converged.

  @DF-RHF Final Energy:  -157.28820538514299

   => Energetics <=

    Nuclear Repulsion Energy =            132.8411190910072719
    One-Electron Energy =                -473.6436366933087356
    Two-Electron Energy =                 183.5143122171585901
    DFT Exchange-Correlation Energy =       0.0000000000000000
    Empirical Dispersion Energy =           0.0000000000000000
    PCM Polarization Energy =               0.0000000000000000
    EFP Energy =                            0.0000000000000000
    Total Energy =                       -157.2882053851428736


  Saving occupied orbitals to File 180.

*** tstop() called on lski1497 at Thu Feb 16 16:30:11 2017
Module time:
	user time   =       5.47 seconds =       0.09 minutes
	system time =       0.18 seconds =       0.00 minutes
	total time  =          7 seconds =       0.12 minutes
Total time:
	user time   =       5.47 seconds =       0.09 minutes
	system time =       0.18 seconds =       0.00 minutes
	total time  =          7 seconds =       0.12 minutes


Properties will be evaluated at   0.000000,   0.000000,   0.000000 Bohr

Properties computed using the SCF density matrix

  Nuclear Dipole Moment: (a.u.)
     X:    -0.4629      Y:    -0.2057      Z:     0.3986

  Electronic Dipole Moment: (a.u.)
     X:     0.4897      Y:     0.2169      Z:    -0.4218

  Dipole Moment: (a.u.)
     X:     0.0267      Y:     0.0112      Z:    -0.0232     Total:     0.0371

  Dipole Moment: (Debye)
     X:     0.0680      Y:     0.0284      Z:    -0.0589     Total:     0.0943


  //>>>>>>>>>>>>>>>>>>>>>>>>>>>>>>>>>>>//
  //               DFMP2               //
  //<<<<<<<<<<<<<<<<<<<<<<<<<<<<<<<<<<<//


*** tstart() called on lski1497
*** at Thu Feb 16 16:30:11 2017


*** tstop() called on lski1497 at Thu Feb 16 16:30:12 2017
Module time:
	user time   =       0.60 seconds =       0.01 minutes
	system time =       0.01 seconds =       0.00 minutes
	total time  =          1 seconds =       0.02 minutes
Total time:
	user time   =       6.09 seconds =       0.10 minutes
	system time =       0.19 seconds =       0.00 minutes
	total time  =          8 seconds =       0.13 minutes
	 --------------------------------------------------------
	                          DF-MP2                         
	      2nd-Order Density-Fitted Moller-Plesset Theory     
	              RMP2 Wavefunction,   1 Threads             
	                                                         
	        Rob Parrish, Justin Turney, Andy Simmonett,      
	           Ed Hohenstein, and C. David Sherrill          
	 --------------------------------------------------------

   => Auxiliary Basis Set <=

  Basis Set: 
    Number of shells: 132
    Number of basis function: 364
    Number of Cartesian functions: 414
    Spherical Harmonics?: true
    Max angular momentum: 3

	 --------------------------------------------------------
	                 NBF =    80, NAUX =   364
	 --------------------------------------------------------
	   CLASS    FOCC     OCC    AOCC    AVIR     VIR    FVIR
	   PAIRS       0      17      17      63      63       0
	 --------------------------------------------------------

DGAS Warning! /src/lib/libfock/apps.cc:80 is not currently checking restricted

         ------------------------------------------------------------
                                     CPHF                           
                                  Rob Parrish                       
         ------------------------------------------------------------

  ==> Geometry <==

    Molecular point group: c1
    Full point group: C1

    Geometry (in Angstrom), charge = 0, multiplicity = 1:

       Center              X                  Y                   Z               Mass       
    ------------   -----------------  -----------------  -----------------  -----------------
           H         -2.003381652928     0.195857190205     0.048821942145     1.007825032070
           H         -1.862381652928     1.823857190205    -0.571178057855     1.007825032070
           H         -1.564381652928     0.459857190205    -1.621178057855     1.007825032070
           C         -1.465381652928     0.830857190205    -0.623178057855    12.000000000000
           H          0.561618347072     1.486857190205    -0.901178057855     1.007825032070
           H          0.123618347072     1.223857190205     0.769821942145     1.007825032070
           C          0.023618347072     0.851857190205    -0.228178057855    12.000000000000
           H         -0.115381652928    -1.220142809795    -0.775178057855     1.007825032070
           H          1.501618347072    -0.568142809795    -0.871178057855     1.007825032070
           C          0.595618347072    -0.576142809795    -0.303178057855    12.000000000000
           H          1.284618347072    -2.080142809795     1.066821942145     1.007825032070
           H         -0.018381652928    -1.097142809795     1.687821942145     1.007825032070
           H          1.598618347072    -0.444142809795     1.591821942145     1.007825032070
           C          0.887618347072    -1.088142809795     1.118821942145    12.000000000000

  Nuclear repulsion =  132.841119091007272
  Reference energy  = -157.288205385142987

  ==> Basis Set <==

  Basis Set: 6-31G(D)
    Number of shells: 44
    Number of basis function: 80
    Number of Cartesian functions: 80
    Spherical Harmonics?: false
    Max angular momentum: 2

  ==> CGRSolver (by Rob Parrish) <==

   Number of roots    =         1
   Preconditioning    =    JACOBI
   Convergence cutoff =     1E-06
   Maximum iterations =       100

  ==> CPHFRHamiltonian (by Rob Parrish) <== 

  ==> DFJK: Density-Fitted J/K Matrices <==

    J tasked:                  Yes
    K tasked:                  Yes
    wK tasked:                  No
    OpenMP threads:              1
    Integrals threads:           1
    Memory (MB):               715
    Algorithm:                Core
    Integral Cache:           NONE
    Schwarz Cutoff:          1E-12
    Fitting Condition:       1E-12

   => Auxiliary Basis Set <=

  Basis Set: 
    Number of shells: 186
    Number of basis function: 574
    Number of Cartesian functions: 574
    Spherical Harmonics?: false
    Max angular momentum: 3

  ==> CPHF Iterations <==

  => Iterations <=

             Iter  Converged  Remaining    Residual
  CGR           1          0          1   7.364E-02
  CGR           2          0          1   8.831E-03
  CGR           3          0          1   2.599E-03
  CGR           4          0          1   4.286E-04
  CGR           5          0          1   8.245E-05
  CGR           6          0          1   1.925E-05
  CGR           7          0          1   3.459E-06
  CGR           8          1          0   6.141E-07

    CGRSolver converged.

  ==> DFCorrGrad: Density-Fitted Correlated Gradients <==

    OpenMP threads:              1
    Integrals threads:           1
    Memory (MB):               715
    Schwarz Cutoff:          0E+00
    Fitting Condition:       1E-12

   => Auxiliary Basis Set <=

  Basis Set: 
    Number of shells: 186
    Number of basis function: 510
    Number of Cartesian functions: 574
    Spherical Harmonics?: true
    Max angular momentum: 3

	-----------------------------------------------------------
	 ==================> DF-MP2 Energies <==================== 
	-----------------------------------------------------------
	 Reference Energy          =    -157.2882053851429873 [Eh]
	 Singles Energy            =      -0.0000000000000000 [Eh]
	 Same-Spin Energy          =      -0.1244420157965633 [Eh]
	 Opposite-Spin Energy      =      -0.4204110098779946 [Eh]
	 Correlation Energy        =      -0.5448530256745580 [Eh]
	 Total Energy              =    -157.8330584108175572 [Eh]
	-----------------------------------------------------------
	 ================> DF-SCS-MP2 Energies <================== 
	-----------------------------------------------------------
	 SCS Same-Spin Scale       =       0.3333333333333333 [-]
	 SCS Opposite-Spin Scale   =       1.2000000000000000 [-]
	 SCS Same-Spin Energy      =      -0.0414806719321878 [Eh]
	 SCS Opposite-Spin Energy  =      -0.5044932118535935 [Eh]
	 SCS Correlation Energy    =      -0.5459738837857813 [Eh]
	 SCS Total Energy          =    -157.8341792689287786 [Eh]
	-----------------------------------------------------------


  -Total Gradient:
     Atom            X                  Y                   Z
    ------   -----------------  -----------------  -----------------
       1        0.010649621854     0.009673221458    -0.009199596790
       2        0.010742285895    -0.013639667603     0.000235046983
       3        0.003958466313     0.005385693857     0.015335199034
       4       -0.027059711559    -0.008667919029    -0.009108100567
       5       -0.007641232484    -0.013594922631     0.007895747827
       6       -0.003223718308    -0.009661925760    -0.014375947971
       7        0.020445896225     0.025228842470     0.015764476691
       8        0.008532237031     0.012148222052     0.010374413542
       9       -0.014093151438     0.004074910265     0.010725190268
      10       -0.001232191190    -0.017230462712    -0.032011201153
      11       -0.006489766459     0.016330910952    -0.004119594920
      12        0.012894859721     0.000798475933    -0.010994247466
      13       -0.010926853802    -0.008393180390    -0.009162338188
      14        0.003443258199    -0.002452198859     0.028640952711


			-----------------------------------------
			 OPTKING 2.0: for geometry optimizations 
			  - R.A. King,  Bethel University        
			-----------------------------------------

	Previous internal coordinate definitions found.
	---Fragment 1 Geometry and Gradient---
	 H          -3.7858426637        0.3701164506        0.0922600999
	 H          -3.5193912789        3.4465905950       -1.0793701025
	 H          -2.9562528913        0.8690041497       -3.0635825420
	 C          -2.7691700042        1.5700925450       -1.1776358614
	 H           1.0613048672        2.8097528882       -1.7029797263
	 H           0.2336048210        2.3127549153        1.4547526417
	 C           0.0446322077        1.6097767938       -0.4311940389
	 H          -0.2180397248       -2.3057357535       -1.4648742336
	 H           2.8376474321       -1.0736343149       -1.6462879423
	 C           1.1255555557       -1.0887521239       -0.5729234988
	 H           2.4275768612       -3.9309002278        2.0160013032
	 H          -0.0347362899       -2.0732994392        3.1895212317
	 H           3.0209508670       -0.8393082744        3.0081075230
	 C           1.6773555865       -2.0562919040        2.1142670621
	             0.0106496219        0.0096732215       -0.0091995968
	             0.0107422859       -0.0136396676        0.0002350470
	             0.0039584663        0.0053856939        0.0153351990
	            -0.0270597116       -0.0086679190       -0.0091081006
	            -0.0076412325       -0.0135949226        0.0078957478
	            -0.0032237183       -0.0096619258       -0.0143759480
	             0.0204458962        0.0252288425        0.0157644767
	             0.0085322370        0.0121482221        0.0103744135
	            -0.0140931514        0.0040749103        0.0107251903
	            -0.0012321912       -0.0172304627       -0.0320112012
	            -0.0064897665        0.0163309110       -0.0041195949
	             0.0128948597        0.0007984759       -0.0109942475
	            -0.0109268538       -0.0083931804       -0.0091623382
	             0.0034432582       -0.0024521989        0.0286409527

	Previous optimization step data not found.  Starting new optimization.

	---Fragment 1 Intrafragment Coordinates---
	 - Coordinate -           - BOHR/RAD -       - ANG/DEG -
	 R(1,4)           =         2.021436	       1.069698
	 R(2,4)           =         2.023298	       1.070683
	 R(3,4)           =         2.020723	       1.069320
	 R(4,7)           =         2.911397	       1.540645
	 R(5,7)           =         2.022623	       1.070326
	 R(6,7)           =         2.021555	       1.069761
	 R(7,10)          =         2.910419	       1.540128
	 R(8,10)          =         2.020365	       1.069131
	 R(9,10)          =         2.020792	       1.069357
	 R(10,14)         =         2.908885	       1.539315
	 R(11,14)         =         2.021545	       1.069756
	 R(12,14)         =         2.021811	       1.069896
	 R(13,14)         =         2.021200	       1.069573
	 B(1,4,2)         =         1.910870	     109.484805
	 B(1,4,3)         =         1.911121	     109.499161
	 B(1,4,7)         =         1.910399	     109.457783
	 B(2,4,3)         =         1.910042	     109.437340
	 B(2,4,7)         =         1.910564	     109.467262
	 B(3,4,7)         =         1.910803	     109.480971
	 B(4,7,5)         =         1.909937	     109.431343
	 B(4,7,6)         =         1.911630	     109.528316
	 B(4,7,10)        =         1.911154	     109.501062
	 B(5,7,6)         =         1.910605	     109.469614
	 B(5,7,10)        =         1.910047	     109.437654
	 B(6,7,10)        =         1.910425	     109.459295
	 B(7,10,8)        =         1.910294	     109.451808
	 B(7,10,9)        =         1.910908	     109.486941
	 B(7,10,14)       =         1.911198	     109.503589
	 B(8,10,9)        =         1.910752	     109.478016
	 B(8,10,14)       =         1.910950	     109.489368
	 B(9,10,14)       =         1.909697	     109.417605
	 B(10,14,11)      =         1.911269	     109.507647
	 B(10,14,12)      =         1.910765	     109.478775
	 B(10,14,13)      =         1.911720	     109.533491
	 B(11,14,12)      =         1.909552	     109.409259
	 B(11,14,13)      =         1.910432	     109.459705
	 B(12,14,13)      =         1.910060	     109.438352
	 D(1,4,7,5)       =         3.140997	     179.965873
	 D(1,4,7,6)       =        -1.047644	     -60.025575
	 D(1,4,7,10)      =         1.047427	      60.013132
	 D(2,4,7,5)       =        -1.047689	     -60.028143
	 D(2,4,7,6)       =         1.046856	      59.980409
	 D(2,4,7,10)      =        -3.141259	    -179.980883
	 D(3,4,7,5)       =         1.046044	      59.933911
	 D(3,4,7,6)       =         3.140588	     179.942463
	 D(3,4,7,10)      =        -1.047526	     -60.018830
	 D(4,7,10,8)      =         0.174706	      10.009940
	 D(4,7,10,9)      =         2.269207	     130.015999
	 D(4,7,10,14)     =        -1.920215	    -110.020218
	 D(5,7,10,8)      =        -1.918796	    -109.938935
	 D(5,7,10,9)      =         0.175704	      10.067123
	 D(5,7,10,14)     =         2.269467	     130.030906
	 D(6,7,10,8)      =         2.270514	     130.090866
	 D(6,7,10,9)      =        -1.918171	    -109.903076
	 D(6,7,10,14)     =         0.175592	      10.060708
	 D(7,10,14,11)    =         3.141260	     179.980967
	 D(7,10,14,12)    =         1.047720	      60.029926
	 D(7,10,14,13)    =        -1.046719	     -59.972597
	 D(8,10,14,11)    =         1.046740	      59.973791
	 D(8,10,14,12)    =        -1.046800	     -59.977249
	 D(8,10,14,13)    =        -3.141240	    -179.979773
	 D(9,10,14,11)    =        -1.047421	     -60.012810
	 D(9,10,14,12)    =        -3.140962	    -179.963850
	 D(9,10,14,13)    =         1.047784	      60.033626

	Current energy   :      -157.8330584108

	Generating empirical Hessian (Schlegel '84) for each fragment.
	Adding user-defined constraint: Fragment 1; Coordinate 49:
		Value =    -1.920215; Fixed value    =    -1.919860
		Force =     0.000178; Force constant =     0.500000
	Removing off-diagonal coupling between coordinate 49 and others.
	Taking RFO optimization step.
	Going to follow RFO solution 1.
	Using RFO vector 1.

	Determining step-restricting scale parameter for RS-RFO.
	Maximum step size allowed    0.10000

	 Iter      |step|        alpha        rfo_root  
	------------------------------------------------
	    0     0.23766       1.00000           1
	    1     0.17831       5.59632           1
	    2     0.13573      17.03928           1
	    3     0.11138      33.31309           1
	    4     0.10171      44.13712           1
	    5     0.10005      46.38520           1
	    6     0.10000      46.45296           1
	------------------------------------------------
	Norm of target step-size    0.10000
	Projected energy change by RFO approximation:        -0.0057951744

	Back-transformation to cartesian coordinates...
	Successfully converged to displaced geometry.

	--- Internal Coordinate Step in ANG or DEG, aJ/ANG or AJ/DEG ---
	 ---------------------------------------------------------------------------
	   Coordinate                Previous        Force       Change         New 
	   ----------                --------       ------       ------       ------
	    1 R(1,4)          =      1.069698     0.139051     0.013966     1.083663
	    2 R(2,4)          =      1.070683     0.136942     0.013781     1.084464
	    3 R(3,4)          =      1.069320     0.136330     0.013682     1.083002
	    4 R(4,7)          =      1.540645    -0.020207    -0.002354     1.538291
	    5 R(5,7)          =      1.070326     0.138996     0.013977     1.084304
	    6 R(6,7)          =      1.069761     0.140658     0.014129     1.083889
	    7 R(7,10)         =      1.540128     0.061767     0.007188     1.547316
	    8 R(8,10)         =      1.069131     0.144770     0.014524     1.083655
	    9 R(9,10)         =      1.069357     0.145056     0.014559     1.083916
	   10 R(10,14)        =      1.539315    -0.014314    -0.001664     1.537652
	   11 R(11,14)        =      1.069756     0.142959     0.014360     1.084115
	   12 R(12,14)        =      1.069896     0.138190     0.013885     1.083781
	   13 R(13,14)        =      1.069573     0.134861     0.013541     1.083114
	   14 B(1,4,2)        =    109.484805    -0.000298    -0.526056   108.958748
	   15 B(1,4,3)        =    109.499161    -0.000193    -0.360286   109.138876
	   16 B(1,4,7)        =    109.457783     0.000153     0.262544   109.720327
	   17 B(2,4,3)        =    109.437340    -0.000281    -0.487060   108.950280
	   18 B(2,4,7)        =    109.467262     0.000481     0.860583   110.327845
	   19 B(3,4,7)        =    109.480971     0.000140     0.239110   109.720081
	   20 B(4,7,5)        =    109.431343    -0.000245    -0.407101   109.024241
	   21 B(4,7,6)        =    109.528316    -0.000221    -0.343292   109.185025
	   22 B(4,7,10)       =    109.501062     0.000710     1.160593   110.661655
	   23 B(5,7,6)        =    109.469614    -0.000055    -0.278267   109.191346
	   24 B(5,7,10)       =    109.437654    -0.000041     0.040872   109.478527
	   25 B(6,7,10)       =    109.459295    -0.000149    -0.181404   109.277891
	   26 B(7,10,8)       =    109.451808    -0.000150    -0.184082   109.267726
	   27 B(7,10,9)       =    109.486941    -0.000048     0.025043   109.511984
	   28 B(7,10,14)      =    109.503589     0.000713     1.164917   110.668507
	   29 B(8,10,9)       =    109.478016    -0.000055    -0.279321   109.198695
	   30 B(8,10,14)      =    109.489368    -0.000218    -0.336612   109.152755
	   31 B(9,10,14)      =    109.417605    -0.000241    -0.398693   109.018912
	   32 B(10,14,11)     =    109.507647     0.000476     0.852384   110.360031
	   33 B(10,14,12)     =    109.478775     0.000149     0.256794   109.735569
	   34 B(10,14,13)     =    109.533491     0.000135     0.230322   109.763812
	   35 B(11,14,12)     =    109.409259    -0.000291    -0.511463   108.897797
	   36 B(11,14,13)     =    109.459705    -0.000282    -0.489757   108.969948
	   37 B(12,14,13)     =    109.438352    -0.000188    -0.351074   109.087278
	   38 D(1,4,7,5)      =    179.965873     0.000036     0.340128   180.306001
	   39 D(1,4,7,6)      =    -60.025575    -0.000045    -0.450398   -60.475973
	   40 D(1,4,7,10)     =     60.013132    -0.000018    -0.170728    59.842405
	   41 D(2,4,7,5)      =    -60.028143     0.000041     0.390031   -59.638111
	   42 D(2,4,7,6)      =     59.980409    -0.000040    -0.400495    59.579914
	   43 D(2,4,7,10)     =   -179.980883    -0.000013    -0.120825  -180.101708
	   44 D(3,4,7,5)      =     59.933911     0.000049     0.473227    60.407138
	   45 D(3,4,7,6)      =    179.942463    -0.000032    -0.317299   179.625164
	   46 D(3,4,7,10)     =    -60.018830    -0.000004    -0.037629   -60.056458
	   47 D(4,7,10,8)     =     10.009940     0.000030     0.293888    10.303829
	   48 D(4,7,10,9)     =    130.015999    -0.000013    -0.144500   129.871499
	   49 D(4,7,10,14)    =   -110.020218     0.000012     0.103307  -109.916911
	   50 D(5,7,10,8)     =   -109.938935     0.000005     0.050371  -109.888564
	   51 D(5,7,10,9)     =     10.067123    -0.000038    -0.388017     9.679106
	   52 D(5,7,10,14)    =    130.030906    -0.000013    -0.140210   129.890696
	   53 D(6,7,10,8)     =    130.090866     0.000047     0.475879   130.566746
	   54 D(6,7,10,9)     =   -109.903076     0.000004     0.037491  -109.865585
	   55 D(6,7,10,14)    =     10.060708     0.000029     0.285298    10.346006
	   56 D(7,10,14,11)   =    179.980967    -0.000011    -0.109520   179.871446
	   57 D(7,10,14,12)   =     60.029926    -0.000017    -0.168830    59.861097
	   58 D(7,10,14,13)   =    -59.972597    -0.000004    -0.038259   -60.010856
	   59 D(8,10,14,11)   =     59.973791    -0.000039    -0.391762    59.582028
	   60 D(8,10,14,12)   =    -59.977249    -0.000045    -0.451072   -60.428321
	   61 D(8,10,14,13)   =   -179.979773    -0.000032    -0.320501  -180.300274
	   62 D(9,10,14,11)   =    -60.012810     0.000041     0.390076   -59.622734
	   63 D(9,10,14,12)   =   -179.963850     0.000035     0.330766  -179.633084
	   64 D(9,10,14,13)   =     60.033626     0.000048     0.461337    60.494963
	 ---------------------------------------------------------------------------
	 Forces used to impose fixed constraints are not included.
	  Forces zeroed: 49 

  ==> Convergence Check <==

  Measures of convergence in internal coordinates in au.
  Criteria marked as inactive (o), active & met (*), and active & unmet ( ).
  --------------------------------------------------------------------------------------------- ~
   Step     Total Energy     Delta E     MAX Force     RMS Force      MAX Disp      RMS Disp    ~
  --------------------------------------------------------------------------------------------- ~
    Convergence Criteria    1.00e-06 *    3.00e-04 *             o    1.20e-03 *             o  ~
  --------------------------------------------------------------------------------------------- ~
      1    -157.83305841   -1.58e+02      1.76e-02      7.31e-03 o    2.75e-02      1.25e-02 o  ~
  ---------------------------------------------------------------------------------------------

	Writing optimization data to binary file.
	Structure for next step:
	Cartesian Geometry (in Angstrom)
	    H    -2.0303179909   0.1947165887   0.0390949135
	    H    -1.8908285786   1.8295562360  -0.6103970188
	    H    -1.5774704508   0.4390716718  -1.6496906507
	    C    -1.4764528652   0.8279442749  -0.6439731857
	    H     0.5505501788   1.4906304984  -0.9295841660
	    H     0.1000665831   1.2467312189   0.7618010117
	    C     0.0084353394   0.8502140145  -0.2427855183
	    H    -0.0992175580  -1.2460431767  -0.7616410954
	    H     1.5283001357  -0.5649597938  -0.8565524277
	    C     0.6070024294  -0.5759938794  -0.2856217789
	    H     1.3210557679  -2.0828906232   1.0996660287
	    H    -0.0113499915  -1.1046308086   1.7150301881
	    H     1.6137506320  -0.4225579241   1.6187807479
	    C     0.9041332277  -1.0827876346   1.1353801416
			--------------------------
			 OPTKING Finished Execution 
			--------------------------

    Structure for next step:
    Molecular point group: c1
    Full point group: C1

    Geometry (in Angstrom), charge = 0, multiplicity = 1:

    H           -2.030629283067     0.194537162763     0.039338707503
    H           -1.891139870759     1.829376810139    -0.610153224767
    H           -1.577781742930     0.438892245885    -1.649446856661
    C           -1.476764157301     0.827764849008    -0.643729391682
    H            0.550238886657     1.490451072554    -0.929340371962
    H            0.099755290923     1.246551793050     0.762044805690
    C            0.008124047245     0.850034588621    -0.242541724332
    H           -0.099528850184    -1.246222602599    -0.761397301436
    H            1.527988843568    -0.565139219641    -0.856308633653
    C            0.606691137244    -0.576173305303    -0.285377984930
    H            1.320744475790    -2.083070049071     1.099909822716
    H           -0.011661283621    -1.104810234520     1.715273982078
    H            1.613439339818    -0.422737349957     1.619024541929
    C            0.903821935550    -1.082967060519     1.135623935652

gradient() will perform analytic gradient computation.
    SCF Algorithm Type (re)set to DF.

*** tstart() called on lski1497
*** at Thu Feb 16 16:30:35 2017


         ---------------------------------------------------------
                                   SCF
            by Justin Turney, Rob Parrish, and Andy Simmonett
                              RHF Reference
                        1 Threads,   1000 MiB Core
         ---------------------------------------------------------

  ==> Geometry <==

    Molecular point group: c1
    Full point group: C1

    Geometry (in Angstrom), charge = 0, multiplicity = 1:

       Center              X                  Y                   Z               Mass       
    ------------   -----------------  -----------------  -----------------  -----------------
           H         -2.030629283067     0.194537162763     0.039338707503     1.007825032070
           H         -1.891139870759     1.829376810139    -0.610153224767     1.007825032070
           H         -1.577781742930     0.438892245885    -1.649446856661     1.007825032070
           C         -1.476764157301     0.827764849008    -0.643729391682    12.000000000000
           H          0.550238886657     1.490451072554    -0.929340371962     1.007825032070
           H          0.099755290923     1.246551793050     0.762044805690     1.007825032070
           C          0.008124047245     0.850034588621    -0.242541724332    12.000000000000
           H         -0.099528850184    -1.246222602599    -0.761397301436     1.007825032070
           H          1.527988843568    -0.565139219641    -0.856308633653     1.007825032070
           C          0.606691137244    -0.576173305303    -0.285377984930    12.000000000000
           H          1.320744475790    -2.083070049071     1.099909822716     1.007825032070
           H         -0.011661283621    -1.104810234520     1.715273982078     1.007825032070
           H          1.613439339818    -0.422737349957     1.619024541929     1.007825032070
           C          0.903821935550    -1.082967060519     1.135623935652    12.000000000000

  Running in c1 symmetry.

  Rotational constants: A =      0.55201  B =      0.13400  C =      0.13081 [cm^-1]
  Rotational constants: A =  16548.85451  B =   4017.33320  C =   3921.52068 [MHz]
  Nuclear repulsion =  131.862011026774695

  Charge       = 0
  Multiplicity = 1
  Electrons    = 34
  Nalpha       = 17
  Nbeta        = 17

  ==> Algorithm <==

  SCF Algorithm Type is DF.
  DIIS enabled.
  MOM disabled.
  Fractional occupation disabled.
  Guess Type is READ.
  Energy threshold   = 1.00e-10
  Density threshold  = 1.00e-10
  Integral threshold = 0.00e+00

  ==> Primary Basis <==

  Basis Set: 6-31G(D)
    Number of shells: 44
    Number of basis function: 80
    Number of Cartesian functions: 80
    Spherical Harmonics?: false
    Max angular momentum: 2

  ==> Pre-Iterations <==

   -------------------------------------------------------
    Irrep   Nso     Nmo     Nalpha   Nbeta   Ndocc  Nsocc
   -------------------------------------------------------
     A         80      80       0       0       0       0
   -------------------------------------------------------
    Total      80      80      17      17      17       0
   -------------------------------------------------------

  ==> Integral Setup <==

  ==> DFJK: Density-Fitted J/K Matrices <==

    J tasked:                  Yes
    K tasked:                  Yes
    wK tasked:                  No
    OpenMP threads:              1
    Integrals threads:           1
    Memory (MB):               715
    Algorithm:                Core
    Integral Cache:           NONE
    Schwarz Cutoff:          1E-12
    Fitting Condition:       1E-12

   => Auxiliary Basis Set <=

  Basis Set: 
    Number of shells: 186
    Number of basis function: 574
    Number of Cartesian functions: 574
    Spherical Harmonics?: false
    Max angular momentum: 3

  Minimum eigenvalue in the overlap matrix is 5.1006594271E-03.
  Using Symmetric Orthogonalization.
  SCF Guess was Projection but file not found.
  Switching over to SAD guess.

  SCF Guess: Superposition of Atomic Densities via on-the-fly atomic UHF.

  ==> Iterations <==

                           Total Energy        Delta E     RMS |[F,P]|

   @DF-RHF iter   0:  -158.83253293470293   -1.58833e+02   4.62471e-02 
   @DF-RHF iter   1:  -157.20028279136218    1.63225e+00   3.96740e-03 
   @DF-RHF iter   2:  -157.28225874153915   -8.19760e-02   1.12898e-03 DIIS
   @DF-RHF iter   3:  -157.29069247849836   -8.43374e-03   2.99654e-04 DIIS
   @DF-RHF iter   4:  -157.29115258177191   -4.60103e-04   8.53896e-05 DIIS
   @DF-RHF iter   5:  -157.29119589952612   -4.33178e-05   1.39166e-05 DIIS
   @DF-RHF iter   6:  -157.29119743887847   -1.53935e-06   2.40737e-06 DIIS
   @DF-RHF iter   7:  -157.29119747398258   -3.51041e-08   7.53555e-07 DIIS
   @DF-RHF iter   8:  -157.29119747716524   -3.18266e-09   1.60813e-07 DIIS
   @DF-RHF iter   9:  -157.29119747736851   -2.03272e-10   4.01458e-08 DIIS
   @DF-RHF iter  10:  -157.29119747738159   -1.30740e-11   7.57830e-09 DIIS
   @DF-RHF iter  11:  -157.29119747738187   -2.84217e-13   2.22129e-09 DIIS
   @DF-RHF iter  12:  -157.29119747738210   -2.27374e-13   5.03118e-10 DIIS
   @DF-RHF iter  13:  -157.29119747738193    1.70530e-13   9.15478e-11 DIIS

  ==> Post-Iterations <==

    Orbital Energies (a.u.)
    -----------------------

    Doubly Occupied:                                                      

       1A    -11.211802     2A    -11.211242     3A    -11.206795  
       4A    -11.206710     5A     -1.068019     6A     -0.977327  
       7A     -0.862190     8A     -0.786886     9A     -0.631502  
      10A     -0.607299    11A     -0.579554    12A     -0.548317  
      13A     -0.514261    14A     -0.506640    15A     -0.468507  
      16A     -0.458618    17A     -0.446870  

    Virtual:                                                              

      18A      0.232029    19A      0.272437    20A      0.284074  
      21A      0.292751    22A      0.314707    23A      0.323217  
      24A      0.335279    25A      0.346218    26A      0.347703  
      27A      0.361260    28A      0.407698    29A      0.450005  
      30A      0.453889    31A      0.715819    32A      0.728395  
      33A      0.732175    34A      0.783274    35A      0.791232  
      36A      0.815744    37A      0.847346    38A      0.932188  
      39A      0.941718    40A      0.994939    41A      1.060342  
      42A      1.108288    43A      1.161446    44A      1.164559  
      45A      1.179840    46A      1.196305    47A      1.196459  
      48A      1.216901    49A      1.239521    50A      1.245401  
      51A      1.253574    52A      1.268963    53A      1.269949  
      54A      1.442992    55A      1.692494    56A      1.737860  
      57A      1.795458    58A      1.894701    59A      2.029164  
      60A      2.056670    61A      2.188810    62A      2.241311  
      63A      2.268085    64A      2.308099    65A      2.368115  
      66A      2.451222    67A      2.484945    68A      2.617445  
      69A      2.635515    70A      2.653871    71A      2.719700  
      72A      2.750464    73A      2.781008    74A      2.890809  
      75A      3.000557    76A      3.074730    77A      4.561341  
      78A      4.656571    79A      4.827447    80A      4.959405  

    Final Occupation by Irrep:
              A 
    DOCC [    17 ]

  Energy converged.

  @DF-RHF Final Energy:  -157.29119747738193

   => Energetics <=

    Nuclear Repulsion Energy =            131.8620110267746952
    One-Electron Energy =                -471.7213398687973722
    Two-Electron Energy =                 182.5681313646406920
    DFT Exchange-Correlation Energy =       0.0000000000000000
    Empirical Dispersion Energy =           0.0000000000000000
    PCM Polarization Energy =               0.0000000000000000
    EFP Energy =                            0.0000000000000000
    Total Energy =                       -157.2911974773820134


  Saving occupied orbitals to File 180.

*** tstop() called on lski1497 at Thu Feb 16 16:30:42 2017
Module time:
	user time   =       5.36 seconds =       0.09 minutes
	system time =       0.16 seconds =       0.00 minutes
	total time  =          7 seconds =       0.12 minutes
Total time:
	user time   =      30.27 seconds =       0.50 minutes
	system time =       0.89 seconds =       0.01 minutes
	total time  =         38 seconds =       0.63 minutes


Properties will be evaluated at   0.000000,   0.000000,   0.000000 Bohr

Properties computed using the SCF density matrix

  Nuclear Dipole Moment: (a.u.)
     X:    -0.4674      Y:    -0.2083      Z:     0.4021

  Electronic Dipole Moment: (a.u.)
     X:     0.4919      Y:     0.2189      Z:    -0.4233

  Dipole Moment: (a.u.)
     X:     0.0245      Y:     0.0107      Z:    -0.0212     Total:     0.0342

  Dipole Moment: (Debye)
     X:     0.0624      Y:     0.0271      Z:    -0.0539     Total:     0.0868


  //>>>>>>>>>>>>>>>>>>>>>>>>>>>>>>>>>>>//
  //               DFMP2               //
  //<<<<<<<<<<<<<<<<<<<<<<<<<<<<<<<<<<<//


*** tstart() called on lski1497
*** at Thu Feb 16 16:30:42 2017


*** tstop() called on lski1497 at Thu Feb 16 16:30:42 2017
Module time:
	user time   =       0.56 seconds =       0.01 minutes
	system time =       0.01 seconds =       0.00 minutes
	total time  =          0 seconds =       0.00 minutes
Total time:
	user time   =      30.85 seconds =       0.51 minutes
	system time =       0.90 seconds =       0.02 minutes
	total time  =         38 seconds =       0.63 minutes
	 --------------------------------------------------------
	                          DF-MP2                         
	      2nd-Order Density-Fitted Moller-Plesset Theory     
	              RMP2 Wavefunction,   1 Threads             
	                                                         
	        Rob Parrish, Justin Turney, Andy Simmonett,      
	           Ed Hohenstein, and C. David Sherrill          
	 --------------------------------------------------------

   => Auxiliary Basis Set <=

  Basis Set: 
    Number of shells: 132
    Number of basis function: 364
    Number of Cartesian functions: 414
    Spherical Harmonics?: true
    Max angular momentum: 3

	 --------------------------------------------------------
	                 NBF =    80, NAUX =   364
	 --------------------------------------------------------
	   CLASS    FOCC     OCC    AOCC    AVIR     VIR    FVIR
	   PAIRS       0      17      17      63      63       0
	 --------------------------------------------------------

DGAS Warning! /src/lib/libfock/apps.cc:80 is not currently checking restricted

         ------------------------------------------------------------
                                     CPHF                           
                                  Rob Parrish                       
         ------------------------------------------------------------

  ==> Geometry <==

    Molecular point group: c1
    Full point group: C1

    Geometry (in Angstrom), charge = 0, multiplicity = 1:

       Center              X                  Y                   Z               Mass       
    ------------   -----------------  -----------------  -----------------  -----------------
           H         -2.030629283067     0.194537162763     0.039338707503     1.007825032070
           H         -1.891139870759     1.829376810139    -0.610153224767     1.007825032070
           H         -1.577781742930     0.438892245885    -1.649446856661     1.007825032070
           C         -1.476764157301     0.827764849008    -0.643729391682    12.000000000000
           H          0.550238886657     1.490451072554    -0.929340371962     1.007825032070
           H          0.099755290923     1.246551793050     0.762044805690     1.007825032070
           C          0.008124047245     0.850034588621    -0.242541724332    12.000000000000
           H         -0.099528850184    -1.246222602599    -0.761397301436     1.007825032070
           H          1.527988843568    -0.565139219641    -0.856308633653     1.007825032070
           C          0.606691137244    -0.576173305303    -0.285377984930    12.000000000000
           H          1.320744475790    -2.083070049071     1.099909822716     1.007825032070
           H         -0.011661283621    -1.104810234520     1.715273982078     1.007825032070
           H          1.613439339818    -0.422737349957     1.619024541929     1.007825032070
           C          0.903821935550    -1.082967060519     1.135623935652    12.000000000000

  Nuclear repulsion =  131.862011026774695
  Reference energy  = -157.291197477381928

  ==> Basis Set <==

  Basis Set: 6-31G(D)
    Number of shells: 44
    Number of basis function: 80
    Number of Cartesian functions: 80
    Spherical Harmonics?: false
    Max angular momentum: 2

  ==> CGRSolver (by Rob Parrish) <==

   Number of roots    =         1
   Preconditioning    =    JACOBI
   Convergence cutoff =     1E-06
   Maximum iterations =       100

  ==> CPHFRHamiltonian (by Rob Parrish) <== 

  ==> DFJK: Density-Fitted J/K Matrices <==

    J tasked:                  Yes
    K tasked:                  Yes
    wK tasked:                  No
    OpenMP threads:              1
    Integrals threads:           1
    Memory (MB):               715
    Algorithm:                Core
    Integral Cache:           NONE
    Schwarz Cutoff:          1E-12
    Fitting Condition:       1E-12

   => Auxiliary Basis Set <=

  Basis Set: 
    Number of shells: 186
    Number of basis function: 574
    Number of Cartesian functions: 574
    Spherical Harmonics?: false
    Max angular momentum: 3

  ==> CPHF Iterations <==

  => Iterations <=

             Iter  Converged  Remaining    Residual
  CGR           1          0          1   7.398E-02
  CGR           2          0          1   8.930E-03
  CGR           3          0          1   2.623E-03
  CGR           4          0          1   4.298E-04
  CGR           5          0          1   8.339E-05
  CGR           6          0          1   1.932E-05
  CGR           7          0          1   3.400E-06
  CGR           8          1          0   6.137E-07

    CGRSolver converged.

  ==> DFCorrGrad: Density-Fitted Correlated Gradients <==

    OpenMP threads:              1
    Integrals threads:           1
    Memory (MB):               715
    Schwarz Cutoff:          0E+00
    Fitting Condition:       1E-12

   => Auxiliary Basis Set <=

  Basis Set: 
    Number of shells: 186
    Number of basis function: 510
    Number of Cartesian functions: 574
    Spherical Harmonics?: true
    Max angular momentum: 3

	-----------------------------------------------------------
	 ==================> DF-MP2 Energies <==================== 
	-----------------------------------------------------------
	 Reference Energy          =    -157.2911974773819281 [Eh]
	 Singles Energy            =      -0.0000000000000000 [Eh]
	 Same-Spin Energy          =      -0.1242992012321704 [Eh]
	 Opposite-Spin Energy      =      -0.4216912639145459 [Eh]
	 Correlation Energy        =      -0.5459904651467162 [Eh]
	 Total Energy              =    -157.8371879425286579 [Eh]
	-----------------------------------------------------------
	 ================> DF-SCS-MP2 Energies <================== 
	-----------------------------------------------------------
	 SCS Same-Spin Scale       =       0.3333333333333333 [-]
	 SCS Opposite-Spin Scale   =       1.2000000000000000 [-]
	 SCS Same-Spin Energy      =      -0.0414330670773901 [Eh]
	 SCS Opposite-Spin Energy  =      -0.5060295166974550 [Eh]
	 SCS Correlation Energy    =      -0.5474625837748451 [Eh]
	 SCS Total Energy          =    -157.8386600611567872 [Eh]
	-----------------------------------------------------------


  -Total Gradient:
     Atom            X                  Y                   Z
    ------   -----------------  -----------------  -----------------
       1        0.005280576075     0.003856387966    -0.002932583403
       2        0.005221607777    -0.004752910887     0.000362221842
       3        0.002706729611     0.002283938803     0.006056301463
       4       -0.015745116101    -0.005136744693    -0.005885393854
       5       -0.003277444077    -0.006949537063     0.001449863871
       6       -0.002702835520    -0.006046228623    -0.005025945026
       7        0.011904849593     0.016890671994     0.010063783384
       8        0.001690578662     0.005644852075     0.006105580013
       9       -0.004796529642     0.003386700691     0.005483023522
      10       -0.000555097329    -0.012022731979    -0.019665522769
      11       -0.002506762566     0.006241236759    -0.002781735180
      12        0.004538068412     0.000483431623    -0.005443245313
      13       -0.004240022557    -0.002908033743    -0.004652859665
      14        0.002481397663    -0.000971032923     0.016866511116


			-----------------------------------------
			 OPTKING 2.0: for geometry optimizations 
			  - R.A. King,  Bethel University        
			-----------------------------------------

	Previous internal coordinate definitions found.
	---Fragment 1 Geometry and Gradient---
	 H          -3.8373332224        0.3676219603        0.0743393836
	 H          -3.5737364347        3.4570211650       -1.1530224939
	 H          -2.9815753916        0.8293861466       -3.1170028298
	 C          -2.7906798202        1.5642488671       -1.2164722540
	 H           1.0398008034        2.8165443416       -1.7561987872
	 H           0.1885101802        2.3556414993        1.4400559837
	 C           0.0153522244        1.6063325760       -0.4583374348
	 H          -0.1880822692       -2.3550194195       -1.4388323780
	 H           2.8874804484       -1.0679583521       -1.6181888028
	 C           1.1464800966       -1.0888097521       -0.5392862359
	 H           2.4958453508       -3.9364319084        2.0785283358
	 H          -0.0220366324       -2.0877887721        3.2413980690
	 H           3.0489584843       -0.7988578176        3.0595129867
	 C           1.7079759311       -2.0465111553        2.1460182283
	             0.0052805761        0.0038563880       -0.0029325834
	             0.0052216078       -0.0047529109        0.0003622218
	             0.0027067296        0.0022839388        0.0060563015
	            -0.0157451161       -0.0051367447       -0.0058853939
	            -0.0032774441       -0.0069495371        0.0014498639
	            -0.0027028355       -0.0060462286       -0.0050259450
	             0.0119048496        0.0168906720        0.0100637834
	             0.0016905787        0.0056448521        0.0061055800
	            -0.0047965296        0.0033867007        0.0054830235
	            -0.0005550973       -0.0120227320       -0.0196655228
	            -0.0025067626        0.0062412368       -0.0027817352
	             0.0045380684        0.0004834316       -0.0054432453
	            -0.0042400226       -0.0029080337       -0.0046528597
	             0.0024813977       -0.0009710329        0.0168665111

	---Fragment 1 Intrafragment Coordinates---
	 - Coordinate -           - BOHR/RAD -       - ANG/DEG -
	 R(1,4)           =         2.047827	       1.083663
	 R(2,4)           =         2.049339	       1.084464
	 R(3,4)           =         2.046578	       1.083002
	 R(4,7)           =         2.906949	       1.538291
	 R(5,7)           =         2.049037	       1.084304
	 R(6,7)           =         2.048254	       1.083889
	 R(7,10)          =         2.924003	       1.547316
	 R(8,10)          =         2.047810	       1.083655
	 R(9,10)          =         2.048304	       1.083916
	 R(10,14)         =         2.905741	       1.537652
	 R(11,14)         =         2.048681	       1.084115
	 R(12,14)         =         2.048049	       1.083781
	 R(13,14)         =         2.046789	       1.083114
	 B(1,4,2)         =         1.901689	     108.958748
	 B(1,4,3)         =         1.904833	     109.138876
	 B(1,4,7)         =         1.914981	     109.720327
	 B(2,4,3)         =         1.901541	     108.950280
	 B(2,4,7)         =         1.925584	     110.327845
	 B(3,4,7)         =         1.914977	     109.720081
	 B(4,7,5)         =         1.902832	     109.024241
	 B(4,7,6)         =         1.905638	     109.185025
	 B(4,7,10)        =         1.931410	     110.661655
	 B(5,7,6)         =         1.905749	     109.191346
	 B(5,7,10)        =         1.910761	     109.478527
	 B(6,7,10)        =         1.907259	     109.277891
	 B(7,10,8)        =         1.907082	     109.267726
	 B(7,10,9)        =         1.911345	     109.511984
	 B(7,10,14)       =         1.931530	     110.668507
	 B(8,10,9)        =         1.905877	     109.198695
	 B(8,10,14)       =         1.905075	     109.152755
	 B(9,10,14)       =         1.902739	     109.018912
	 B(10,14,11)      =         1.926146	     110.360031
	 B(10,14,12)      =         1.915247	     109.735569
	 B(10,14,13)      =         1.915740	     109.763812
	 B(11,14,12)      =         1.900625	     108.897797
	 B(11,14,13)      =         1.901884	     108.969948
	 B(12,14,13)      =         1.903932	     109.087278
	 D(1,4,7,5)       =        -3.136252	    -179.693999
	 D(1,4,7,6)       =        -1.055505	     -60.475973
	 D(1,4,7,10)      =         1.044447	      59.842405
	 D(2,4,7,5)       =        -1.040881	     -59.638111
	 D(2,4,7,6)       =         1.039866	      59.579914
	 D(2,4,7,10)      =         3.139818	     179.898292
	 D(3,4,7,5)       =         1.054303	      60.407138
	 D(3,4,7,6)       =         3.135051	     179.625164
	 D(3,4,7,10)      =        -1.048183	     -60.056458
	 D(4,7,10,8)      =         0.179836	      10.303829
	 D(4,7,10,9)      =         2.266685	     129.871499
	 D(4,7,10,14)     =        -1.918412	    -109.916911
	 D(5,7,10,8)      =        -1.917917	    -109.888564
	 D(5,7,10,9)      =         0.168932	       9.679106
	 D(5,7,10,14)     =         2.267020	     129.890696
	 D(6,7,10,8)      =         2.278820	     130.566746
	 D(6,7,10,9)      =        -1.917516	    -109.865585
	 D(6,7,10,14)     =         0.180572	      10.346006
	 D(7,10,14,11)    =         3.139349	     179.871446
	 D(7,10,14,12)    =         1.044773	      59.861097
	 D(7,10,14,13)    =        -1.047387	     -60.010856
	 D(8,10,14,11)    =         1.039903	      59.582028
	 D(8,10,14,12)    =        -1.054673	     -60.428321
	 D(8,10,14,13)    =         3.136352	     179.699726
	 D(9,10,14,11)    =        -1.040613	     -59.622734
	 D(9,10,14,12)    =        -3.135189	    -179.633084
	 D(9,10,14,13)    =         1.055836	      60.494963

	Current energy   :      -157.8371879425

	Energy change for the previous step:
		Projected    :        -0.0057951744
		Actual       :        -0.0041295317

	Performing BFGS update.
	Previous computed or guess Hessian on step 1.
	Steps to be used in Hessian update: 1
	Adding user-defined constraint: Fragment 1; Coordinate 49:
		Value =    -1.918412; Fixed value    =    -1.919860
		Force =    -0.000760; Force constant =     0.525000
	Removing off-diagonal coupling between coordinate 49 and others.
	Taking RFO optimization step.
	Going to follow RFO solution 1.
	Using RFO vector 1.

	Determining step-restricting scale parameter for RS-RFO.
	Maximum step size allowed    0.10000

	 Iter      |step|        alpha        rfo_root  
	------------------------------------------------
	    0     0.19392       1.00000           1
	    1     0.15605       4.19488           1
	    2     0.12327      13.15021           1
	    3     0.10593      23.13957           1
	    4     0.10055      27.65541           1
	    5     0.10001      28.16883           1
	------------------------------------------------
	Norm of target step-size    0.10001
	Projected energy change by RFO approximation:        -0.0026328214

	Back-transformation to cartesian coordinates...
	Could not converge backtransformation.
	Using first guess instead.

	--- Internal Coordinate Step in ANG or DEG, aJ/ANG or AJ/DEG ---
	 ---------------------------------------------------------------------------
	   Coordinate                Previous        Force       Change         New 
	   ----------                --------       ------       ------       ------
	    1 R(1,4)          =      1.083663     0.056030     0.008627     1.092290
	    2 R(2,4)          =      1.084464     0.052512     0.007722     1.092185
	    3 R(3,4)          =      1.083002     0.055172     0.008440     1.091442
	    4 R(4,7)          =      1.538291    -0.025772    -0.006624     1.531667
	    5 R(5,7)          =      1.084304     0.054882     0.008203     1.092507
	    6 R(6,7)          =      1.083889     0.058483     0.009102     1.092991
	    7 R(7,10)         =      1.547316     0.008761    -0.000531     1.546785
	    8 R(8,10)         =      1.083655     0.059929     0.009294     1.092949
	    9 R(9,10)         =      1.083916     0.057099     0.008504     1.092420
	   10 R(10,14)        =      1.537652    -0.023076    -0.006109     1.531543
	   11 R(11,14)        =      1.084115     0.054622     0.008002     1.092117
	   12 R(12,14)        =      1.083781     0.055647     0.008563     1.092344
	   13 R(13,14)        =      1.083114     0.054599     0.008351     1.091466
	   14 B(1,4,2)        =    108.958748    -0.000205    -0.731825   108.226923
	   15 B(1,4,3)        =    109.138876    -0.000176    -0.767493   108.371383
	   16 B(1,4,7)        =    109.720327     0.000152     0.625987   110.346314
	   17 B(2,4,3)        =    108.950280    -0.000191    -0.663404   108.286876
	   18 B(2,4,7)        =    110.327845     0.000273     0.908224   111.236070
	   19 B(3,4,7)        =    109.720081     0.000138     0.566219   110.286300
	   20 B(4,7,5)        =    109.024241    -0.000115    -0.245619   108.778623
	   21 B(4,7,6)        =    109.185025    -0.000090    -0.110033   109.074991
	   22 B(4,7,10)       =    110.661655     0.000366     1.174230   111.835885
	   23 B(5,7,6)        =    109.191346    -0.000112    -1.102464   108.088882
	   24 B(5,7,10)       =    109.478527     0.000008     0.261300   109.739826
	   25 B(6,7,10)       =    109.277891    -0.000063    -0.033722   109.244169
	   26 B(7,10,8)       =    109.267726    -0.000062    -0.029661   109.238065
	   27 B(7,10,9)       =    109.511984     0.000004     0.243575   109.755559
	   28 B(7,10,14)      =    110.668507     0.000365     1.168231   111.836738
	   29 B(8,10,9)       =    109.198695    -0.000113    -1.106426   108.092269
	   30 B(8,10,14)      =    109.152755    -0.000088    -0.095477   109.057278
	   31 B(9,10,14)      =    109.018912    -0.000112    -0.236499   108.782414
	   32 B(10,14,11)     =    110.360031     0.000269     0.888014   111.248045
	   33 B(10,14,12)     =    109.735569     0.000148     0.612788   110.348358
	   34 B(10,14,13)     =    109.763812     0.000133     0.544414   110.308226
	   35 B(11,14,12)     =    108.897797    -0.000198    -0.700156   108.197641
	   36 B(11,14,13)     =    108.969948    -0.000191    -0.667212   108.302736
	   37 B(12,14,13)     =    109.087278    -0.000171    -0.740059   108.347219
	   38 D(1,4,7,5)      =   -179.693999     0.000026     0.618782  -179.075217
	   39 D(1,4,7,6)      =    -60.475973    -0.000033    -0.916488   -61.392461
	   40 D(1,4,7,10)     =     59.842405    -0.000012    -0.287056    59.555349
	   41 D(2,4,7,5)      =    -59.638111     0.000029     0.695423   -58.942688
	   42 D(2,4,7,6)      =     59.579914    -0.000030    -0.839847    58.740067
	   43 D(2,4,7,10)     =    179.898292    -0.000008    -0.210415   179.687877
	   44 D(3,4,7,5)      =     60.407138     0.000034     0.818152    61.225290
	   45 D(3,4,7,6)      =    179.625164    -0.000024    -0.717118   178.908045
	   46 D(3,4,7,10)     =    -60.056458    -0.000003    -0.087686   -60.144145
	   47 D(4,7,10,8)     =     10.303829     0.000025     0.745896    11.049725
	   48 D(4,7,10,9)     =    129.871499    -0.000014    -0.474098   129.397401
	   49 D(4,7,10,14)    =   -109.916911     0.000007     0.142864  -109.774047
	   50 D(5,7,10,8)     =   -109.888564     0.000004     0.125791  -109.762773
	   51 D(5,7,10,9)     =      9.679106    -0.000036    -1.094202     8.584904
	   52 D(5,7,10,14)    =    129.890696    -0.000014    -0.477241   129.413456
	   53 D(6,7,10,8)     =    130.566746     0.000043     1.332569   131.899315
	   54 D(6,7,10,9)     =   -109.865585     0.000003     0.112576  -109.753009
	   55 D(6,7,10,14)    =     10.346006     0.000025     0.729537    11.075543
	   56 D(7,10,14,11)   =    179.871446    -0.000007    -0.186197   179.685250
	   57 D(7,10,14,12)   =     59.861097    -0.000011    -0.280771    59.580325
	   58 D(7,10,14,13)   =    -60.010856    -0.000003    -0.093577   -60.104433
	   59 D(8,10,14,11)   =     59.582028    -0.000029    -0.825533    58.756496
	   60 D(8,10,14,12)   =    -60.428321    -0.000033    -0.920108   -61.348429
	   61 D(8,10,14,13)   =    179.699726    -0.000025    -0.732913   178.966813
	   62 D(9,10,14,11)   =    -59.622734     0.000029     0.700268   -58.922466
	   63 D(9,10,14,12)   =   -179.633084     0.000025     0.605693  -179.027391
	   64 D(9,10,14,13)   =     60.494963     0.000033     0.792887    61.287850
	 ---------------------------------------------------------------------------
	 Forces used to impose fixed constraints are not included.
	  Forces zeroed: 49 

  ==> Convergence Check <==

  Measures of convergence in internal coordinates in au.
  Criteria marked as inactive (o), active & met (*), and active & unmet ( ).
  ---------------------------------------------------------------------------------------------
   Step     Total Energy     Delta E     MAX Force     RMS Force      MAX Disp      RMS Disp   
  ---------------------------------------------------------------------------------------------
    Convergence Criteria    1.00e-06 *    3.00e-04 *             o    1.20e-03 *             o
  ---------------------------------------------------------------------------------------------
      2    -157.83718794   -4.13e-03      7.27e-03      3.23e-03 o    2.33e-02      1.25e-02 o  ~
  ---------------------------------------------------------------------------------------------

	Writing optimization data to binary file.
	Structure for next step:
	Cartesian Geometry (in Angstrom)
	    H    -2.0538172902   0.2089944661   0.0339803790
	    H    -1.9009759308   1.8461339619  -0.6207453571
	    H    -1.5953872473   0.4465100345  -1.6599076234
	    C    -1.4788867217   0.8391811427  -0.6482344496
	    H     0.5467674219   1.4956986508  -0.9356961030
	    H     0.0953361825   1.2604981277   0.7585909676
	    C    -0.0003633144   0.8462769553  -0.2483312757
	    H    -0.0903281961  -1.2581525413  -0.7625474189
	    H     1.5360417022  -0.5682057917  -0.8540627597
	    C     0.6096967646  -0.5748681918  -0.2750799845
	    H     1.3378790145  -2.0968804504   1.1047427970
	    H    -0.0012009406  -1.1247784128   1.7315877432
	    H     1.6256181829  -0.4326439076   1.6340924938
	    C     0.9129191415  -1.0912753432   1.1345308974
			--------------------------
			 OPTKING Finished Execution 
			--------------------------

    Structure for next step:
    Molecular point group: c1
    Full point group: C1

    Geometry (in Angstrom), charge = 0, multiplicity = 1:

    H           -2.054099845178     0.208870404668     0.034186610962
    H           -1.901258485788     1.846009900428    -0.620539125123
    H           -1.595669802205     0.446385973035    -1.659701391431
    C           -1.479169276689     0.839057081251    -0.648028217581
    H            0.546484867005     1.495574589366    -0.935489871041
    H            0.095053627531     1.260374066220     0.758797199604
    C           -0.000645869358     0.846152893806    -0.248125043760
    H           -0.090610751064    -1.258276602797    -0.762341186911
    H            1.535759147226    -0.568329853133    -0.853856527752
    C            0.609414209609    -0.574992253282    -0.274873752548
    H            1.337596459598    -2.097004511839     1.104949028954
    H           -0.001483495496    -1.124902474239     1.731793975209
    H            1.625335627963    -0.432767969068     1.634298725794
    C            0.912636586565    -1.091399404715     1.134737129340

gradient() will perform analytic gradient computation.
    SCF Algorithm Type (re)set to DF.

*** tstart() called on lski1497
*** at Thu Feb 16 16:31:04 2017


         ---------------------------------------------------------
                                   SCF
            by Justin Turney, Rob Parrish, and Andy Simmonett
                              RHF Reference
                        1 Threads,   1000 MiB Core
         ---------------------------------------------------------

  ==> Geometry <==

    Molecular point group: c1
    Full point group: C1

    Geometry (in Angstrom), charge = 0, multiplicity = 1:

       Center              X                  Y                   Z               Mass       
    ------------   -----------------  -----------------  -----------------  -----------------
           H         -2.054099845178     0.208870404668     0.034186610962     1.007825032070
           H         -1.901258485788     1.846009900428    -0.620539125123     1.007825032070
           H         -1.595669802205     0.446385973035    -1.659701391431     1.007825032070
           C         -1.479169276689     0.839057081251    -0.648028217581    12.000000000000
           H          0.546484867005     1.495574589366    -0.935489871041     1.007825032070
           H          0.095053627531     1.260374066220     0.758797199604     1.007825032070
           C         -0.000645869358     0.846152893806    -0.248125043760    12.000000000000
           H         -0.090610751064    -1.258276602797    -0.762341186911     1.007825032070
           H          1.535759147226    -0.568329853133    -0.853856527752     1.007825032070
           C          0.609414209609    -0.574992253282    -0.274873752548    12.000000000000
           H          1.337596459598    -2.097004511839     1.104949028954     1.007825032070
           H         -0.001483495496    -1.124902474239     1.731793975209     1.007825032070
           H          1.625335627963    -0.432767969068     1.634298725794     1.007825032070
           C          0.912636586565    -1.091399404715     1.134737129340    12.000000000000

  Running in c1 symmetry.

  Rotational constants: A =      0.55671  B =      0.13241  C =      0.12925 [cm^-1]
  Rotational constants: A =  16689.73026  B =   3969.67128  C =   3874.66957 [MHz]
  Nuclear repulsion =  131.395654410138178

  Charge       = 0
  Multiplicity = 1
  Electrons    = 34
  Nalpha       = 17
  Nbeta        = 17

  ==> Algorithm <==

  SCF Algorithm Type is DF.
  DIIS enabled.
  MOM disabled.
  Fractional occupation disabled.
  Guess Type is READ.
  Energy threshold   = 1.00e-10
  Density threshold  = 1.00e-10
  Integral threshold = 0.00e+00

  ==> Primary Basis <==

  Basis Set: 6-31G(D)
    Number of shells: 44
    Number of basis function: 80
    Number of Cartesian functions: 80
    Spherical Harmonics?: false
    Max angular momentum: 2

  ==> Pre-Iterations <==

   -------------------------------------------------------
    Irrep   Nso     Nmo     Nalpha   Nbeta   Ndocc  Nsocc
   -------------------------------------------------------
     A         80      80       0       0       0       0
   -------------------------------------------------------
    Total      80      80      17      17      17       0
   -------------------------------------------------------

  ==> Integral Setup <==

  ==> DFJK: Density-Fitted J/K Matrices <==

    J tasked:                  Yes
    K tasked:                  Yes
    wK tasked:                  No
    OpenMP threads:              1
    Integrals threads:           1
    Memory (MB):               715
    Algorithm:                Core
    Integral Cache:           NONE
    Schwarz Cutoff:          1E-12
    Fitting Condition:       1E-12

   => Auxiliary Basis Set <=

  Basis Set: 
    Number of shells: 186
    Number of basis function: 574
    Number of Cartesian functions: 574
    Spherical Harmonics?: false
    Max angular momentum: 3

  Minimum eigenvalue in the overlap matrix is 5.1711397551E-03.
  Using Symmetric Orthogonalization.
  SCF Guess was Projection but file not found.
  Switching over to SAD guess.

  SCF Guess: Superposition of Atomic Densities via on-the-fly atomic UHF.

  ==> Iterations <==

                           Total Energy        Delta E     RMS |[F,P]|

   @DF-RHF iter   0:  -158.78817725212829   -1.58788e+02   4.58678e-02 
   @DF-RHF iter   1:  -157.20103246090352    1.58714e+00   3.94709e-03 
   @DF-RHF iter   2:  -157.28303681194515   -8.20044e-02   1.13190e-03 DIIS
   @DF-RHF iter   3:  -157.29157095851289   -8.53415e-03   2.97315e-04 DIIS
   @DF-RHF iter   4:  -157.29202699337159   -4.56035e-04   8.51799e-05 DIIS
   @DF-RHF iter   5:  -157.29207015838469   -4.31650e-05   1.39480e-05 DIIS
   @DF-RHF iter   6:  -157.29207169158767   -1.53320e-06   2.55436e-06 DIIS
   @DF-RHF iter   7:  -157.29207172903236   -3.74447e-08   7.89394e-07 DIIS
   @DF-RHF iter   8:  -157.29207173254301   -3.51065e-09   1.56270e-07 DIIS
   @DF-RHF iter   9:  -157.29207173274207   -1.99066e-10   3.81596e-08 DIIS
   @DF-RHF iter  10:  -157.29207173275401   -1.19371e-11   7.07070e-09 DIIS
   @DF-RHF iter  11:  -157.29207173275435   -3.41061e-13   2.03654e-09 DIIS
   @DF-RHF iter  12:  -157.29207173275412    2.27374e-13   4.87036e-10 DIIS
   @DF-RHF iter  13:  -157.29207173275424   -1.13687e-13   8.64314e-11 DIIS

  ==> Post-Iterations <==

    Orbital Energies (a.u.)
    -----------------------

    Doubly Occupied:                                                      

       1A    -11.214874     2A    -11.214325     3A    -11.209857  
       4A    -11.209839     5A     -1.067143     6A     -0.977289  
       7A     -0.860762     8A     -0.784372     9A     -0.628498  
      10A     -0.605407    11A     -0.577893    12A     -0.546865  
      13A     -0.512263    14A     -0.505805    15A     -0.466783  
      16A     -0.456101    17A     -0.450718  

    Virtual:                                                              

      18A      0.230981    19A      0.271229    20A      0.281832  
      21A      0.290214    22A      0.313345    23A      0.321474  
      24A      0.332525    25A      0.342535    26A      0.345468  
      27A      0.358897    28A      0.407503    29A      0.453181  
      30A      0.456897    31A      0.715377    32A      0.727070  
      33A      0.731119    34A      0.782878    35A      0.792007  
      36A      0.817244    37A      0.853023    38A      0.933080  
      39A      0.945583    40A      0.994856    41A      1.063879  
      42A      1.108378    43A      1.151901    44A      1.155643  
      45A      1.171003    46A      1.187962    47A      1.189701  
      48A      1.210678    49A      1.235496    50A      1.237102  
      51A      1.247867    52A      1.259288    53A      1.261049  
      54A      1.440542    55A      1.695671    56A      1.739847  
      57A      1.793403    58A      1.890641    59A      2.014167  
      60A      2.049283    61A      2.192526    62A      2.234739  
      63A      2.267132    64A      2.306111    65A      2.359181  
      66A      2.441346    67A      2.470028    68A      2.605712  
      69A      2.629038    70A      2.646051    71A      2.715730  
      72A      2.744552    73A      2.780602    74A      2.896437  
      75A      3.004853    76A      3.068740    77A      4.555577  
      78A      4.651934    79A      4.824090    80A      4.955561  

    Final Occupation by Irrep:
              A 
    DOCC [    17 ]

  Energy converged.

  @DF-RHF Final Energy:  -157.29207173275424

   => Energetics <=

    Nuclear Repulsion Energy =            131.3956544101381780
    One-Electron Energy =                -470.7978637554835473
    Two-Electron Energy =                 182.1101376125910747
    DFT Exchange-Correlation Energy =       0.0000000000000000
    Empirical Dispersion Energy =           0.0000000000000000
    PCM Polarization Energy =               0.0000000000000000
    EFP Energy =                            0.0000000000000000
    Total Energy =                       -157.2920717327542661


  Saving occupied orbitals to File 180.

*** tstop() called on lski1497 at Thu Feb 16 16:31:10 2017
Module time:
	user time   =       5.24 seconds =       0.09 minutes
	system time =       0.15 seconds =       0.00 minutes
	total time  =          6 seconds =       0.10 minutes
Total time:
	user time   =      54.87 seconds =       0.91 minutes
	system time =       1.56 seconds =       0.03 minutes
	total time  =         66 seconds =       1.10 minutes


Properties will be evaluated at   0.000000,   0.000000,   0.000000 Bohr

Properties computed using the SCF density matrix

  Nuclear Dipole Moment: (a.u.)
     X:    -0.4714      Y:    -0.2101      Z:     0.4051

  Electronic Dipole Moment: (a.u.)
     X:     0.4943      Y:     0.2202      Z:    -0.4248

  Dipole Moment: (a.u.)
     X:     0.0228      Y:     0.0101      Z:    -0.0197     Total:     0.0318

  Dipole Moment: (Debye)
     X:     0.0580      Y:     0.0257      Z:    -0.0500     Total:     0.0808


  //>>>>>>>>>>>>>>>>>>>>>>>>>>>>>>>>>>>//
  //               DFMP2               //
  //<<<<<<<<<<<<<<<<<<<<<<<<<<<<<<<<<<<//


*** tstart() called on lski1497
*** at Thu Feb 16 16:31:10 2017


*** tstop() called on lski1497 at Thu Feb 16 16:31:11 2017
Module time:
	user time   =       0.58 seconds =       0.01 minutes
	system time =       0.01 seconds =       0.00 minutes
	total time  =          1 seconds =       0.02 minutes
Total time:
	user time   =      55.47 seconds =       0.92 minutes
	system time =       1.57 seconds =       0.03 minutes
	total time  =         67 seconds =       1.12 minutes
	 --------------------------------------------------------
	                          DF-MP2                         
	      2nd-Order Density-Fitted Moller-Plesset Theory     
	              RMP2 Wavefunction,   1 Threads             
	                                                         
	        Rob Parrish, Justin Turney, Andy Simmonett,      
	           Ed Hohenstein, and C. David Sherrill          
	 --------------------------------------------------------

   => Auxiliary Basis Set <=

  Basis Set: 
    Number of shells: 132
    Number of basis function: 364
    Number of Cartesian functions: 414
    Spherical Harmonics?: true
    Max angular momentum: 3

	 --------------------------------------------------------
	                 NBF =    80, NAUX =   364
	 --------------------------------------------------------
	   CLASS    FOCC     OCC    AOCC    AVIR     VIR    FVIR
	   PAIRS       0      17      17      63      63       0
	 --------------------------------------------------------

DGAS Warning! /src/lib/libfock/apps.cc:80 is not currently checking restricted

         ------------------------------------------------------------
                                     CPHF                           
                                  Rob Parrish                       
         ------------------------------------------------------------

  ==> Geometry <==

    Molecular point group: c1
    Full point group: C1

    Geometry (in Angstrom), charge = 0, multiplicity = 1:

       Center              X                  Y                   Z               Mass       
    ------------   -----------------  -----------------  -----------------  -----------------
           H         -2.054099845178     0.208870404668     0.034186610962     1.007825032070
           H         -1.901258485788     1.846009900428    -0.620539125123     1.007825032070
           H         -1.595669802205     0.446385973035    -1.659701391431     1.007825032070
           C         -1.479169276689     0.839057081251    -0.648028217581    12.000000000000
           H          0.546484867005     1.495574589366    -0.935489871041     1.007825032070
           H          0.095053627531     1.260374066220     0.758797199604     1.007825032070
           C         -0.000645869358     0.846152893806    -0.248125043760    12.000000000000
           H         -0.090610751064    -1.258276602797    -0.762341186911     1.007825032070
           H          1.535759147226    -0.568329853133    -0.853856527752     1.007825032070
           C          0.609414209609    -0.574992253282    -0.274873752548    12.000000000000
           H          1.337596459598    -2.097004511839     1.104949028954     1.007825032070
           H         -0.001483495496    -1.124902474239     1.731793975209     1.007825032070
           H          1.625335627963    -0.432767969068     1.634298725794     1.007825032070
           C          0.912636586565    -1.091399404715     1.134737129340    12.000000000000

  Nuclear repulsion =  131.395654410138178
  Reference energy  = -157.292071732754238

  ==> Basis Set <==

  Basis Set: 6-31G(D)
    Number of shells: 44
    Number of basis function: 80
    Number of Cartesian functions: 80
    Spherical Harmonics?: false
    Max angular momentum: 2

  ==> CGRSolver (by Rob Parrish) <==

   Number of roots    =         1
   Preconditioning    =    JACOBI
   Convergence cutoff =     1E-06
   Maximum iterations =       100

  ==> CPHFRHamiltonian (by Rob Parrish) <== 

  ==> DFJK: Density-Fitted J/K Matrices <==

    J tasked:                  Yes
    K tasked:                  Yes
[...]
    Number of Cartesian functions: 574
    Spherical Harmonics?: false
    Max angular momentum: 3

  ==> CPHF Iterations <==

  => Iterations <=

             Iter  Converged  Remaining    Residual
  CGR           1          0          1   7.542E-02
  CGR           2          0          1   9.269E-03
  CGR           3          0          1   2.718E-03
  CGR           4          0          1   4.240E-04
  CGR           5          0          1   8.247E-05
  CGR           6          0          1   1.814E-05
  CGR           7          0          1   2.878E-06
  CGR           8          1          0   5.452E-07

    CGRSolver converged.

  ==> DFCorrGrad: Density-Fitted Correlated Gradients <==

    OpenMP threads:              1
    Integrals threads:           1
    Memory (MB):               715
    Schwarz Cutoff:          0E+00
    Fitting Condition:       1E-12

   => Auxiliary Basis Set <=

  Basis Set: 
    Number of shells: 186
    Number of basis function: 510
    Number of Cartesian functions: 574
    Spherical Harmonics?: true
    Max angular momentum: 3

	-----------------------------------------------------------
	 ==================> DF-MP2 Energies <==================== 
	-----------------------------------------------------------
	 Reference Energy          =    -157.2923821724100435 [Eh]
	 Singles Energy            =      -0.0000000000000000 [Eh]
	 Same-Spin Energy          =      -0.1242965118749377 [Eh]
	 Opposite-Spin Energy      =      -0.4224222717445641 [Eh]
	 Correlation Energy        =      -0.5467187836195018 [Eh]
	 Total Energy              =    -157.8391009560295402 [Eh]
	-----------------------------------------------------------
	 ================> DF-SCS-MP2 Energies <================== 
	-----------------------------------------------------------
	 SCS Same-Spin Scale       =       0.3333333333333333 [-]
	 SCS Opposite-Spin Scale   =       1.2000000000000000 [-]
	 SCS Same-Spin Energy      =      -0.0414321706249792 [Eh]
	 SCS Opposite-Spin Energy  =      -0.5069067260934769 [Eh]
	 SCS Correlation Energy    =      -0.5483388967184561 [Eh]
	 SCS Total Energy          =    -157.8407210691285059 [Eh]
	-----------------------------------------------------------


  -Total Gradient:
     Atom            X                  Y                   Z
    ------   -----------------  -----------------  -----------------
       1        0.000008943454     0.000002699390     0.000004095262
       2       -0.000002140084     0.000003849213    -0.000002926145
       3       -0.000004765686    -0.000003158815    -0.000001630821
       4        0.000452947877     0.000196904636    -0.001573532477
       5       -0.000014913072    -0.000002506883     0.000005532078
       6       -0.000002796702     0.000007160342     0.000000305529
       7       -0.000036867874     0.000020379798     0.002150211923
       8        0.000002805667    -0.000007184137    -0.000000511077
       9       -0.000006631781    -0.000007006603     0.000013041349
      10       -0.001900820459    -0.000882563097    -0.000484492524
      11        0.000004378317    -0.000002895720     0.000001043742
      12       -0.000001989095     0.000000332860    -0.000010406187
      13       -0.000000280797     0.000000840927     0.000005884680
      14        0.001502130235     0.000673148088    -0.000106615333


			-----------------------------------------
			 OPTKING 2.0: for geometry optimizations 
			  - R.A. King,  Bethel University        
			-----------------------------------------

	Previous internal coordinate definitions found.
	---Fragment 1 Geometry and Gradient---
	 H          -3.9048965780        0.3596245592        0.0099542515
	 H          -3.6179432924        3.4747717358       -1.1657920219
	 H          -3.0281040855        0.8665750348       -3.1721133069
	 C          -2.8008059708        1.5777815202       -1.2449558873
	 H           1.0197967792        2.8262633419       -1.7734991777
	 H           0.1799955629        2.4245153841        1.3987156527
	 C          -0.0196223400        1.5844530421       -0.4841325403
	 H          -0.1221542448       -2.3987798603       -1.4484588155
	 H           2.9053377666       -1.0795681588       -1.6020597781
	 C           1.1569145739       -1.0783565937       -0.4939241964
	 H           2.5144431906       -3.9658319951        2.1148095386
	 H           0.0305929443       -2.0837187937        3.3218725284
	 H           3.1163320356       -0.8272869301        3.0962320168
	 C           1.7396549115       -2.0499952536        2.1575324774
	             0.0000089435        0.0000026994        0.0000040953
	            -0.0000021401        0.0000038492       -0.0000029261
	            -0.0000047657       -0.0000031588       -0.0000016308
	             0.0004529479        0.0001969046       -0.0015735325
	            -0.0000149131       -0.0000025069        0.0000055321
	            -0.0000027967        0.0000071603        0.0000003055
	            -0.0000368679        0.0000203798        0.0021502119
	             0.0000028057       -0.0000071841       -0.0000005111
	            -0.0000066318       -0.0000070066        0.0000130413
	            -0.0019008205       -0.0008825631       -0.0004844925
	             0.0000043783       -0.0000028957        0.0000010437
	            -0.0000019891        0.0000003329       -0.0000104062
	            -0.0000002808        0.0000008409        0.0000058847
	             0.0015021302        0.0006731481       -0.0001066153

	---Fragment 1 Intrafragment Coordinates---
	 - Coordinate -           - BOHR/RAD -       - ANG/DEG -
	 R(1,4)           =         2.068265	       1.094479
	 R(2,4)           =         2.067015	       1.093817
	 R(3,4)           =         2.066740	       1.093672
	 R(4,7)           =         2.883380	       1.525819
	 R(5,7)           =         2.070012	       1.095403
	 R(6,7)           =         2.071393	       1.096134
	 R(7,10)          =         2.911166	       1.540523
	 R(8,10)          =         2.071393	       1.096134
	 R(9,10)          =         2.070012	       1.095403
	 R(10,14)         =         2.883382	       1.525820
	 R(11,14)         =         2.067015	       1.093817
	 R(12,14)         =         2.068264	       1.094478
	 R(13,14)         =         2.066740	       1.093671
	 B(1,4,2)         =         1.882056	     107.833864
	 B(1,4,3)         =         1.880083	     107.720836
	 B(1,4,7)         =         1.934960	     110.865036
	 B(2,4,3)         =         1.883938	     107.941679
	 B(2,4,7)         =         1.948817	     111.658996
	 B(3,4,7)         =         1.931488	     110.666115
	 B(4,7,5)         =         1.897969	     108.745602
	 B(4,7,6)         =         1.911063	     109.495870
	 B(4,7,10)        =         1.967975	     112.756656
	 B(5,7,6)         =         1.848864	     105.932126
	 B(5,7,10)        =         1.921646	     110.102221
	 B(6,7,10)        =         1.912472	     109.576546
	 B(7,10,8)        =         1.912473	     109.576604
	 B(7,10,9)        =         1.921646	     110.102191
	 B(7,10,14)       =         1.967974	     112.756578
	 B(8,10,9)        =         1.848865	     105.932169
	 B(8,10,14)       =         1.911064	     109.495898
	 B(9,10,14)       =         1.897969	     108.745588
	 B(10,14,11)      =         1.948817	     111.658979
	 B(10,14,12)      =         1.934957	     110.864869
	 B(10,14,13)      =         1.931489	     110.666176
	 B(11,14,12)      =         1.882057	     107.833897
	 B(11,14,13)      =         1.883938	     107.941698
	 B(12,14,13)      =         1.880085	     107.720914
	 D(1,4,7,5)       =        -3.137343	    -179.756515
	 D(1,4,7,6)       =        -1.124650	     -64.437697
	 D(1,4,7,10)      =         1.009422	      57.835626
	 D(2,4,7,5)       =        -1.038303	     -59.490394
	 D(2,4,7,6)       =         0.974390	      55.828424
	 D(2,4,7,10)      =         3.108462	     178.101747
	 D(3,4,7,5)       =         1.060758	      60.776949
	 D(3,4,7,6)       =         3.073451	     176.095766
	 D(3,4,7,10)      =        -1.075662	     -61.630911
	 D(4,7,10,8)      =         0.218008	      12.490966
	 D(4,7,10,9)      =         2.244843	     128.620054
	 D(4,7,10,14)     =        -1.915272	    -109.737011
	 D(5,7,10,8)      =        -1.905063	    -109.152061
	 D(5,7,10,9)      =         0.121772	       6.977027
	 D(5,7,10,14)     =         2.244842	     128.619961
	 D(6,7,10,8)      =         2.351289	     134.718920
	 D(6,7,10,9)      =        -1.905062	    -109.151992
	 D(6,7,10,14)     =         0.218008	      12.490942
	 D(7,10,14,11)    =         3.108475	     178.102523
	 D(7,10,14,12)    =         1.009437	      57.836486
	 D(7,10,14,13)    =        -1.075648	     -61.630080
	 D(8,10,14,11)    =         0.974403	      55.829160
	 D(8,10,14,12)    =        -1.124636	     -64.436877
	 D(8,10,14,13)    =         3.073465	     176.096557
	 D(9,10,14,11)    =        -1.038291	     -59.489718
	 D(9,10,14,12)    =        -3.137330	    -179.755755
	 D(9,10,14,13)    =         1.060771	      60.777679

	Current energy   :      -157.8391009560

	Energy change for the previous step:
		Projected    :        -0.0000015487
		Actual       :        -0.0000000003

	Performing BFGS update.
	Previous computed or guess Hessian on step 1.
	Steps to be used in Hessian update: 7 6
	Adding user-defined constraint: Fragment 1; Coordinate 49:
		Value =    -1.915272; Fixed value    =    -1.919860
		Force =    -0.003097; Force constant =     0.675000
	Removing off-diagonal coupling between coordinate 49 and others.
	Taking RFO optimization step.
	Going to follow RFO solution 1.
	Rejecting RFO root 1 because normalization gives large value.
	Using RFO vector 2.
	Norm of target step-size    0.00392
	Projected energy change by RFO approximation:        -0.0000005387

	Back-transformation to cartesian coordinates...
	Successfully converged to displaced geometry.

	--- Internal Coordinate Step in ANG or DEG, aJ/ANG or AJ/DEG ---
	 ---------------------------------------------------------------------------
	   Coordinate                Previous        Force       Change         New 
	   ----------                --------       ------       ------       ------
	    1 R(1,4)          =      1.094479     0.000032     0.000010     1.094489
	    2 R(2,4)          =      1.093817    -0.000035    -0.000006     1.093812
	    3 R(3,4)          =      1.093672    -0.000026    -0.000004     1.093668
	    4 R(4,7)          =      1.525819     0.000198     0.000058     1.525877
	    5 R(5,7)          =      1.095403     0.000102     0.000025     1.095428
	    6 R(6,7)          =      1.096134    -0.000024    -0.000005     1.096129
	    7 R(7,10)         =      1.540523    -0.000382    -0.000107     1.540416
	    8 R(8,10)         =      1.096134    -0.000026    -0.000005     1.096129
	    9 R(9,10)         =      1.095403     0.000104     0.000025     1.095428
	   10 R(10,14)        =      1.525820     0.000194     0.000056     1.525876
	   11 R(11,14)        =      1.093817    -0.000036    -0.000006     1.093812
	   12 R(12,14)        =      1.094478     0.000035     0.000011     1.094489
	   13 R(13,14)        =      1.093671    -0.000024    -0.000003     1.093668
	   14 B(1,4,2)        =    107.833864    -0.000000    -0.000696   107.833168
	   15 B(1,4,3)        =    107.720836    -0.000000    -0.000491   107.720345
	   16 B(1,4,7)        =    110.865036     0.000001     0.008272   110.873309
	   17 B(2,4,3)        =    107.941679     0.000000    -0.000100   107.941579
	   18 B(2,4,7)        =    111.658996    -0.000000    -0.001865   111.657131
	   19 B(3,4,7)        =    110.666115    -0.000001    -0.005173   110.660942
	   20 B(4,7,5)        =    108.745602    -0.000002    -0.000378   108.745224
	   21 B(4,7,6)        =    109.495870     0.000003     0.008839   109.504710
	   22 B(4,7,10)       =    112.756656     0.000000     0.001899   112.758555
	   23 B(5,7,6)        =    105.932126     0.000000     0.000942   105.933067
	   24 B(5,7,10)       =    110.102221    -0.000000    -0.007487   110.094734
	   25 B(6,7,10)       =    109.576546    -0.000001    -0.003773   109.572773
	   26 B(7,10,8)       =    109.576604    -0.000001    -0.003935   109.572669
	   27 B(7,10,9)       =    110.102191    -0.000000    -0.007344   110.094847
	   28 B(7,10,14)      =    112.756578     0.000000     0.001993   112.758571
	   29 B(8,10,9)       =    105.932169     0.000000     0.000907   105.933077
	   30 B(8,10,14)      =    109.495898     0.000003     0.008618   109.504517
	   31 B(9,10,14)      =    108.745588    -0.000002    -0.000206   108.745382
	   32 B(10,14,11)     =    111.658979    -0.000000    -0.001876   111.657103
	   33 B(10,14,12)     =    110.864869     0.000001     0.008476   110.873345
	   34 B(10,14,13)     =    110.666176    -0.000001    -0.005314   110.660862
	   35 B(11,14,12)     =    107.833897    -0.000000    -0.000706   107.833191
	   36 B(11,14,13)     =    107.941698     0.000000    -0.000094   107.941604
	   37 B(12,14,13)     =    107.720914    -0.000000    -0.000541   107.720373
	   38 D(1,4,7,5)      =   -179.756515    -0.000000    -0.056824  -179.813338
	   39 D(1,4,7,6)      =    -64.437697    -0.000000    -0.051111   -64.488807
	   40 D(1,4,7,10)     =     57.835626     0.000000    -0.048287    57.787339
	   41 D(2,4,7,5)      =    -59.490394    -0.000000    -0.053318   -59.543712
	   42 D(2,4,7,6)      =     55.828424    -0.000000    -0.047605    55.780819
	   43 D(2,4,7,10)     =    178.101747     0.000000    -0.044782   178.056965
	   44 D(3,4,7,5)      =     60.776949    -0.000000    -0.058208    60.718740
	   45 D(3,4,7,6)      =    176.095766    -0.000000    -0.052495   176.043272
	   46 D(3,4,7,10)     =    -61.630911     0.000000    -0.049671   -61.680583
	   47 D(4,7,10,8)     =     12.490966    -0.000001     0.007200    12.498166
	   48 D(4,7,10,9)     =    128.620054    -0.000001     0.001782   128.621836
	   49 D(4,7,10,14)    =   -109.737011    -0.000001    -0.002385  -109.739396
	   50 D(5,7,10,8)     =   -109.152061    -0.000000     0.011755  -109.140306
	   51 D(5,7,10,9)     =      6.977027    -0.000000     0.006337     6.983364
	   52 D(5,7,10,14)    =    128.619961    -0.000001     0.002170   128.622132
	   53 D(6,7,10,8)     =    134.718920     0.000000     0.017120   134.736040
	   54 D(6,7,10,9)     =   -109.151992    -0.000000     0.011702  -109.140290
	   55 D(6,7,10,14)    =     12.490942    -0.000001     0.007535    12.498478
	   56 D(7,10,14,11)   =    178.102523     0.000000    -0.046279   178.056244
	   57 D(7,10,14,12)   =     57.836486     0.000000    -0.049903    57.786582
	   58 D(7,10,14,13)   =    -61.630080     0.000000    -0.051265   -61.681345
	   59 D(8,10,14,11)   =     55.829160    -0.000000    -0.048801    55.780359
	   60 D(8,10,14,12)   =    -64.436877    -0.000000    -0.052425   -64.489302
	   61 D(8,10,14,13)   =    176.096557    -0.000000    -0.053786   176.042770
	   62 D(9,10,14,11)   =    -59.489718    -0.000000    -0.054448   -59.544166
	   63 D(9,10,14,12)   =   -179.755755    -0.000000    -0.058073  -179.813827
	   64 D(9,10,14,13)   =     60.777679    -0.000000    -0.059434    60.718245
	 ---------------------------------------------------------------------------
	 Forces used to impose fixed constraints are not included.
	  Forces zeroed: 49 

  ==> Convergence Check <==

  Measures of convergence in internal coordinates in au.
  Criteria marked as inactive (o), active & met (*), and active & unmet ( ).
  ---------------------------------------------------------------------------------------------
   Step     Total Energy     Delta E     MAX Force     RMS Force      MAX Disp      RMS Disp   
  ---------------------------------------------------------------------------------------------
    Convergence Criteria    1.00e-06 *    3.00e-04 *             o    1.20e-03 *             o
  ---------------------------------------------------------------------------------------------
      8    -157.83910096   -2.71e-10 *    4.63e-05 *    1.62e-05 o    1.04e-03 *    4.90e-04 o  ~
  ---------------------------------------------------------------------------------------------


  **** Optimization is complete! (in 8 steps) ****

  ==> Optimization Summary <==

  Measures of convergence in internal coordinates in au.
  --------------------------------------------------------------------------------------------------------------- ~
   Step         Total Energy             Delta E       MAX Force       RMS Force        MAX Disp        RMS Disp  ~
  --------------------------------------------------------------------------------------------------------------- ~
      1    -157.833058410818   -157.833058410818      0.01760657      0.00730775      0.02751211      0.01250748  ~
      2    -157.837187942529     -0.004129531711      0.00727411      0.00322810      0.02325772      0.01250841  ~
      3    -157.838686029104     -0.001498086575      0.00168476      0.00096521      0.03390927      0.01251290  ~
      4    -157.839063962130     -0.000377933026      0.00132561      0.00026497      0.02803664      0.01249940  ~
      5    -157.839103074977     -0.000039112847      0.00014339      0.00004651      0.00323834      0.00146499  ~
      6    -157.839102062654      0.000001012323      0.00007392      0.00001855      0.00225675      0.00105232  ~
      7    -157.839100955759      0.000001106895      0.00006332      0.00002129      0.00191410      0.00086753  ~
      8    -157.839100956030     -0.000000000271      0.00007808      0.00001888      0.00103732      0.00049034  ~
  --------------------------------------------------------------------------------------------------------------- ~

	Writing optimization data to binary file.
	Final energy is   -157.8391009560295
	Final (previous) structure:
	Cartesian Geometry (in Angstrom)
	    H    -2.0663822710   0.1903051204   0.0052675630
	    H    -1.9145331323   1.8387700076  -0.6169105679
	    H    -1.6024036673   0.4585717579  -1.6786100651
	    C    -1.4821226854   0.8349260206  -0.6588022813
	    H     0.5396532129   1.4955941460  -0.9384953443
	    H     0.0952495496   1.2829982831   0.7401684447
	    C    -0.0103836951   0.8384564379  -0.2561919063
	    H    -0.0646412423  -1.2693796305  -0.7664913927
	    H     1.5374385293  -0.5712828648  -0.8477735214
	    C     0.6122128248  -0.5706417321  -0.2613734275
	    H     1.3305860288  -2.0986279049   1.1191090083
	    H     0.0161890889  -1.1026564947   1.7578592319
	    H     1.6490918877  -0.4377813884   1.6384554158
	    C     0.9205857300  -1.0848107659   1.1417170138
	Saving final (previous) structure.
			--------------------------
			 OPTKING Finished Execution 
			--------------------------

    Final optimized geometry and variables:
    Molecular point group: c1
    Full point group: C1

    Geometry (in Angstrom), charge = 0, multiplicity = 1:

    H           -2.066382270961     0.190305120358     0.005267563002
    H           -1.914533132329     1.838770007616    -0.616910567942
    H           -1.602403667301     0.458571757939    -1.678610065055
    C           -1.482122685418     0.834926020618    -0.658802281279
    H            0.539653212924     1.495594145987    -0.938495344281
    H            0.095249549559     1.282998283116     0.740168444697
    C           -0.010383695102     0.838456437940    -0.256191906280
    H           -0.064641242282    -1.269379630492    -0.766491392720
    H            1.537438529333    -0.571282864773    -0.847773521372
    C            0.612212824783    -0.570641732097    -0.261373427491
    H            1.330586028777    -2.098627904913     1.119109008327
    H            0.016189088862    -1.102656494716     1.757859231878
    H            1.649091887658    -0.437781388382     1.638455415780
    C            0.920585729959    -1.084810765938     1.141717013847

	Cleaning optimization helper files.

*** Psi4 exiting successfully. Buy a developer a beer!
