 Entering Gaussian System, Link 0=g09
 Initial command:
 /softlib/exe/x86_64/pkg/gaussian/09revB.01/dist/g09/l1.exe /zenodotus/hwlab/hwlab_store011/chs2057/Weinsteinlab/parameters/Cy3-2/torsion-scan/retry/retry/Gau-12770.inp -scrdir=/zenodotus/hwlab/hwlab_store011/chs2057/Weinsteinlab/parameters/Cy3-2/torsion-scan/retry/retry/
 Entering Link 1 = /softlib/exe/x86_64/pkg/gaussian/09revB.01/dist/g09/l1.exe PID=     12771.
  
 Copyright (c) 1988,1990,1992,1993,1995,1998,2003,2009,2010,
            Gaussian, Inc.  All Rights Reserved.
  
 This is part of the Gaussian(R) 09 program.  It is based on
 the Gaussian(R) 03 system (copyright 2003, Gaussian, Inc.),
 the Gaussian(R) 98 system (copyright 1998, Gaussian, Inc.),
 the Gaussian(R) 94 system (copyright 1995, Gaussian, Inc.),
 the Gaussian 92(TM) system (copyright 1992, Gaussian, Inc.),
 the Gaussian 90(TM) system (copyright 1990, Gaussian, Inc.),
 the Gaussian 88(TM) system (copyright 1988, Gaussian, Inc.),
 the Gaussian 86(TM) system (copyright 1986, Carnegie Mellon
 University), and the Gaussian 82(TM) system (copyright 1983,
 Carnegie Mellon University). Gaussian is a federally registered
 trademark of Gaussian, Inc.
  
 This software contains proprietary and confidential information,
 including trade secrets, belonging to Gaussian, Inc.
  
 This software is provided under written license and may be
 used, copied, transmitted, or stored only in accord with that
 written license.
  
 The following legend is applicable only to US Government
 contracts under FAR:
  
                    RESTRICTED RIGHTS LEGEND
  
 Use, reproduction and disclosure by the US Government is
 subject to restrictions as set forth in subparagraphs (a)
 and (c) of the Commercial Computer Software - Restricted
 Rights clause in FAR 52.227-19.
  
 Gaussian, Inc.
 340 Quinnipiac St., Bldg. 40, Wallingford CT 06492
  
  
 ---------------------------------------------------------------
 Warning -- This program may not be used in any manner that
 competes with the business of Gaussian, Inc. or will provide
 assistance to any competitor of Gaussian, Inc.  The licensee
 of this program is prohibited from giving any competitor of
 Gaussian, Inc. access to this program.  By using this program,
 the user acknowledges that Gaussian, Inc. is engaged in the
 business of creating and licensing software in the field of
 computational chemistry and represents and warrants to the
 licensee that it is not a competitor of Gaussian, Inc. and that
 it will not use this program in any manner prohibited above.
 ---------------------------------------------------------------
  

 Cite this work as:
 Gaussian 09, Revision B.01,
 M. J. Frisch, G. W. Trucks, H. B. Schlegel, G. E. Scuseria, 
 M. A. Robb, J. R. Cheeseman, G. Scalmani, V. Barone, B. Mennucci, 
 G. A. Petersson, H. Nakatsuji, M. Caricato, X. Li, H. P. Hratchian, 
 A. F. Izmaylov, J. Bloino, G. Zheng, J. L. Sonnenberg, M. Hada, 
 M. Ehara, K. Toyota, R. Fukuda, J. Hasegawa, M. Ishida, T. Nakajima, 
 Y. Honda, O. Kitao, H. Nakai, T. Vreven, J. A. Montgomery, Jr., 
 J. E. Peralta, F. Ogliaro, M. Bearpark, J. J. Heyd, E. Brothers, 
 K. N. Kudin, V. N. Staroverov, T. Keith, R. Kobayashi, J. Normand, 
 K. Raghavachari, A. Rendell, J. C. Burant, S. S. Iyengar, J. Tomasi, 
 M. Cossi, N. Rega, J. M. Millam, M. Klene, J. E. Knox, J. B. Cross, 
 V. Bakken, C. Adamo, J. Jaramillo, R. Gomperts, R. E. Stratmann, 
 O. Yazyev, A. J. Austin, R. Cammi, C. Pomelli, J. W. Ochterski, 
 R. L. Martin, K. Morokuma, V. G. Zakrzewski, G. A. Voth, 
 P. Salvador, J. J. Dannenberg, S. Dapprich, A. D. Daniels, 
 O. Farkas, J. B. Foresman, J. V. Ortiz, J. Cioslowski, 
 and D. J. Fox, Gaussian, Inc., Wallingford CT, 2010.
 
 ******************************************
 Gaussian 09:  EM64L-G09RevB.01 12-Aug-2010
                21-Mar-2015 
 ******************************************
 %chk=CY3.scan3.pos.chk
 %nproc=16
 Will use up to   16 processors via shared memory.
 %mem=32GB
 ------------------------------------------------------
 # opt=modredundant B3LYP/cc-pVDZ Geom=PrintInputOrient
 ------------------------------------------------------
 1/14=-1,18=120,19=15,26=3,38=1/1,3;
 2/9=2110,12=2,17=6,18=5,40=1/2;
 3/5=16,11=2,16=1,25=1,30=1,71=1,74=-5/1,2,3;
 4//1;
 5/5=2,38=5/2;
 6/7=2,8=2,9=2,10=2,28=1/1;
 7//1,2,3,16;
 1/14=-1,18=20,19=15/3(2);
 2/9=2110/2;
 99//99;
 2/9=2110/2;
 3/5=16,11=2,16=1,25=1,30=1,71=1,74=-5/1,2,3;
 4/5=5,16=3/1;
 5/5=2,38=5/2;
 7//1,2,3,16;
 1/14=-1,18=20,19=15/3(-5);
 2/9=2110/2;
 6/7=2,8=2,9=2,10=2,19=2,28=1/1;
 99/9=1/99;
 -------------------------------
 CY3 Dihedral Scan at MP2/6-31G*
 -------------------------------
 Symbolic Z-matrix:
 Charge =  0 Multiplicity = 1
 C1                    4.557     4.293    -0.053 
 C2                    3.164     4.229    -0.007 
 C3                    2.47      3.01     -0.128 
 C4                    3.164     1.824    -0.294 
 C5                    4.566     1.888    -0.326 
 C6                    5.26      3.095    -0.22 
 C7                    0.991     3.296    -0.058 
 C8                    0.943     4.804     0.118 
 N9                    2.235     5.273     0.142 
 C10                   2.575     6.677     0.295 
 C11                  -0.175     5.603     0.232 
 C12                  -2.637     5.869     0.314 
 C13                  -1.498     5.097     0.206 
 C14                  -5.214     7.474     0.515 
 N15                  -5.082     6.03      0.378 
 C16                  -3.943     5.326     0.287 
 C17                  -4.302     3.859     0.157 
 C18                  -5.808     3.863     0.192 
 C19                  -6.228     5.196     0.329 
 C20                  -7.574     5.561     0.413 
 C21                  -8.51      4.526     0.343 
 C22                  -8.105     3.19      0.188 
 C23                  -6.745     2.845     0.127 
 S24                  -9.37      1.861     0.023 
 S25                   5.494     0.374    -0.561 
 O26                   6.852     0.715    -1.014 
 O27                   5.582    -0.131     1.025 
 O28                   4.658    -0.621    -1.268 
 O29                  -9.58      1.849    -1.463 
 O30                  -8.666     0.657     0.576 
 O31                  -10.521    2.379     0.829 
 H32                   5.1       5.235     0.027 
 H33                   2.656     0.865    -0.411 
 H34                   6.349     3.092    -0.278 
 H35                   0.504     2.782     0.787 
 H36                   0.46      2.985    -0.972 
 H37                   3.664     6.792     0.322 
 H38                   2.179     7.268    -0.547 
 H39                   2.158     7.075     1.234 
 H40                  -0.044     6.681     0.348 
 H41                  -2.518     6.948     0.427 
 H42                  -1.621     4.016     0.093 
 H43                  -5.86      7.855    -0.29 
 H44                  -5.68      7.712     1.483 
 H45                  -4.237     7.963     0.451 
 H46                  -3.857     3.278     0.982 
 H47                  -3.899     3.445    -0.782 
 H48                  -7.89      6.598     0.537 
 H49                  -9.58      4.725     0.422 
 H50                  -6.481     1.789     0.045 
 H51                   5.43     -1.096     0.993 
 
 The following ModRedundant input section has been read:
 D       1       2       9       8 S   2 15.000                                

 GradGradGradGradGradGradGradGradGradGradGradGradGradGradGradGradGradGrad
 Berny optimization.
 Initialization pass.
                           ----------------------------
                           !    Initial Parameters    !
                           ! (Angstroms and Degrees)  !
 --------------------------                            --------------------------
 ! Name  Definition              Value          Derivative Info.                !
 --------------------------------------------------------------------------------
 ! R1    R(1,2)                  1.3952         estimate D2E/DX2                !
 ! R2    R(1,6)                  1.399          estimate D2E/DX2                !
 ! R3    R(1,32)                 1.0902         estimate D2E/DX2                !
 ! R4    R(2,3)                  1.4079         estimate D2E/DX2                !
 ! R5    R(2,9)                  1.4054         estimate D2E/DX2                !
 ! R6    R(3,4)                  1.3841         estimate D2E/DX2                !
 ! R7    R(3,7)                  1.508          estimate D2E/DX2                !
 ! R8    R(4,5)                  1.4038         estimate D2E/DX2                !
 ! R9    R(4,33)                 1.0915         estimate D2E/DX2                !
 ! R10   R(5,6)                  1.3963         estimate D2E/DX2                !
 ! R11   R(5,25)                 1.7913         estimate D2E/DX2                !
 ! R12   R(6,34)                 1.0905         estimate D2E/DX2                !
 ! R13   R(7,8)                  1.519          estimate D2E/DX2                !
 ! R14   R(7,35)                 1.1024         estimate D2E/DX2                !
 ! R15   R(7,36)                 1.1019         estimate D2E/DX2                !
 ! R16   R(8,9)                  1.3747         estimate D2E/DX2                !
 ! R17   R(8,11)                 1.3789         estimate D2E/DX2                !
 ! R18   R(9,10)                 1.4527         estimate D2E/DX2                !
 ! R19   R(10,37)                1.0954         estimate D2E/DX2                !
 ! R20   R(10,38)                1.1023         estimate D2E/DX2                !
 ! R21   R(10,39)                1.1018         estimate D2E/DX2                !
 ! R22   R(11,13)                1.4167         estimate D2E/DX2                !
 ! R23   R(11,40)                1.0921         estimate D2E/DX2                !
 ! R24   R(12,13)                1.3802         estimate D2E/DX2                !
 ! R25   R(12,16)                1.4146         estimate D2E/DX2                !
 ! R26   R(12,41)                1.0914         estimate D2E/DX2                !
 ! R27   R(13,42)                1.0938         estimate D2E/DX2                !
 ! R28   R(14,15)                1.4565         estimate D2E/DX2                !
 ! R29   R(14,43)                1.1002         estimate D2E/DX2                !
 ! R30   R(14,44)                1.1004         estimate D2E/DX2                !
 ! R31   R(14,45)                1.0944         estimate D2E/DX2                !
 ! R32   R(15,16)                1.3421         estimate D2E/DX2                !
 ! R33   R(15,19)                1.4182         estimate D2E/DX2                !
 ! R34   R(16,17)                1.5159         estimate D2E/DX2                !
 ! R35   R(17,18)                1.5064         estimate D2E/DX2                !
 ! R36   R(17,46)                1.1028         estimate D2E/DX2                !
 ! R37   R(17,47)                1.1025         estimate D2E/DX2                !
 ! R38   R(18,19)                1.4043         estimate D2E/DX2                !
 ! R39   R(18,23)                1.3851         estimate D2E/DX2                !
 ! R40   R(19,20)                1.3971         estimate D2E/DX2                !
 ! R41   R(20,21)                1.3972         estimate D2E/DX2                !
 ! R42   R(20,48)                1.0911         estimate D2E/DX2                !
 ! R43   R(21,22)                1.4046         estimate D2E/DX2                !
 ! R44   R(21,49)                1.0912         estimate D2E/DX2                !
 ! R45   R(22,23)                1.4044         estimate D2E/DX2                !
 ! R46   R(22,24)                1.8422         estimate D2E/DX2                !
 ! R47   R(23,50)                1.0916         estimate D2E/DX2                !
 ! R48   R(24,29)                1.5008         estimate D2E/DX2                !
 ! R49   R(24,30)                1.5003         estimate D2E/DX2                !
 ! R50   R(24,31)                1.4976         estimate D2E/DX2                !
 ! R51   R(25,26)                1.4716         estimate D2E/DX2                !
 ! R52   R(25,27)                1.6668         estimate D2E/DX2                !
 ! R53   R(25,28)                1.4794         estimate D2E/DX2                !
 ! R54   R(27,51)                0.9774         estimate D2E/DX2                !
 ! A1    A(2,1,6)              117.7971         estimate D2E/DX2                !
 ! A2    A(2,1,32)             122.3084         estimate D2E/DX2                !
 ! A3    A(6,1,32)             119.892          estimate D2E/DX2                !
 ! A4    A(1,2,3)              121.9393         estimate D2E/DX2                !
 ! A5    A(1,2,9)              129.0046         estimate D2E/DX2                !
 ! A6    A(3,2,9)              109.0532         estimate D2E/DX2                !
 ! A7    A(2,3,4)              120.3339         estimate D2E/DX2                !
 ! A8    A(2,3,7)              108.3756         estimate D2E/DX2                !
 ! A9    A(4,3,7)              131.2865         estimate D2E/DX2                !
 ! A10   A(3,4,5)              117.6727         estimate D2E/DX2                !
 ! A11   A(3,4,33)             122.1629         estimate D2E/DX2                !
 ! A12   A(5,4,33)             120.1595         estimate D2E/DX2                !
 ! A13   A(4,5,6)              122.2796         estimate D2E/DX2                !
 ! A14   A(4,5,25)             118.8067         estimate D2E/DX2                !
 ! A15   A(6,5,25)             118.8869         estimate D2E/DX2                !
 ! A16   A(1,6,5)              119.9679         estimate D2E/DX2                !
 ! A17   A(1,6,34)             120.6958         estimate D2E/DX2                !
 ! A18   A(5,6,34)             119.3339         estimate D2E/DX2                !
 ! A19   A(3,7,8)              102.9823         estimate D2E/DX2                !
 ! A20   A(3,7,35)             112.3584         estimate D2E/DX2                !
 ! A21   A(3,7,36)             112.3712         estimate D2E/DX2                !
 ! A22   A(8,7,35)             111.1059         estimate D2E/DX2                !
 ! A23   A(8,7,36)             111.1673         estimate D2E/DX2                !
 ! A24   A(35,7,36)            106.9371         estimate D2E/DX2                !
 ! A25   A(7,8,9)              108.1207         estimate D2E/DX2                !
 ! A26   A(7,8,11)             127.6228         estimate D2E/DX2                !
 ! A27   A(9,8,11)             124.256          estimate D2E/DX2                !
 ! A28   A(2,9,8)              111.4672         estimate D2E/DX2                !
 ! A29   A(2,9,10)             125.0585         estimate D2E/DX2                !
 ! A30   A(8,9,10)             123.4733         estimate D2E/DX2                !
 ! A31   A(9,10,37)            109.6792         estimate D2E/DX2                !
 ! A32   A(9,10,38)            110.7111         estimate D2E/DX2                !
 ! A33   A(9,10,39)            110.5055         estimate D2E/DX2                !
 ! A34   A(37,10,38)           108.6445         estimate D2E/DX2                !
 ! A35   A(37,10,39)           108.5014         estimate D2E/DX2                !
 ! A36   A(38,10,39)           108.7444         estimate D2E/DX2                !
 ! A37   A(8,11,13)            123.2775         estimate D2E/DX2                !
 ! A38   A(8,11,40)            118.9138         estimate D2E/DX2                !
 ! A39   A(13,11,40)           117.8087         estimate D2E/DX2                !
 ! A40   A(13,12,16)           123.0706         estimate D2E/DX2                !
 ! A41   A(13,12,41)           118.1058         estimate D2E/DX2                !
 ! A42   A(16,12,41)           118.8236         estimate D2E/DX2                !
 ! A43   A(11,13,12)           124.7115         estimate D2E/DX2                !
 ! A44   A(11,13,42)           117.3798         estimate D2E/DX2                !
 ! A45   A(12,13,42)           117.9087         estimate D2E/DX2                !
 ! A46   A(15,14,43)           109.1302         estimate D2E/DX2                !
 ! A47   A(15,14,44)           109.6069         estimate D2E/DX2                !
 ! A48   A(15,14,45)           110.8902         estimate D2E/DX2                !
 ! A49   A(43,14,44)           108.6686         estimate D2E/DX2                !
 ! A50   A(43,14,45)           109.0651         estimate D2E/DX2                !
 ! A51   A(44,14,45)           109.4424         estimate D2E/DX2                !
 ! A52   A(14,15,16)           127.1104         estimate D2E/DX2                !
 ! A53   A(14,15,19)           120.8671         estimate D2E/DX2                !
 ! A54   A(16,15,19)           112.0225         estimate D2E/DX2                !
 ! A55   A(12,16,15)           125.5108         estimate D2E/DX2                !
 ! A56   A(12,16,17)           126.2808         estimate D2E/DX2                !
 ! A57   A(15,16,17)           108.208          estimate D2E/DX2                !
 ! A58   A(16,17,18)           103.4266         estimate D2E/DX2                !
 ! A59   A(16,17,46)           110.4952         estimate D2E/DX2                !
 ! A60   A(16,17,47)           110.4796         estimate D2E/DX2                !
 ! A61   A(18,17,46)           112.794          estimate D2E/DX2                !
 ! A62   A(18,17,47)           112.7192         estimate D2E/DX2                !
 ! A63   A(46,17,47)           106.9665         estimate D2E/DX2                !
 ! A64   A(17,18,19)           107.6852         estimate D2E/DX2                !
 ! A65   A(17,18,23)           132.3188         estimate D2E/DX2                !
 ! A66   A(19,18,23)           119.9934         estimate D2E/DX2                !
 ! A67   A(15,19,18)           108.6572         estimate D2E/DX2                !
 ! A68   A(15,19,20)           128.5196         estimate D2E/DX2                !
 ! A69   A(18,19,20)           122.8188         estimate D2E/DX2                !
 ! A70   A(19,20,21)           116.6698         estimate D2E/DX2                !
 ! A71   A(19,20,48)           122.2842         estimate D2E/DX2                !
 ! A72   A(21,20,48)           121.0433         estimate D2E/DX2                !
 ! A73   A(20,21,22)           121.1274         estimate D2E/DX2                !
 ! A74   A(20,21,49)           121.2092         estimate D2E/DX2                !
 ! A75   A(22,21,49)           117.657          estimate D2E/DX2                !
 ! A76   A(21,22,23)           121.176          estimate D2E/DX2                !
 ! A77   A(21,22,24)           119.8723         estimate D2E/DX2                !
 ! A78   A(23,22,24)           118.9377         estimate D2E/DX2                !
 ! A79   A(18,23,22)           118.1972         estimate D2E/DX2                !
 ! A80   A(18,23,50)           123.4302         estimate D2E/DX2                !
 ! A81   A(22,23,50)           118.3668         estimate D2E/DX2                !
 ! A82   A(22,24,29)           100.984          estimate D2E/DX2                !
 ! A83   A(22,24,30)           102.9269         estimate D2E/DX2                !
 ! A84   A(22,24,31)           103.2985         estimate D2E/DX2                !
 ! A85   A(29,24,30)           115.099          estimate D2E/DX2                !
 ! A86   A(29,24,31)           115.3478         estimate D2E/DX2                !
 ! A87   A(30,24,31)           116.0932         estimate D2E/DX2                !
 ! A88   A(5,25,26)            108.8206         estimate D2E/DX2                !
 ! A89   A(5,25,27)             99.1257         estimate D2E/DX2                !
 ! A90   A(5,25,28)            109.779          estimate D2E/DX2                !
 ! A91   A(26,25,27)           108.3241         estimate D2E/DX2                !
 ! A92   A(26,25,28)           122.018          estimate D2E/DX2                !
 ! A93   A(27,25,28)           106.3071         estimate D2E/DX2                !
 ! A94   A(25,27,51)           105.0562         estimate D2E/DX2                !
 ! D1    D(6,1,2,3)             -0.2465         estimate D2E/DX2                !
 ! D2    D(6,1,2,9)           -179.5481         estimate D2E/DX2                !
 ! D3    D(32,1,2,3)           179.1829         estimate D2E/DX2                !
 ! D4    D(32,1,2,9)            -0.1187         estimate D2E/DX2                !
 ! D5    D(2,1,6,5)             -0.3958         estimate D2E/DX2                !
 ! D6    D(2,1,6,34)           179.0393         estimate D2E/DX2                !
 ! D7    D(32,1,6,5)          -179.8395         estimate D2E/DX2                !
 ! D8    D(32,1,6,34)           -0.4044         estimate D2E/DX2                !
 ! D9    D(1,2,3,4)              0.2172         estimate D2E/DX2                !
 ! D10   D(1,2,3,7)           -179.1361         estimate D2E/DX2                !
 ! D11   D(9,2,3,4)            179.643          estimate D2E/DX2                !
 ! D12   D(9,2,3,7)              0.2897         estimate D2E/DX2                !
 ! D13   D(1,2,9,8)            179.0184         Scan                            !
 ! D14   D(1,2,9,10)            -0.6249         estimate D2E/DX2                !
 ! D15   D(3,2,9,8)             -0.3546         estimate D2E/DX2                !
 ! D16   D(3,2,9,10)          -179.9979         estimate D2E/DX2                !
 ! D17   D(2,3,4,5)              0.4479         estimate D2E/DX2                !
 ! D18   D(2,3,4,33)          -178.7404         estimate D2E/DX2                !
 ! D19   D(7,3,4,5)            179.6312         estimate D2E/DX2                !
 ! D20   D(7,3,4,33)             0.4429         estimate D2E/DX2                !
 ! D21   D(2,3,7,8)             -0.1283         estimate D2E/DX2                !
 ! D22   D(2,3,7,35)          -119.7588         estimate D2E/DX2                !
 ! D23   D(2,3,7,36)           119.5818         estimate D2E/DX2                !
 ! D24   D(4,3,7,8)           -179.3856         estimate D2E/DX2                !
 ! D25   D(4,3,7,35)            60.9839         estimate D2E/DX2                !
 ! D26   D(4,3,7,36)           -59.6755         estimate D2E/DX2                !
 ! D27   D(3,4,5,6)             -1.1121         estimate D2E/DX2                !
 ! D28   D(3,4,5,25)          -179.2071         estimate D2E/DX2                !
 ! D29   D(33,4,5,6)           178.0932         estimate D2E/DX2                !
 ! D30   D(33,4,5,25)           -0.0018         estimate D2E/DX2                !
 ! D31   D(4,5,6,1)              1.1017         estimate D2E/DX2                !
 ! D32   D(4,5,6,34)          -178.3411         estimate D2E/DX2                !
 ! D33   D(25,5,6,1)           179.1952         estimate D2E/DX2                !
 ! D34   D(25,5,6,34)           -0.2477         estimate D2E/DX2                !
 ! D35   D(4,5,25,26)          160.897          estimate D2E/DX2                !
 ! D36   D(4,5,25,27)          -86.0765         estimate D2E/DX2                !
 ! D37   D(4,5,25,28)           25.0224         estimate D2E/DX2                !
 ! D38   D(6,5,25,26)          -17.2635         estimate D2E/DX2                !
 ! D39   D(6,5,25,27)           95.763          estimate D2E/DX2                !
 ! D40   D(6,5,25,28)         -153.1381         estimate D2E/DX2                !
 ! D41   D(3,7,8,9)             -0.0794         estimate D2E/DX2                !
 ! D42   D(3,7,8,11)           179.6628         estimate D2E/DX2                !
 ! D43   D(35,7,8,9)           120.4136         estimate D2E/DX2                !
 ! D44   D(35,7,8,11)          -59.8441         estimate D2E/DX2                !
 ! D45   D(36,7,8,9)          -120.6181         estimate D2E/DX2                !
 ! D46   D(36,7,8,11)           59.1241         estimate D2E/DX2                !
 ! D47   D(7,8,9,2)              0.2648         estimate D2E/DX2                !
 ! D48   D(7,8,9,10)           179.9148         estimate D2E/DX2                !
 ! D49   D(11,8,9,2)          -179.4882         estimate D2E/DX2                !
 ! D50   D(11,8,9,10)            0.1618         estimate D2E/DX2                !
 ! D51   D(7,8,11,13)            0.3664         estimate D2E/DX2                !
 ! D52   D(7,8,11,40)         -179.6027         estimate D2E/DX2                !
 ! D53   D(9,8,11,13)         -179.93           estimate D2E/DX2                !
 ! D54   D(9,8,11,40)            0.1009         estimate D2E/DX2                !
 ! D55   D(2,9,10,37)           -2.5436         estimate D2E/DX2                !
 ! D56   D(2,9,10,38)          117.3376         estimate D2E/DX2                !
 ! D57   D(2,9,10,39)         -122.1188         estimate D2E/DX2                !
 ! D58   D(8,9,10,37)          177.8543         estimate D2E/DX2                !
 ! D59   D(8,9,10,38)          -62.2645         estimate D2E/DX2                !
 ! D60   D(8,9,10,39)           58.2791         estimate D2E/DX2                !
 ! D61   D(8,11,13,12)        -179.8251         estimate D2E/DX2                !
 ! D62   D(8,11,13,42)           0.2365         estimate D2E/DX2                !
 ! D63   D(40,11,13,12)          0.1442         estimate D2E/DX2                !
 ! D64   D(40,11,13,42)       -179.7942         estimate D2E/DX2                !
 ! D65   D(16,12,13,11)       -179.8385         estimate D2E/DX2                !
 ! D66   D(16,12,13,42)          0.0996         estimate D2E/DX2                !
 ! D67   D(41,12,13,11)          0.0545         estimate D2E/DX2                !
 ! D68   D(41,12,13,42)        179.9926         estimate D2E/DX2                !
 ! D69   D(13,12,16,15)       -179.488          estimate D2E/DX2                !
 ! D70   D(13,12,16,17)          0.7735         estimate D2E/DX2                !
 ! D71   D(41,12,16,15)          0.6197         estimate D2E/DX2                !
 ! D72   D(41,12,16,17)       -179.1188         estimate D2E/DX2                !
 ! D73   D(43,14,15,16)        125.0424         estimate D2E/DX2                !
 ! D74   D(43,14,15,19)        -55.0791         estimate D2E/DX2                !
 ! D75   D(44,14,15,16)       -116.0616         estimate D2E/DX2                !
 ! D76   D(44,14,15,19)         63.8169         estimate D2E/DX2                !
 ! D77   D(45,14,15,16)          4.8801         estimate D2E/DX2                !
 ! D78   D(45,14,15,19)       -175.2414         estimate D2E/DX2                !
 ! D79   D(14,15,16,12)          0.2982         estimate D2E/DX2                !
 ! D80   D(14,15,16,17)       -179.9237         estimate D2E/DX2                !
 ! D81   D(19,15,16,12)       -179.5893         estimate D2E/DX2                !
 ! D82   D(19,15,16,17)          0.1888         estimate D2E/DX2                !
 ! D83   D(14,15,19,18)        179.8636         estimate D2E/DX2                !
 ! D84   D(14,15,19,20)         -0.8879         estimate D2E/DX2                !
 ! D85   D(16,15,19,18)         -0.241          estimate D2E/DX2                !
 ! D86   D(16,15,19,20)        179.0076         estimate D2E/DX2                !
 ! D87   D(12,16,17,18)        179.7074         estimate D2E/DX2                !
 ! D88   D(12,16,17,46)         58.7464         estimate D2E/DX2                !
 ! D89   D(12,16,17,47)        -59.4277         estimate D2E/DX2                !
 ! D90   D(15,16,17,18)         -0.0685         estimate D2E/DX2                !
 ! D91   D(15,16,17,46)       -121.0295         estimate D2E/DX2                !
 ! D92   D(15,16,17,47)        120.7964         estimate D2E/DX2                !
 ! D93   D(16,17,18,19)         -0.0733         estimate D2E/DX2                !
 ! D94   D(16,17,18,23)       -179.4767         estimate D2E/DX2                !
 ! D95   D(46,17,18,19)        119.3187         estimate D2E/DX2                !
 ! D96   D(46,17,18,23)        -60.0848         estimate D2E/DX2                !
 ! D97   D(47,17,18,19)       -119.4085         estimate D2E/DX2                !
 ! D98   D(47,17,18,23)         61.1881         estimate D2E/DX2                !
 ! D99   D(17,18,19,15)          0.1838         estimate D2E/DX2                !
 ! D100  D(17,18,19,20)       -179.1166         estimate D2E/DX2                !
 ! D101  D(23,18,19,15)        179.6746         estimate D2E/DX2                !
 ! D102  D(23,18,19,20)          0.3742         estimate D2E/DX2                !
 ! D103  D(17,18,23,22)        179.9832         estimate D2E/DX2                !
 ! D104  D(17,18,23,50)          0.8691         estimate D2E/DX2                !
 ! D105  D(19,18,23,22)          0.6395         estimate D2E/DX2                !
 ! D106  D(19,18,23,50)       -178.4747         estimate D2E/DX2                !
 ! D107  D(15,19,20,21)       -179.6684         estimate D2E/DX2                !
 ! D108  D(15,19,20,48)         -0.2548         estimate D2E/DX2                !
 ! D109  D(18,19,20,21)         -0.5156         estimate D2E/DX2                !
 ! D110  D(18,19,20,48)        178.898          estimate D2E/DX2                !
 ! D111  D(19,20,21,22)         -0.358          estimate D2E/DX2                !
 ! D112  D(19,20,21,49)        178.6991         estimate D2E/DX2                !
 ! D113  D(48,20,21,22)       -179.7793         estimate D2E/DX2                !
 ! D114  D(48,20,21,49)         -0.7222         estimate D2E/DX2                !
 ! D115  D(20,21,22,23)          1.3902         estimate D2E/DX2                !
 ! D116  D(20,21,22,24)       -177.2311         estimate D2E/DX2                !
 ! D117  D(49,21,22,23)       -177.6993         estimate D2E/DX2                !
 ! D118  D(49,21,22,24)          3.6794         estimate D2E/DX2                !
 ! D119  D(21,22,23,18)         -1.5066         estimate D2E/DX2                !
 ! D120  D(21,22,23,50)        177.6532         estimate D2E/DX2                !
 ! D121  D(24,22,23,18)        177.1273         estimate D2E/DX2                !
 ! D122  D(24,22,23,50)         -3.7129         estimate D2E/DX2                !
 ! D123  D(21,22,24,29)         88.7629         estimate D2E/DX2                !
 ! D124  D(21,22,24,30)       -152.0356         estimate D2E/DX2                !
 ! D125  D(21,22,24,31)        -30.8404         estimate D2E/DX2                !
 ! D126  D(23,22,24,29)        -89.8892         estimate D2E/DX2                !
 ! D127  D(23,22,24,30)         29.3123         estimate D2E/DX2                !
 ! D128  D(23,22,24,31)        150.5074         estimate D2E/DX2                !
 ! D129  D(5,25,27,51)         138.7649         estimate D2E/DX2                !
 ! D130  D(26,25,27,51)       -107.8197         estimate D2E/DX2                !
 ! D131  D(28,25,27,51)         24.9308         estimate D2E/DX2                !
 --------------------------------------------------------------------------------
 Trust Radius=3.00D-01 FncErr=1.00D-07 GrdErr=1.00D-06
 Number of optimizations in scan=   3
 Number of steps in this run=    289 maximum allowed number of steps=    306.
 GradGradGradGradGradGradGradGradGradGradGradGradGradGradGradGradGradGrad

                          Input orientation:                          
 ---------------------------------------------------------------------
 Center     Atomic      Atomic             Coordinates (Angstroms)
 Number     Number       Type             X           Y           Z
 ---------------------------------------------------------------------
      1          6           0        4.557000    4.293000   -0.053000
      2          6           0        3.164000    4.229000   -0.007000
      3          6           0        2.470000    3.010000   -0.128000
      4          6           0        3.164000    1.824000   -0.294000
      5          6           0        4.566000    1.888000   -0.326000
      6          6           0        5.260000    3.095000   -0.220000
      7          6           0        0.991000    3.296000   -0.058000
      8          6           0        0.943000    4.804000    0.118000
      9          7           0        2.235000    5.273000    0.142000
     10          6           0        2.575000    6.677000    0.295000
     11          6           0       -0.175000    5.603000    0.232000
     12          6           0       -2.637000    5.869000    0.314000
     13          6           0       -1.498000    5.097000    0.206000
     14          6           0       -5.214000    7.474000    0.515000
     15          7           0       -5.082000    6.030000    0.378000
     16          6           0       -3.943000    5.326000    0.287000
     17          6           0       -4.302000    3.859000    0.157000
     18          6           0       -5.808000    3.863000    0.192000
     19          6           0       -6.228000    5.196000    0.329000
     20          6           0       -7.574000    5.561000    0.413000
     21          6           0       -8.510000    4.526000    0.343000
     22          6           0       -8.105000    3.190000    0.188000
     23          6           0       -6.745000    2.845000    0.127000
     24         16           0       -9.370000    1.861000    0.023000
     25         16           0        5.494000    0.374000   -0.561000
     26          8           0        6.852000    0.715000   -1.014000
     27          8           0        5.582000   -0.131000    1.025000
     28          8           0        4.658000   -0.621000   -1.268000
     29          8           0       -9.580000    1.849000   -1.463000
     30          8           0       -8.666000    0.657000    0.576000
     31          8           0      -10.521000    2.379000    0.829000
     32          1           0        5.100000    5.235000    0.027000
     33          1           0        2.656000    0.865000   -0.411000
     34          1           0        6.349000    3.092000   -0.278000
     35          1           0        0.504000    2.782000    0.787000
     36          1           0        0.460000    2.985000   -0.972000
     37          1           0        3.664000    6.792000    0.322000
     38          1           0        2.179000    7.268000   -0.547000
     39          1           0        2.158000    7.075000    1.234000
     40          1           0       -0.044000    6.681000    0.348000
     41          1           0       -2.518000    6.948000    0.427000
     42          1           0       -1.621000    4.016000    0.093000
     43          1           0       -5.860000    7.855000   -0.290000
     44          1           0       -5.680000    7.712000    1.483000
     45          1           0       -4.237000    7.963000    0.451000
     46          1           0       -3.857000    3.278000    0.982000
     47          1           0       -3.899000    3.445000   -0.782000
     48          1           0       -7.890000    6.598000    0.537000
     49          1           0       -9.580000    4.725000    0.422000
     50          1           0       -6.481000    1.789000    0.045000
     51          1           0        5.430000   -1.096000    0.993000
 ---------------------------------------------------------------------
 Stoichiometry    C21H20N2O6S2
 Framework group  C1[X(C21H20N2O6S2)]
 Deg. of freedom   147
 Full point group                 C1      NOp   1
 Largest Abelian subgroup         C1      NOp   1
 Largest concise Abelian subgroup C1      NOp   1
                         Standard orientation:                         
 ---------------------------------------------------------------------
 Center     Atomic      Atomic             Coordinates (Angstroms)
 Number     Number       Type             X           Y           Z
 ---------------------------------------------------------------------
      1          6           0        6.069464    1.632461   -0.034341
      2          6           0        4.690695    1.419858   -0.012980
      3          6           0        4.136352    0.125718   -0.024938
      4          6           0        4.959115   -0.986933   -0.054226
      5          6           0        6.346363   -0.771958   -0.061463
      6          6           0        6.902495    0.508837   -0.063205
      7          6           0        2.633656    0.252129   -0.017153
      8          6           0        2.417785    1.755561    0.003710
      9          7           0        3.650278    2.364445    0.008607
     10          6           0        3.831897    3.805607    0.025758
     11          6           0        1.217107    2.433526    0.011172
     12          6           0       -1.260579    2.432780    0.011127
     13          6           0       -0.042139    1.784429    0.007355
     14          6           0       -4.000625    3.755313   -0.009074
     15          7           0       -3.709471    2.328295    0.004217
     16          6           0       -2.498916    1.748869    0.010449
     17          6           0       -2.693394    0.245569    0.022149
     18          6           0       -4.191400    0.086655    0.023159
     19          6           0       -4.756771    1.372090    0.014753
     20          6           0       -6.136282    1.592698    0.031391
     21          6           0       -6.952583    0.458830    0.046107
     22          6           0       -6.401197   -0.833001    0.036583
     23          6           0       -5.010690   -1.030018    0.041100
     24         16           0       -7.509606   -2.303324   -0.020630
     25         16           0        7.439234   -2.189952   -0.120884
     26          8           0        8.766896   -1.747357   -0.575943
     27          8           0        7.528473   -2.523444    1.509756
     28          8           0        6.739103   -3.335964   -0.741562
     29          8           0       -7.667726   -2.484762   -1.502020
     30          8           0       -6.698800   -3.361847    0.667239
     31          8           0       -8.735759   -1.838744    0.702886
     32          1           0        6.504947    2.631936   -0.038383
     33          1           0        4.561466   -2.003001   -0.084481
     34          1           0        7.986809    0.620422   -0.096439
     35          1           0        2.177083   -0.226757    0.864663
     36          1           0        2.169809   -0.204122   -0.906399
     37          1           0        4.900691    4.042265    0.065082
     38          1           0        3.402700    4.263425   -0.880473
     39          1           0        3.343582    4.245669    0.910014
     40          1           0        1.227377    3.525551    0.019991
     41          1           0       -1.262240    3.524173    0.016593
     42          1           0       -0.044237    0.690616    0.002003
     43          1           0       -4.656849    3.981480   -0.862725
     44          1           0       -4.521363    4.034582    0.919185
     45          1           0       -3.080364    4.340521   -0.100715
     46          1           0       -2.216022   -0.198623    0.911543
     47          1           0       -2.217268   -0.211863   -0.860793
     48          1           0       -6.566018    2.595598    0.042417
     49          1           0       -8.039815    0.545254    0.080747
     50          1           0       -4.631970   -2.053313    0.072623
     51          1           0        7.482388   -3.497758    1.572543
 ---------------------------------------------------------------------
 Rotational constants (GHZ):      0.2331788      0.0325428      0.0289211
 Standard basis: CC-pVDZ (5D, 7F)
 There are   542 symmetry adapted basis functions of A   symmetry.
 Integral buffers will be    131072 words long.
 Raffenetti 2 integral format.
 Two-electron integral symmetry is turned on.
   542 basis functions,  1239 primitive gaussians,   573 cartesian basis functions
   120 alpha electrons      120 beta electrons
       nuclear repulsion energy      3069.6289782520 Hartrees.
 NAtoms=   51 NActive=   51 NUniq=   51 SFac= 1.00D+00 NAtFMM=   50 NAOKFM=T Big=T
 One-electron integrals computed using PRISM.
 NBasis=   542 RedAO= T  NBF=   542
 NBsUse=   542 1.00D-06 NBFU=   542
 Harris functional with IExCor=  402 diagonalized for initial guess.
 ExpMin= 1.22D-01 ExpMax= 1.11D+05 ExpMxC= 1.07D+03 IAcc=2 IRadAn=         0 AccDes= 0.00D+00
 HarFok:  IExCor=  402 AccDes= 0.00D+00 IRadAn=         0 IDoV= 1
 ScaDFX=  1.000000  1.000000  1.000000  1.000000
 FoFCou: FMM=F IPFlag=           0 FMFlag=      100000 FMFlg1=        2001
         NFxFlg=           0 DoJE=T BraDBF=F KetDBF=T FulRan=T
         Omega=  0.000000  0.000000  1.000000  0.000000  0.000000 ICntrl=     500 IOpCl=  0
         NMat0=    1 NMatS0=    1 NMatT0=    0 NMatD0=    1 NMtDS0=    0 NMtDT0=    0
         I1Cent=           4 NGrid=           0.
 Petite list used in FoFCou.
 Initial guess orbital symmetries:
       Occupied  (A) (A) (A) (A) (A) (A) (A) (A) (A) (A) (A) (A)
                 (A) (A) (A) (A) (A) (A) (A) (A) (A) (A) (A) (A)
                 (A) (A) (A) (A) (A) (A) (A) (A) (A) (A) (A) (A)
                 (A) (A) (A) (A) (A) (A) (A) (A) (A) (A) (A) (A)
                 (A) (A) (A) (A) (A) (A) (A) (A) (A) (A) (A) (A)
                 (A) (A) (A) (A) (A) (A) (A) (A) (A) (A) (A) (A)
                 (A) (A) (A) (A) (A) (A) (A) (A) (A) (A) (A) (A)
                 (A) (A) (A) (A) (A) (A) (A) (A) (A) (A) (A) (A)
                 (A) (A) (A) (A) (A) (A) (A) (A) (A) (A) (A) (A)
                 (A) (A) (A) (A) (A) (A) (A) (A) (A) (A) (A) (A)
       Virtual   (A) (A) (A) (A) (A) (A) (A) (A) (A) (A) (A) (A)
                 (A) (A) (A) (A) (A) (A) (A) (A) (A) (A) (A) (A)
                 (A) (A) (A) (A) (A) (A) (A) (A) (A) (A) (A) (A)
                 (A) (A) (A) (A) (A) (A) (A) (A) (A) (A) (A) (A)
                 (A) (A) (A) (A) (A) (A) (A) (A) (A) (A) (A) (A)
                 (A) (A) (A) (A) (A) (A) (A) (A) (A) (A) (A) (A)
                 (A) (A) (A) (A) (A) (A) (A) (A) (A) (A) (A) (A)
                 (A) (A) (A) (A) (A) (A) (A) (A) (A) (A) (A) (A)
                 (A) (A) (A) (A) (A) (A) (A) (A) (A) (A) (A) (A)
                 (A) (A) (A) (A) (A) (A) (A) (A) (A) (A) (A) (A)
                 (A) (A) (A) (A) (A) (A) (A) (A) (A) (A) (A) (A)
                 (A) (A) (A) (A) (A) (A) (A) (A) (A) (A) (A) (A)
                 (A) (A) (A) (A) (A) (A) (A) (A) (A) (A) (A) (A)
                 (A) (A) (A) (A) (A) (A) (A) (A) (A) (A) (A) (A)
                 (A) (A) (A) (A) (A) (A) (A) (A) (A) (A) (A) (A)
                 (A) (A) (A) (A) (A) (A) (A) (A) (A) (A) (A) (A)
                 (A) (A) (A) (A) (A) (A) (A) (A) (A) (A) (A) (A)
                 (A) (A) (A) (A) (A) (A) (A) (A) (A) (A) (A) (A)
                 (A) (A) (A) (A) (A) (A) (A) (A) (A) (A) (A) (A)
                 (A) (A) (A) (A) (A) (A) (A) (A) (A) (A) (A) (A)
                 (A) (A) (A) (A) (A) (A) (A) (A) (A) (A) (A) (A)
                 (A) (A) (A) (A) (A) (A) (A) (A) (A) (A) (A) (A)
                 (A) (A) (A) (A) (A) (A) (A) (A) (A) (A) (A) (A)
                 (A) (A) (A) (A) (A) (A) (A) (A) (A) (A) (A) (A)
                 (A) (A) (A) (A) (A) (A) (A) (A) (A) (A) (A) (A)
                 (A) (A) (A) (A) (A) (A) (A) (A) (A) (A) (A) (A)
                 (A) (A) (A) (A) (A) (A) (A) (A) (A) (A) (A) (A)
                 (A) (A) (A) (A) (A) (A) (A) (A) (A) (A) (A) (A)
                 (A) (A) (A) (A) (A) (A) (A) (A) (A) (A) (A) (A)
                 (A) (A) (A) (A) (A) (A) (A) (A) (A) (A) (A) (A)
                 (A) (A) (A) (A) (A) (A) (A) (A) (A) (A) (A) (A)
                 (A) (A) (A) (A) (A) (A) (A) (A) (A) (A) (A) (A)
                 (A) (A) (A) (A) (A) (A) (A) (A) (A) (A) (A) (A)
                 (A) (A) (A) (A) (A) (A) (A) (A) (A) (A) (A) (A)
                 (A) (A) (A) (A) (A) (A) (A) (A) (A) (A) (A) (A)
                 (A) (A)
 The electronic state of the initial guess is 1-A.
 Requested convergence on RMS density matrix=1.00D-08 within 128 cycles.
 Requested convergence on MAX density matrix=1.00D-06.
 Requested convergence on             energy=1.00D-06.
 No special actions if energy rises.
 Integral accuracy reduced to 1.0D-05 until final iterations.
 EnCoef did     3 forward-backward iterations
 EnCoef did     1 forward-backward iterations
 Problem detected with inexpensive integrals.
 Switching to full accuracy and repeating last cycle.
 EnCoef did     3 forward-backward iterations
 EnCoef did     3 forward-backward iterations
 EnCoef did     2 forward-backward iterations
 EnCoef did     4 forward-backward iterations
 EnCoef did     1 forward-backward iterations
 EnCoef did     1 forward-backward iterations
 EnCoef did     2 forward-backward iterations
 Restarting incremental Fock formation.
 SCF Done:  E(RB3LYP) =  -2169.39489223     A.U. after   31 cycles
             Convg  =    0.9704D-08             -V/T =  2.0051

 **********************************************************************

            Population analysis using the SCF density.

 **********************************************************************

 Orbital symmetries:
       Occupied  (A) (A) (A) (A) (A) (A) (A) (A) (A) (A) (A) (A)
                 (A) (A) (A) (A) (A) (A) (A) (A) (A) (A) (A) (A)
                 (A) (A) (A) (A) (A) (A) (A) (A) (A) (A) (A) (A)
                 (A) (A) (A) (A) (A) (A) (A) (A) (A) (A) (A) (A)
                 (A) (A) (A) (A) (A) (A) (A) (A) (A) (A) (A) (A)
                 (A) (A) (A) (A) (A) (A) (A) (A) (A) (A) (A) (A)
                 (A) (A) (A) (A) (A) (A) (A) (A) (A) (A) (A) (A)
                 (A) (A) (A) (A) (A) (A) (A) (A) (A) (A) (A) (A)
                 (A) (A) (A) (A) (A) (A) (A) (A) (A) (A) (A) (A)
                 (A) (A) (A) (A) (A) (A) (A) (A) (A) (A) (A) (A)
       Virtual   (A) (A) (A) (A) (A) (A) (A) (A) (A) (A) (A) (A)
                 (A) (A) (A) (A) (A) (A) (A) (A) (A) (A) (A) (A)
                 (A) (A) (A) (A) (A) (A) (A) (A) (A) (A) (A) (A)
                 (A) (A) (A) (A) (A) (A) (A) (A) (A) (A) (A) (A)
                 (A) (A) (A) (A) (A) (A) (A) (A) (A) (A) (A) (A)
                 (A) (A) (A) (A) (A) (A) (A) (A) (A) (A) (A) (A)
                 (A) (A) (A) (A) (A) (A) (A) (A) (A) (A) (A) (A)
                 (A) (A) (A) (A) (A) (A) (A) (A) (A) (A) (A) (A)
                 (A) (A) (A) (A) (A) (A) (A) (A) (A) (A) (A) (A)
                 (A) (A) (A) (A) (A) (A) (A) (A) (A) (A) (A) (A)
                 (A) (A) (A) (A) (A) (A) (A) (A) (A) (A) (A) (A)
                 (A) (A) (A) (A) (A) (A) (A) (A) (A) (A) (A) (A)
                 (A) (A) (A) (A) (A) (A) (A) (A) (A) (A) (A) (A)
                 (A) (A) (A) (A) (A) (A) (A) (A) (A) (A) (A) (A)
                 (A) (A) (A) (A) (A) (A) (A) (A) (A) (A) (A) (A)
                 (A) (A) (A) (A) (A) (A) (A) (A) (A) (A) (A) (A)
                 (A) (A) (A) (A) (A) (A) (A) (A) (A) (A) (A) (A)
                 (A) (A) (A) (A) (A) (A) (A) (A) (A) (A) (A) (A)
                 (A) (A) (A) (A) (A) (A) (A) (A) (A) (A) (A) (A)
                 (A) (A) (A) (A) (A) (A) (A) (A) (A) (A) (A) (A)
                 (A) (A) (A) (A) (A) (A) (A) (A) (A) (A) (A) (A)
                 (A) (A) (A) (A) (A) (A) (A) (A) (A) (A) (A) (A)
                 (A) (A) (A) (A) (A) (A) (A) (A) (A) (A) (A) (A)
                 (A) (A) (A) (A) (A) (A) (A) (A) (A) (A) (A) (A)
                 (A) (A) (A) (A) (A) (A) (A) (A) (A) (A) (A) (A)
                 (A) (A) (A) (A) (A) (A) (A) (A) (A) (A) (A) (A)
                 (A) (A) (A) (A) (A) (A) (A) (A) (A) (A) (A) (A)
                 (A) (A) (A) (A) (A) (A) (A) (A) (A) (A) (A) (A)
                 (A) (A) (A) (A) (A) (A) (A) (A) (A) (A) (A) (A)
                 (A) (A) (A) (A) (A) (A) (A) (A) (A) (A) (A) (A)
                 (A) (A) (A) (A) (A) (A) (A) (A) (A) (A) (A) (A)
                 (A) (A) (A) (A) (A) (A) (A) (A) (A) (A) (A) (A)
                 (A) (A) (A) (A) (A) (A) (A) (A) (A) (A) (A) (A)
                 (A) (A) (A) (A) (A) (A) (A) (A) (A) (A) (A) (A)
                 (A) (A) (A) (A) (A) (A) (A) (A) (A) (A) (A) (A)
                 (A) (A)
 The electronic state is 1-A.
 Alpha  occ. eigenvalues --  -89.15009 -89.01648 -19.21157 -19.16739 -19.16641
 Alpha  occ. eigenvalues --  -19.02716 -19.02699 -19.02612 -14.45967 -14.45126
 Alpha  occ. eigenvalues --  -10.31068 -10.31058 -10.29705 -10.29277 -10.28627
 Alpha  occ. eigenvalues --  -10.27007 -10.26949 -10.26627 -10.25996 -10.25860
 Alpha  occ. eigenvalues --  -10.25684 -10.25518 -10.25196 -10.25123 -10.25018
 Alpha  occ. eigenvalues --  -10.24624 -10.21965 -10.21301 -10.19467 -10.19225
 Alpha  occ. eigenvalues --  -10.18769  -8.18169  -8.04483  -6.14592  -6.14438
 Alpha  occ. eigenvalues --   -6.14298  -6.00813  -6.00787  -6.00778  -1.15835
 Alpha  occ. eigenvalues --   -1.05974  -1.05667  -1.05299  -1.03143  -1.01536
 Alpha  occ. eigenvalues --   -0.92341  -0.88841  -0.88293  -0.88006  -0.87772
 Alpha  occ. eigenvalues --   -0.86868  -0.84788  -0.82738  -0.80986  -0.78241
 Alpha  occ. eigenvalues --   -0.77242  -0.76538  -0.74940  -0.73574  -0.71624
 Alpha  occ. eigenvalues --   -0.68304  -0.66417  -0.65105  -0.63107  -0.62352
 Alpha  occ. eigenvalues --   -0.60846  -0.60065  -0.58692  -0.57267  -0.56788
 Alpha  occ. eigenvalues --   -0.54819  -0.54506  -0.54173  -0.53997  -0.53337
 Alpha  occ. eigenvalues --   -0.52156  -0.51450  -0.50935  -0.49797  -0.49115
 Alpha  occ. eigenvalues --   -0.48644  -0.48484  -0.48274  -0.47516  -0.47144
 Alpha  occ. eigenvalues --   -0.46689  -0.46094  -0.45509  -0.45293  -0.44507
 Alpha  occ. eigenvalues --   -0.44041  -0.43522  -0.43389  -0.42085  -0.41377
 Alpha  occ. eigenvalues --   -0.41019  -0.40669  -0.40468  -0.39148  -0.38453
 Alpha  occ. eigenvalues --   -0.38210  -0.36694  -0.36243  -0.36207  -0.35338
 Alpha  occ. eigenvalues --   -0.34652  -0.34217  -0.34167  -0.32180  -0.31438
 Alpha  occ. eigenvalues --   -0.31198  -0.27317  -0.26594  -0.24203  -0.23582
 Alpha  occ. eigenvalues --   -0.23478  -0.20785  -0.20534  -0.19577  -0.16421
 Alpha virt. eigenvalues --   -0.13741  -0.07410  -0.07277  -0.03796  -0.01891
 Alpha virt. eigenvalues --   -0.00188  -0.00105   0.00488   0.01066   0.01475
 Alpha virt. eigenvalues --    0.02521   0.03213   0.03886   0.04379   0.05129
 Alpha virt. eigenvalues --    0.05608   0.06287   0.06471   0.07479   0.07573
 Alpha virt. eigenvalues --    0.07940   0.08092   0.08173   0.08572   0.09280
 Alpha virt. eigenvalues --    0.09496   0.09999   0.10325   0.10843   0.11331
 Alpha virt. eigenvalues --    0.12483   0.12813   0.13209   0.14245   0.14934
 Alpha virt. eigenvalues --    0.15220   0.16273   0.17059   0.17253   0.18550
 Alpha virt. eigenvalues --    0.19019   0.19421   0.20793   0.22494   0.23521
 Alpha virt. eigenvalues --    0.25021   0.25759   0.26104   0.27482   0.27906
 Alpha virt. eigenvalues --    0.28759   0.29651   0.30016   0.30345   0.32760
 Alpha virt. eigenvalues --    0.34051   0.34165   0.34604   0.34720   0.35260
 Alpha virt. eigenvalues --    0.35595   0.37194   0.38134   0.38989   0.39592
 Alpha virt. eigenvalues --    0.39786   0.40530   0.40850   0.41119   0.41925
 Alpha virt. eigenvalues --    0.42213   0.42414   0.42935   0.43139   0.43482
 Alpha virt. eigenvalues --    0.43622   0.44555   0.45057   0.45391   0.46438
 Alpha virt. eigenvalues --    0.46669   0.46759   0.47151   0.47720   0.47944
 Alpha virt. eigenvalues --    0.48036   0.48710   0.49193   0.49249   0.49720
 Alpha virt. eigenvalues --    0.49878   0.51195   0.51657   0.51816   0.52233
 Alpha virt. eigenvalues --    0.52655   0.52906   0.53505   0.54300   0.54714
 Alpha virt. eigenvalues --    0.55076   0.55728   0.56200   0.56560   0.56776
 Alpha virt. eigenvalues --    0.56901   0.57397   0.57842   0.58170   0.58700
 Alpha virt. eigenvalues --    0.59071   0.59441   0.60041   0.60448   0.61050
 Alpha virt. eigenvalues --    0.61391   0.61897   0.62424   0.62962   0.63138
 Alpha virt. eigenvalues --    0.63333   0.63912   0.64409   0.65240   0.65963
 Alpha virt. eigenvalues --    0.66261   0.66629   0.66995   0.67147   0.68364
 Alpha virt. eigenvalues --    0.68479   0.69438   0.69709   0.70142   0.71014
 Alpha virt. eigenvalues --    0.72581   0.73133   0.74256   0.74915   0.76429
 Alpha virt. eigenvalues --    0.77385   0.78147   0.78393   0.78579   0.80585
 Alpha virt. eigenvalues --    0.80954   0.81598   0.82110   0.83445   0.83757
 Alpha virt. eigenvalues --    0.83948   0.84690   0.85063   0.85586   0.85893
 Alpha virt. eigenvalues --    0.87277   0.87886   0.88003   0.88124   0.88750
 Alpha virt. eigenvalues --    0.89439   0.90433   0.90724   0.91275   0.91539
 Alpha virt. eigenvalues --    0.92132   0.92567   0.93114   0.94231   0.94341
 Alpha virt. eigenvalues --    0.94934   0.95481   0.95951   0.96766   0.97328
 Alpha virt. eigenvalues --    0.97823   0.98394   0.98755   0.99214   0.99794
 Alpha virt. eigenvalues --    1.00647   1.00971   1.02115   1.03427   1.03770
 Alpha virt. eigenvalues --    1.04931   1.05180   1.05715   1.07125   1.07629
 Alpha virt. eigenvalues --    1.08241   1.08704   1.10330   1.11086   1.11616
 Alpha virt. eigenvalues --    1.11841   1.13415   1.13720   1.14475   1.15653
 Alpha virt. eigenvalues --    1.15946   1.16511   1.16805   1.17035   1.18072
 Alpha virt. eigenvalues --    1.19891   1.20303   1.20918   1.21138   1.22209
 Alpha virt. eigenvalues --    1.22826   1.24646   1.25235   1.26138   1.26311
 Alpha virt. eigenvalues --    1.27148   1.27704   1.27775   1.28160   1.29907
 Alpha virt. eigenvalues --    1.31213   1.31443   1.32069   1.32820   1.33661
 Alpha virt. eigenvalues --    1.33915   1.34066   1.34695   1.34911   1.35901
 Alpha virt. eigenvalues --    1.36437   1.36827   1.37522   1.38956   1.39029
 Alpha virt. eigenvalues --    1.39814   1.41205   1.42712   1.43566   1.43970
 Alpha virt. eigenvalues --    1.45782   1.46226   1.48332   1.48686   1.48992
 Alpha virt. eigenvalues --    1.49568   1.49859   1.49939   1.50957   1.51798
 Alpha virt. eigenvalues --    1.53252   1.53966   1.54679   1.54895   1.55238
 Alpha virt. eigenvalues --    1.55420   1.55799   1.56330   1.56452   1.57671
 Alpha virt. eigenvalues --    1.58247   1.58830   1.60159   1.60849   1.61717
 Alpha virt. eigenvalues --    1.62103   1.63025   1.63885   1.64400   1.65799
 Alpha virt. eigenvalues --    1.66019   1.66409   1.66907   1.67320   1.68861
 Alpha virt. eigenvalues --    1.69144   1.69703   1.70215   1.70530   1.71693
 Alpha virt. eigenvalues --    1.72928   1.73156   1.73362   1.73626   1.74525
 Alpha virt. eigenvalues --    1.75548   1.75919   1.76190   1.76747   1.77042
 Alpha virt. eigenvalues --    1.77736   1.78452   1.79322   1.79487   1.80094
 Alpha virt. eigenvalues --    1.80966   1.81785   1.83663   1.84132   1.84222
 Alpha virt. eigenvalues --    1.84766   1.86646   1.86802   1.87780   1.89163
 Alpha virt. eigenvalues --    1.90123   1.90544   1.90798   1.91853   1.92221
 Alpha virt. eigenvalues --    1.93843   1.94611   1.95973   1.96108   1.97234
 Alpha virt. eigenvalues --    1.97543   1.98837   1.99833   2.00564   2.00944
 Alpha virt. eigenvalues --    2.01363   2.02185   2.02295   2.02649   2.03681
 Alpha virt. eigenvalues --    2.04301   2.05202   2.06933   2.07285   2.07920
 Alpha virt. eigenvalues --    2.08488   2.08916   2.09631   2.10351   2.10372
 Alpha virt. eigenvalues --    2.12001   2.12211   2.13054   2.13311   2.14881
 Alpha virt. eigenvalues --    2.16405   2.17496   2.17952   2.20158   2.24209
 Alpha virt. eigenvalues --    2.25013   2.26199   2.27576   2.27819   2.29712
 Alpha virt. eigenvalues --    2.30736   2.31053   2.31407   2.33035   2.35451
 Alpha virt. eigenvalues --    2.36141   2.36725   2.37363   2.38720   2.40464
 Alpha virt. eigenvalues --    2.42041   2.43628   2.43806   2.44546   2.46484
 Alpha virt. eigenvalues --    2.47192   2.49253   2.49716   2.50295   2.52813
 Alpha virt. eigenvalues --    2.53565   2.54154   2.55141   2.55220   2.57366
 Alpha virt. eigenvalues --    2.57934   2.58778   2.59191   2.60102   2.60853
 Alpha virt. eigenvalues --    2.61549   2.62101   2.63487   2.63720   2.64695
 Alpha virt. eigenvalues --    2.69670   2.70198   2.70441   2.70699   2.71949
 Alpha virt. eigenvalues --    2.72401   2.73720   2.74688   2.75876   2.76538
 Alpha virt. eigenvalues --    2.77587   2.78731   2.81346   2.83162   2.83732
 Alpha virt. eigenvalues --    2.84749   2.85882   2.87997   2.89223   2.91218
 Alpha virt. eigenvalues --    2.94056   2.95354   2.96905   2.97783   2.99111
 Alpha virt. eigenvalues --    3.05629   3.07313   3.08918   3.10861   3.22537
 Alpha virt. eigenvalues --    3.26046   3.30942   3.36032   3.37950   3.41103
 Alpha virt. eigenvalues --    3.41884   3.57988
          Condensed to atoms (all electrons):
 Mulliken atomic charges:
              1
     1  C   -0.002954
     2  C    0.246324
     3  C   -0.139565
     4  C    0.050689
     5  C   -0.250510
     6  C    0.111283
     7  C    0.159215
     8  C    0.066457
     9  N   -0.300269
    10  C    0.075805
    11  C   -0.060735
    12  C   -0.037757
    13  C    0.062104
    14  C    0.072360
    15  N   -0.251147
    16  C    0.058369
    17  C    0.150007
    18  C   -0.112535
    19  C    0.213610
    20  C   -0.008373
    21  C    0.108526
    22  C   -0.242722
    23  C    0.042878
    24  S    0.986126
    25  S    0.995502
    26  O   -0.409698
    27  O   -0.325023
    28  O   -0.437583
    29  O   -0.517878
    30  O   -0.525826
    31  O   -0.520273
    32  H   -0.005718
    33  H   -0.013896
    34  H    0.004955
    35  H    0.080469
    36  H    0.082297
    37  H    0.055226
    38  H    0.058518
    39  H    0.058744
    40  H   -0.031971
    41  H   -0.023740
    42  H   -0.008743
    43  H    0.073134
    44  H    0.071300
    45  H    0.054392
    46  H    0.081137
    47  H    0.081745
    48  H   -0.032358
    49  H   -0.006764
    50  H   -0.026629
    51  H    0.191499
 Sum of Mulliken atomic charges =   0.00000
 Mulliken charges with hydrogens summed into heavy atoms:
              1
     1  C   -0.008672
     2  C    0.246324
     3  C   -0.139565
     4  C    0.036793
     5  C   -0.250510
     6  C    0.116238
     7  C    0.321981
     8  C    0.066457
     9  N   -0.300269
    10  C    0.248292
    11  C   -0.092707
    12  C   -0.061498
    13  C    0.053361
    14  C    0.271186
    15  N   -0.251147
    16  C    0.058369
    17  C    0.312890
    18  C   -0.112535
    19  C    0.213610
    20  C   -0.040731
    21  C    0.101762
    22  C   -0.242722
    23  C    0.016248
    24  S    0.986126
    25  S    0.995502
    26  O   -0.409698
    27  O   -0.133525
    28  O   -0.437583
    29  O   -0.517878
    30  O   -0.525826
    31  O   -0.520273
 Sum of Mulliken charges with hydrogens summed into heavy atoms =   0.00000
 Electronic spatial extent (au):  <R**2>=          33056.6856
 Charge=              0.0000 electrons
 Dipole moment (field-independent basis, Debye):
    X=             21.9330    Y=             19.0931    Z=              1.8358  Tot=             29.1372
 Quadrupole moment (field-independent basis, Debye-Ang):
   XX=           -385.4310   YY=           -180.0159   ZZ=           -202.3391
   XY=            -68.6364   XZ=             10.5756   YZ=             -7.7859
 Traceless Quadrupole moment (field-independent basis, Debye-Ang):
   XX=           -129.5023   YY=             75.9127   ZZ=             53.5896
   XY=            -68.6364   XZ=             10.5756   YZ=             -7.7859
 Octapole moment (field-independent basis, Debye-Ang**2):
  XXX=           1348.0243  YYY=            165.7721  ZZZ=              7.5804  XYY=            215.8509
  XXY=            794.2233  XXZ=            102.8319  XZZ=             50.5907  YZZ=             -7.6903
  YYZ=             31.2301  XYZ=            -51.8303
 Hexadecapole moment (field-independent basis, Debye-Ang**3):
 XXXX=         -52897.4614 YYYY=          -4862.9622 ZZZZ=           -450.2402 XXXY=          -3834.5559
 XXXZ=            786.0671 YYYX=           -806.3979 YYYZ=           -118.3039 ZZZX=            -34.7548
 ZZZY=            -28.6595 XXYY=          -7634.9277 XXZZ=          -6765.9073 YYZZ=           -977.8233
 XXYZ=           -447.0074 YYXZ=            250.0442 ZZXY=           -171.2018
 N-N= 3.069628978252D+03 E-N=-1.122927718294D+04  KE= 2.158473138816D+03
 Calling FoFJK, ICntrl=      2127 FMM=T ISym2X=0 I1Cent= 0 IOpClX= 0 NMat=1 NMatS=1 NMatT=0.
 ***** Axes restored to original set *****
 -------------------------------------------------------------------
 Center     Atomic                   Forces (Hartrees/Bohr)
 Number     Number              X              Y              Z
 -------------------------------------------------------------------
      1        6           0.000676368    0.000486869    0.000066136
      2        6          -0.000644428   -0.000115196   -0.000006834
      3        6           0.000343229   -0.000270577   -0.000145112
      4        6          -0.000446552   -0.000636153   -0.000070558
      5        6           0.000616546    0.000320295   -0.000076264
      6        6           0.000014058   -0.000566302   -0.000002309
      7        6          -0.000337340    0.000058903    0.000473873
      8        6           0.000176134    0.000235990   -0.000254575
      9        7           0.000056415    0.000546534    0.000190760
     10        6           0.000049460   -0.000059463   -0.000069972
     11        6          -0.000077969   -0.000190823    0.000074710
     12        6          -0.000497236   -0.000242150   -0.000113292
     13        6           0.000479596    0.000402155    0.000153439
     14        6           0.000159592    0.000703925   -0.000417151
     15        7           0.000291028   -0.000266097   -0.000063043
     16        6           0.000181355   -0.000149976    0.000082052
     17        6           0.000334990    0.000241148    0.000105548
     18        6          -0.000453856    0.000316874    0.000045677
     19        6          -0.000655957   -0.000270255    0.000080097
     20        6           0.000292236   -0.000643126   -0.000092254
     21        6           0.000534619    0.000145232   -0.000089087
     22        6          -0.000471784   -0.000026461    0.000095614
     23        6           0.000304033    0.000369879    0.000040358
     24       16           0.000625876   -0.000222407   -0.000247856
     25       16          -0.000649152   -0.000167929    0.000087479
     26        8           0.000069925    0.000006362   -0.000044298
     27        8          -0.000055240   -0.000623637   -0.000181324
     28        8           0.000324406    0.000215016    0.000151917
     29        8           0.000000795   -0.000083387    0.000283126
     30        8          -0.000246766    0.000353103   -0.000220192
     31        8          -0.000305617    0.000058558    0.000162925
     32        1          -0.000101322   -0.000105203   -0.000027542
     33        1           0.000193496    0.000440272    0.000061851
     34        1          -0.000288189    0.000080626   -0.000001302
     35        1           0.000024071   -0.000060957    0.000007206
     36        1          -0.000066663   -0.000104374   -0.000304651
     37        1          -0.000190324   -0.000002946    0.000003344
     38        1           0.000042278   -0.000077888    0.000076748
     39        1           0.000036311   -0.000076912   -0.000057692
     40        1          -0.000053587   -0.000119993   -0.000044740
     41        1           0.000068477    0.000287133    0.000051328
     42        1          -0.000042863   -0.000303469   -0.000071798
     43        1           0.000133916   -0.000150700    0.000250796
     44        1          -0.000009175   -0.000016067    0.000069274
     45        1          -0.000368679   -0.000258494    0.000098307
     46        1          -0.000066628    0.000021041   -0.000023355
     47        1           0.000075886   -0.000112925   -0.000174734
     48        1          -0.000097524    0.000203017    0.000038840
     49        1          -0.000113295    0.000022245    0.000025235
     50        1           0.000033957   -0.000192996   -0.000023116
     51        1           0.000101095    0.000601685    0.000046409
 -------------------------------------------------------------------
 Cartesian Forces:  Max     0.000703925 RMS     0.000270298

 GradGradGradGradGradGradGradGradGradGradGradGradGradGradGradGradGradGrad
 Berny optimization.
 Internal  Forces:  Max     0.000611958 RMS     0.000126600
 Search for a local minimum.
 Step number   1 out of a maximum of  289 on scan point     1 out of     3
 All quantities printed in internal units (Hartrees-Bohrs-Radians)
 Mixed Optimization -- En-DIIS/RFO-DIIS
 Second derivative matrix not updated -- first step.
 ITU=  0
     Eigenvalues ---    0.00230   0.00486   0.00887   0.00903   0.00945
     Eigenvalues ---    0.00995   0.01327   0.01375   0.01382   0.01488
     Eigenvalues ---    0.01526   0.01547   0.01578   0.01587   0.01736
     Eigenvalues ---    0.01817   0.01832   0.01868   0.01895   0.01955
     Eigenvalues ---    0.02054   0.02079   0.02099   0.02110   0.02118
     Eigenvalues ---    0.02121   0.02121   0.02126   0.02132   0.02147
     Eigenvalues ---    0.02152   0.02177   0.02187   0.02351   0.02368
     Eigenvalues ---    0.04866   0.05017   0.07078   0.07098   0.07443
     Eigenvalues ---    0.07447   0.07565   0.07664   0.08505   0.08604
     Eigenvalues ---    0.09371   0.09460   0.10576   0.12571   0.13142
     Eigenvalues ---    0.13478   0.15998   0.15998   0.15998   0.15999
     Eigenvalues ---    0.15999   0.15999   0.16000   0.16000   0.16000
     Eigenvalues ---    0.16000   0.16000   0.16000   0.16000   0.16000
     Eigenvalues ---    0.16000   0.16000   0.16172   0.20138   0.22000
     Eigenvalues ---    0.22000   0.22000   0.22450   0.22453   0.23056
     Eigenvalues ---    0.23474   0.23478   0.23820   0.23827   0.24654
     Eigenvalues ---    0.24660   0.24987   0.24993   0.24996   0.24997
     Eigenvalues ---    0.24999   0.25000   0.25000   0.25000   0.25000
     Eigenvalues ---    0.25000   0.25000   0.25000   0.26818   0.29720
     Eigenvalues ---    0.29959   0.30777   0.30930   0.33372   0.33406
     Eigenvalues ---    0.33413   0.33429   0.33478   0.33481   0.33641
     Eigenvalues ---    0.33657   0.34197   0.34307   0.34374   0.34570
     Eigenvalues ---    0.34630   0.34637   0.34650   0.34673   0.34680
     Eigenvalues ---    0.34749   0.34785   0.37409   0.37898   0.39252
     Eigenvalues ---    0.39394   0.40205   0.41183   0.42042   0.42106
     Eigenvalues ---    0.42955   0.42961   0.43277   0.44148   0.44485
     Eigenvalues ---    0.45284   0.45624   0.45857   0.46184   0.47566
     Eigenvalues ---    0.47714   0.48399   0.49065   0.49307   0.51889
     Eigenvalues ---    0.54284   0.76408   0.76562   0.77482   0.83906
     Eigenvalues ---    0.869001000.000001000.000001000.000001000.00000
     Eigenvalues --- 1000.000001000.000001000.000001000.000001000.00000
     Eigenvalues --- 1000.000001000.000001000.000001000.000001000.00000
     Eigenvalues --- 1000.000001000.000001000.000001000.000001000.00000
     Eigenvalues --- 1000.000001000.000001000.000001000.000001000.00000
     Eigenvalues --- 1000.000001000.000001000.000001000.000001000.00000
     Eigenvalues --- 1000.000001000.000001000.000001000.000001000.00000
     Eigenvalues --- 1000.000001000.000001000.000001000.000001000.00000
     Eigenvalues --- 1000.000001000.000001000.000001000.000001000.00000
     Eigenvalues --- 1000.000001000.000001000.000001000.000001000.00000
     Eigenvalues --- 1000.000001000.000001000.000001000.000001000.00000
     Eigenvalues --- 1000.000001000.000001000.000001000.000001000.00000
     Eigenvalues --- 1000.000001000.000001000.000001000.000001000.00000
     Eigenvalues --- 1000.000001000.000001000.000001000.000001000.00000
     Eigenvalues --- 1000.000001000.000001000.000001000.000001000.00000
     Eigenvalues --- 1000.000001000.000001000.000001000.000001000.00000
     Eigenvalues --- 1000.000001000.000001000.000001000.000001000.00000
     Eigenvalues --- 1000.000001000.000001000.000001000.000001000.00000
     Eigenvalues --- 1000.000001000.000001000.000001000.000001000.00000
     Eigenvalues --- 1000.000001000.000001000.000001000.000001000.00000
     Eigenvalues --- 1000.000001000.000001000.000001000.000001000.00000
     Eigenvalues --- 1000.000001000.000001000.000001000.000001000.00000
     Eigenvalues --- 1000.000001000.000001000.000001000.000001000.00000
     Eigenvalues --- 1000.000001000.000001000.000001000.000001000.00000
     Eigenvalues --- 1000.000001000.000001000.000001000.000001000.00000
     Eigenvalues --- 1000.000001000.000001000.000001000.000001000.00000
     Eigenvalues --- 1000.000001000.000001000.000001000.00000
 RFO step:  Lambda=-1.33164301D-05 EMin= 2.30000000D-03
 Linear search not attempted -- first point.
 Iteration  1 RMS(Cart)=  0.00084769 RMS(Int)=  0.00000042
 Iteration  2 RMS(Cart)=  0.00000264 RMS(Int)=  0.00000019
 Iteration  3 RMS(Cart)=  0.00000000 RMS(Int)=  0.00000019
 Iteration  1 RMS(Cart)=  0.00000000 RMS(Int)=  0.00000000
 Variable       Old X    -DE/DX   Delta X   Delta X   Delta X     New X
                                 (Linear)    (Quad)   (Total)
    R1        2.63660   0.00049   0.00000   0.00109   0.00109   2.63769
    R2        2.64380   0.00020   0.00000   0.00043   0.00043   2.64422
    R3        2.06025  -0.00014   0.00000  -0.00041  -0.00041   2.05983
    R4        2.66058   0.00015   0.00000   0.00041   0.00041   2.66100
    R5        2.65584   0.00013   0.00000   0.00028   0.00028   2.65612
    R6        2.61561   0.00003   0.00000   0.00006   0.00006   2.61567
    R7        2.84975   0.00025   0.00000   0.00082   0.00082   2.85057
    R8        2.65284   0.00023   0.00000   0.00047   0.00047   2.65332
    R9        2.06269  -0.00048   0.00000  -0.00140  -0.00140   2.06129
   R10        2.63867  -0.00027   0.00000  -0.00062  -0.00062   2.63805
   R11        3.38499  -0.00014   0.00000  -0.00054  -0.00054   3.38445
   R12        2.06084  -0.00029   0.00000  -0.00083  -0.00083   2.06001
   R13        2.87048   0.00019   0.00000   0.00060   0.00060   2.87108
   R14        2.08332   0.00002   0.00000   0.00007   0.00007   2.08339
   R15        2.08220   0.00031   0.00000   0.00094   0.00094   2.08314
   R16        2.59781  -0.00004   0.00000  -0.00011  -0.00011   2.59770
   R17        2.60571  -0.00011   0.00000  -0.00023  -0.00023   2.60548
   R18        2.74513  -0.00023   0.00000  -0.00060  -0.00060   2.74453
   R19        2.06998  -0.00019   0.00000  -0.00055  -0.00055   2.06943
   R20        2.08304  -0.00012   0.00000  -0.00034  -0.00034   2.08270
   R21        2.08214  -0.00009   0.00000  -0.00027  -0.00027   2.08187
   R22        2.67718  -0.00024   0.00000  -0.00055  -0.00055   2.67662
   R23        2.06379  -0.00013   0.00000  -0.00037  -0.00037   2.06341
   R24        2.60821   0.00025   0.00000   0.00051   0.00051   2.60872
   R25        2.67329  -0.00018   0.00000  -0.00041  -0.00041   2.67287
   R26        2.06246   0.00030   0.00000   0.00086   0.00086   2.06332
   R27        2.06704   0.00031   0.00000   0.00091   0.00091   2.06794
   R28        2.75234   0.00028   0.00000   0.00076   0.00076   2.75310
   R29        2.07913  -0.00031   0.00000  -0.00093  -0.00093   2.07820
   R30        2.07941   0.00006   0.00000   0.00018   0.00018   2.07959
   R31        2.06815  -0.00045   0.00000  -0.00131  -0.00131   2.06683
   R32        2.53619   0.00002   0.00000   0.00006   0.00006   2.53625
   R33        2.68000   0.00021   0.00000   0.00049   0.00049   2.68049
   R34        2.86458  -0.00020   0.00000  -0.00062  -0.00062   2.86397
   R35        2.84671   0.00031   0.00000   0.00096   0.00096   2.84767
   R36        2.08403  -0.00006   0.00000  -0.00017  -0.00017   2.08386
   R37        2.08344   0.00022   0.00000   0.00066   0.00066   2.08410
   R38        2.65374  -0.00037   0.00000  -0.00088  -0.00088   2.65286
   R39        2.61747  -0.00018   0.00000  -0.00036  -0.00036   2.61711
   R40        2.64021  -0.00044   0.00000  -0.00101  -0.00101   2.63919
   R41        2.64036  -0.00037   0.00000  -0.00083  -0.00083   2.63953
   R42        2.06197   0.00023   0.00000   0.00065   0.00065   2.06262
   R43        2.65434  -0.00019   0.00000  -0.00040  -0.00040   2.65394
   R44        2.06209   0.00012   0.00000   0.00034   0.00034   2.06243
   R45        2.65394   0.00018   0.00000   0.00045   0.00045   2.65439
   R46        3.48125  -0.00012   0.00000  -0.00054  -0.00054   3.48071
   R47        2.06280   0.00020   0.00000   0.00057   0.00057   2.06336
   R48        2.83613  -0.00028   0.00000  -0.00037  -0.00037   2.83576
   R49        2.83524  -0.00048   0.00000  -0.00063  -0.00063   2.83462
   R50        2.83003   0.00034   0.00000   0.00044   0.00044   2.83047
   R51        2.78095   0.00008   0.00000   0.00009   0.00009   2.78104
   R52        3.14976  -0.00012   0.00000  -0.00029  -0.00029   3.14947
   R53        2.79575  -0.00040   0.00000  -0.00048  -0.00048   2.79528
   R54        1.84706  -0.00061   0.00000  -0.00118  -0.00118   1.84588
    A1        2.05595  -0.00016   0.00000  -0.00062  -0.00062   2.05533
    A2        2.13468   0.00005   0.00000   0.00009   0.00009   2.13477
    A3        2.09251   0.00012   0.00000   0.00052   0.00052   2.09303
    A4        2.12824  -0.00008   0.00000  -0.00018  -0.00018   2.12806
    A5        2.25155  -0.00010   0.00000  -0.00053  -0.00053   2.25103
    A6        1.90334   0.00018   0.00000   0.00071   0.00071   1.90405
    A7        2.10022   0.00009   0.00000   0.00043   0.00043   2.10065
    A8        1.89151  -0.00014   0.00000  -0.00046  -0.00046   1.89105
    A9        2.29138   0.00004   0.00000   0.00005   0.00005   2.29143
   A10        2.05378  -0.00007   0.00000  -0.00038  -0.00038   2.05340
   A11        2.13214   0.00000   0.00000  -0.00004  -0.00004   2.13210
   A12        2.09718   0.00007   0.00000   0.00042   0.00042   2.09760
   A13        2.13418   0.00007   0.00000   0.00016   0.00016   2.13434
   A14        2.07357  -0.00016   0.00000  -0.00055  -0.00055   2.07302
   A15        2.07497   0.00009   0.00000   0.00042   0.00042   2.07538
   A16        2.09383   0.00015   0.00000   0.00061   0.00061   2.09444
   A17        2.10654  -0.00015   0.00000  -0.00081  -0.00081   2.10573
   A18        2.08277   0.00001   0.00000   0.00020   0.00020   2.08297
   A19        1.79738  -0.00005   0.00000  -0.00024  -0.00024   1.79714
   A20        1.96102  -0.00001   0.00000  -0.00003  -0.00003   1.96099
   A21        1.96125  -0.00006   0.00000  -0.00100  -0.00100   1.96025
   A22        1.93916   0.00008   0.00000   0.00090   0.00090   1.94006
   A23        1.94024   0.00003   0.00000   0.00004   0.00004   1.94027
   A24        1.86641   0.00002   0.00000   0.00033   0.00033   1.86674
   A25        1.88706   0.00016   0.00000   0.00060   0.00059   1.88766
   A26        2.22744  -0.00014   0.00000  -0.00052  -0.00052   2.22692
   A27        2.16868  -0.00002   0.00000  -0.00006  -0.00006   2.16861
   A28        1.94547  -0.00015   0.00000  -0.00061  -0.00061   1.94486
   A29        2.18268   0.00013   0.00000   0.00052   0.00052   2.18320
   A30        2.15502   0.00002   0.00000   0.00009   0.00009   2.15510
   A31        1.91426   0.00004   0.00000   0.00025   0.00025   1.91451
   A32        1.93227  -0.00002   0.00000  -0.00007  -0.00007   1.93221
   A33        1.92869  -0.00007   0.00000  -0.00044  -0.00044   1.92824
   A34        1.89620   0.00000   0.00000   0.00006   0.00006   1.89627
   A35        1.89371   0.00000   0.00000  -0.00004  -0.00004   1.89367
   A36        1.89795   0.00004   0.00000   0.00025   0.00025   1.89820
   A37        2.15160   0.00007   0.00000   0.00032   0.00032   2.15192
   A38        2.07544   0.00000   0.00000   0.00008   0.00008   2.07552
   A39        2.05615  -0.00007   0.00000  -0.00040  -0.00040   2.05575
   A40        2.14799   0.00001   0.00000   0.00006   0.00006   2.14805
   A41        2.06133  -0.00004   0.00000  -0.00026  -0.00026   2.06107
   A42        2.07386   0.00003   0.00000   0.00020   0.00020   2.07406
   A43        2.17663   0.00009   0.00000   0.00043   0.00043   2.17705
   A44        2.04866  -0.00004   0.00000  -0.00017  -0.00017   2.04850
   A45        2.05789  -0.00005   0.00000  -0.00026  -0.00026   2.05764
   A46        1.90468  -0.00002   0.00000   0.00003   0.00003   1.90471
   A47        1.91300  -0.00005   0.00000  -0.00046  -0.00046   1.91254
   A48        1.93540  -0.00006   0.00000  -0.00037  -0.00037   1.93503
   A49        1.89663   0.00002   0.00000   0.00009   0.00009   1.89671
   A50        1.90355   0.00010   0.00000   0.00092   0.00092   1.90446
   A51        1.91013   0.00001   0.00000  -0.00019  -0.00019   1.90995
   A52        2.21849   0.00002   0.00000   0.00009   0.00009   2.21859
   A53        2.10953  -0.00011   0.00000  -0.00044  -0.00044   2.10908
   A54        1.95516   0.00009   0.00000   0.00035   0.00035   1.95551
   A55        2.19058  -0.00001   0.00000  -0.00009  -0.00009   2.19049
   A56        2.20402   0.00006   0.00000   0.00021   0.00021   2.20423
   A57        1.88859  -0.00005   0.00000  -0.00012  -0.00012   1.88847
   A58        1.80514  -0.00003   0.00000  -0.00013  -0.00013   1.80501
   A59        1.92850   0.00002   0.00000  -0.00002  -0.00002   1.92849
   A60        1.92823   0.00004   0.00000   0.00052   0.00052   1.92875
   A61        1.96863  -0.00004   0.00000  -0.00060  -0.00060   1.96802
   A62        1.96732   0.00001   0.00000   0.00020   0.00020   1.96752
   A63        1.86692   0.00000   0.00000   0.00005   0.00005   1.86696
   A64        1.87946   0.00009   0.00000   0.00030   0.00030   1.87976
   A65        2.30940  -0.00007   0.00000  -0.00021  -0.00021   2.30919
   A66        2.09428  -0.00002   0.00000  -0.00009  -0.00009   2.09419
   A67        1.89643  -0.00010   0.00000  -0.00040  -0.00040   1.89602
   A68        2.24309   0.00004   0.00000   0.00028   0.00028   2.24337
   A69        2.14359   0.00007   0.00000   0.00013   0.00013   2.14372
   A70        2.03627   0.00009   0.00000   0.00023   0.00023   2.03650
   A71        2.13426  -0.00001   0.00000   0.00011   0.00011   2.13437
   A72        2.11260  -0.00008   0.00000  -0.00034  -0.00034   2.11227
   A73        2.11407   0.00005   0.00000   0.00024   0.00024   2.11431
   A74        2.11550  -0.00003   0.00000  -0.00014  -0.00014   2.11536
   A75        2.05350  -0.00003   0.00000  -0.00011  -0.00011   2.05339
   A76        2.11492  -0.00019   0.00000  -0.00064  -0.00064   2.11428
   A77        2.09217   0.00013   0.00000   0.00043   0.00043   2.09259
   A78        2.07585   0.00007   0.00000   0.00019   0.00019   2.07604
   A79        2.06293   0.00000   0.00000   0.00015   0.00015   2.06308
   A80        2.15426   0.00001   0.00000   0.00002   0.00002   2.15428
   A81        2.06589  -0.00001   0.00000  -0.00016  -0.00016   2.06573
   A82        1.76250   0.00018   0.00000   0.00070   0.00070   1.76320
   A83        1.79641   0.00006   0.00000   0.00020   0.00020   1.79662
   A84        1.80290   0.00016   0.00000   0.00070   0.00070   1.80360
   A85        2.00886  -0.00013   0.00000  -0.00065  -0.00065   2.00821
   A86        2.01320  -0.00009   0.00000  -0.00028  -0.00028   2.01292
   A87        2.02621  -0.00006   0.00000  -0.00020  -0.00020   2.02601
   A88        1.89928  -0.00007   0.00000  -0.00038  -0.00038   1.89890
   A89        1.73007   0.00014   0.00000   0.00072   0.00072   1.73079
   A90        1.91601   0.00013   0.00000   0.00079   0.00079   1.91680
   A91        1.89061  -0.00004   0.00000  -0.00029  -0.00029   1.89032
   A92        2.12962  -0.00008   0.00000  -0.00062  -0.00062   2.12900
   A93        1.85541  -0.00004   0.00000   0.00004   0.00004   1.85545
   A94        1.83358   0.00005   0.00000   0.00032   0.00032   1.83390
    D1       -0.00430   0.00000   0.00000   0.00035   0.00035  -0.00395
[...]
     30          8           0       -6.625612   -3.411987    0.415918
     31          8           0       -8.660957   -1.912761    0.697942
     32          1           0        6.403852    2.585834    0.428540
     33          1           0        4.538027   -1.969493   -0.560877
     34          1           0        7.842881    0.543827    0.608914
     35          1           0        2.110932   -0.322452    0.066948
     36          1           0        2.280357    0.072252   -1.654856
     37          1           0        4.907468    4.083671   -0.591619
     38          1           0        3.173405    4.398384   -0.826033
     39          1           0        3.809949    4.113540    0.826104
     40          1           0        1.277459    3.536971    0.041657
     41          1           0       -1.204953    3.523253    0.248323
     42          1           0       -0.013517    0.729519   -0.291840
     43          1           0       -4.644233    4.082648   -0.265787
     44          1           0       -4.394786    3.868029    1.491274
     45          1           0       -3.020519    4.330330    0.440600
     46          1           0       -2.102526   -0.295180    0.690523
     47          1           0       -2.246826   -0.058628   -1.060598
     48          1           0       -6.495437    2.560370    0.593760
     49          1           0       -7.970613    0.515643    0.447055
     50          1           0       -4.584518   -2.027599   -0.213739
     51          1           0        6.893462   -3.709218    1.588617
 ---------------------------------------------------------------------
 Rotational constants (GHZ):      0.2276387      0.0331797      0.0294498

 **********************************************************************

            Population analysis using the SCF density.

 **********************************************************************

 Orbital symmetries:
       Occupied  (A) (A) (A) (A) (A) (A) (A) (A) (A) (A) (A) (A)
                 (A) (A) (A) (A) (A) (A) (A) (A) (A) (A) (A) (A)
                 (A) (A) (A) (A) (A) (A) (A) (A) (A) (A) (A) (A)
                 (A) (A) (A) (A) (A) (A) (A) (A) (A) (A) (A) (A)
                 (A) (A) (A) (A) (A) (A) (A) (A) (A) (A) (A) (A)
                 (A) (A) (A) (A) (A) (A) (A) (A) (A) (A) (A) (A)
                 (A) (A) (A) (A) (A) (A) (A) (A) (A) (A) (A) (A)
                 (A) (A) (A) (A) (A) (A) (A) (A) (A) (A) (A) (A)
                 (A) (A) (A) (A) (A) (A) (A) (A) (A) (A) (A) (A)
                 (A) (A) (A) (A) (A) (A) (A) (A) (A) (A) (A) (A)
       Virtual   (A) (A) (A) (A) (A) (A) (A) (A) (A) (A) (A) (A)
                 (A) (A) (A) (A) (A) (A) (A) (A) (A) (A) (A) (A)
                 (A) (A) (A) (A) (A) (A) (A) (A) (A) (A) (A) (A)
                 (A) (A) (A) (A) (A) (A) (A) (A) (A) (A) (A) (A)
                 (A) (A) (A) (A) (A) (A) (A) (A) (A) (A) (A) (A)
                 (A) (A) (A) (A) (A) (A) (A) (A) (A) (A) (A) (A)
                 (A) (A) (A) (A) (A) (A) (A) (A) (A) (A) (A) (A)
                 (A) (A) (A) (A) (A) (A) (A) (A) (A) (A) (A) (A)
                 (A) (A) (A) (A) (A) (A) (A) (A) (A) (A) (A) (A)
                 (A) (A) (A) (A) (A) (A) (A) (A) (A) (A) (A) (A)
                 (A) (A) (A) (A) (A) (A) (A) (A) (A) (A) (A) (A)
                 (A) (A) (A) (A) (A) (A) (A) (A) (A) (A) (A) (A)
                 (A) (A) (A) (A) (A) (A) (A) (A) (A) (A) (A) (A)
                 (A) (A) (A) (A) (A) (A) (A) (A) (A) (A) (A) (A)
                 (A) (A) (A) (A) (A) (A) (A) (A) (A) (A) (A) (A)
                 (A) (A) (A) (A) (A) (A) (A) (A) (A) (A) (A) (A)
                 (A) (A) (A) (A) (A) (A) (A) (A) (A) (A) (A) (A)
                 (A) (A) (A) (A) (A) (A) (A) (A) (A) (A) (A) (A)
                 (A) (A) (A) (A) (A) (A) (A) (A) (A) (A) (A) (A)
                 (A) (A) (A) (A) (A) (A) (A) (A) (A) (A) (A) (A)
                 (A) (A) (A) (A) (A) (A) (A) (A) (A) (A) (A) (A)
                 (A) (A) (A) (A) (A) (A) (A) (A) (A) (A) (A) (A)
                 (A) (A) (A) (A) (A) (A) (A) (A) (A) (A) (A) (A)
                 (A) (A) (A) (A) (A) (A) (A) (A) (A) (A) (A) (A)
                 (A) (A) (A) (A) (A) (A) (A) (A) (A) (A) (A) (A)
                 (A) (A) (A) (A) (A) (A) (A) (A) (A) (A) (A) (A)
                 (A) (A) (A) (A) (A) (A) (A) (A) (A) (A) (A) (A)
                 (A) (A) (A) (A) (A) (A) (A) (A) (A) (A) (A) (A)
                 (A) (A) (A) (A) (A) (A) (A) (A) (A) (A) (A) (A)
                 (A) (A) (A) (A) (A) (A) (A) (A) (A) (A) (A) (A)
                 (A) (A) (A) (A) (A) (A) (A) (A) (A) (A) (A) (A)
                 (A) (A) (A) (A) (A) (A) (A) (A) (A) (A) (A) (A)
                 (A) (A) (A) (A) (A) (A) (A) (A) (A) (A) (A) (A)
                 (A) (A) (A) (A) (A) (A) (A) (A) (A) (A) (A) (A)
                 (A) (A) (A) (A) (A) (A) (A) (A) (A) (A) (A) (A)
                 (A) (A)
 The electronic state is 1-A.
 Alpha  occ. eigenvalues --  -89.14963 -89.01714 -19.21157 -19.16674 -19.16600
 Alpha  occ. eigenvalues --  -19.02768 -19.02764 -19.02683 -14.46103 -14.44813
 Alpha  occ. eigenvalues --  -10.31184 -10.31113 -10.29550 -10.29052 -10.28711
 Alpha  occ. eigenvalues --  -10.27061 -10.26980 -10.26645 -10.25996 -10.25810
 Alpha  occ. eigenvalues --  -10.25618 -10.25539 -10.25280 -10.25210 -10.25142
 Alpha  occ. eigenvalues --  -10.24733 -10.22043 -10.21390 -10.19577 -10.19271
 Alpha  occ. eigenvalues --  -10.18856  -8.18128  -8.04549  -6.14552  -6.14394
 Alpha  occ. eigenvalues --   -6.14258  -6.00879  -6.00852  -6.00844  -1.15798
 Alpha  occ. eigenvalues --   -1.05805  -1.05775  -1.05297  -1.03088  -1.01612
 Alpha  occ. eigenvalues --   -0.92255  -0.88880  -0.88361  -0.88078  -0.87867
 Alpha  occ. eigenvalues --   -0.86808  -0.84783  -0.82690  -0.80984  -0.78231
 Alpha  occ. eigenvalues --   -0.77291  -0.76395  -0.74986  -0.73614  -0.71617
 Alpha  occ. eigenvalues --   -0.68359  -0.66289  -0.65044  -0.63093  -0.62425
 Alpha  occ. eigenvalues --   -0.60869  -0.60136  -0.58485  -0.57190  -0.56871
 Alpha  occ. eigenvalues --   -0.54926  -0.54560  -0.54248  -0.53872  -0.53433
 Alpha  occ. eigenvalues --   -0.52200  -0.51325  -0.50715  -0.49679  -0.49045
 Alpha  occ. eigenvalues --   -0.48643  -0.48574  -0.48289  -0.47459  -0.47193
 Alpha  occ. eigenvalues --   -0.46778  -0.46144  -0.45458  -0.45357  -0.44410
 Alpha  occ. eigenvalues --   -0.44100  -0.43409  -0.43183  -0.42147  -0.41435
 Alpha  occ. eigenvalues --   -0.41120  -0.40706  -0.40329  -0.39145  -0.38522
 Alpha  occ. eigenvalues --   -0.38282  -0.36705  -0.36302  -0.36222  -0.35365
 Alpha  occ. eigenvalues --   -0.34720  -0.34162  -0.34139  -0.32069  -0.31248
 Alpha  occ. eigenvalues --   -0.31110  -0.27439  -0.26687  -0.24349  -0.23654
 Alpha  occ. eigenvalues --   -0.23549  -0.20844  -0.20608  -0.19657  -0.16482
 Alpha virt. eigenvalues --   -0.13785  -0.07722  -0.07222  -0.04030  -0.01979
 Alpha virt. eigenvalues --   -0.00300  -0.00019   0.00389   0.01056   0.01487
 Alpha virt. eigenvalues --    0.02345   0.03521   0.03619   0.04555   0.05114
 Alpha virt. eigenvalues --    0.05787   0.06244   0.06378   0.07407   0.07596
 Alpha virt. eigenvalues --    0.07787   0.08058   0.08293   0.08597   0.09224
 Alpha virt. eigenvalues --    0.09334   0.09856   0.10050   0.10801   0.11253
 Alpha virt. eigenvalues --    0.12091   0.12842   0.13105   0.14265   0.14671
 Alpha virt. eigenvalues --    0.15136   0.16066   0.17027   0.17223   0.18279
 Alpha virt. eigenvalues --    0.19062   0.19365   0.20738   0.22264   0.23276
 Alpha virt. eigenvalues --    0.24932   0.25244   0.25920   0.27059   0.27460
 Alpha virt. eigenvalues --    0.28752   0.29608   0.29958   0.30353   0.32009
 Alpha virt. eigenvalues --    0.33688   0.34082   0.34742   0.34937   0.35318
 Alpha virt. eigenvalues --    0.35600   0.37437   0.38040   0.39000   0.39235
 Alpha virt. eigenvalues --    0.39844   0.40558   0.40978   0.41466   0.42055
 Alpha virt. eigenvalues --    0.42421   0.42572   0.42874   0.43266   0.43347
 Alpha virt. eigenvalues --    0.43741   0.44398   0.44851   0.45230   0.46192
 Alpha virt. eigenvalues --    0.46496   0.46718   0.47071   0.47565   0.47922
 Alpha virt. eigenvalues --    0.48768   0.48923   0.49134   0.49530   0.49659
 Alpha virt. eigenvalues --    0.50144   0.50944   0.51658   0.52172   0.52452
 Alpha virt. eigenvalues --    0.52467   0.53113   0.54164   0.54460   0.54678
 Alpha virt. eigenvalues --    0.55109   0.55995   0.56177   0.56337   0.56578
 Alpha virt. eigenvalues --    0.57119   0.57646   0.57896   0.58200   0.58569
 Alpha virt. eigenvalues --    0.59073   0.59185   0.59531   0.60537   0.61162
 Alpha virt. eigenvalues --    0.61491   0.61686   0.62344   0.62660   0.63207
 Alpha virt. eigenvalues --    0.63406   0.63851   0.64182   0.64776   0.65815
 Alpha virt. eigenvalues --    0.66031   0.66294   0.66596   0.67095   0.67990
 Alpha virt. eigenvalues --    0.68618   0.69283   0.69720   0.69957   0.70383
 Alpha virt. eigenvalues --    0.70999   0.72531   0.73350   0.74332   0.75962
 Alpha virt. eigenvalues --    0.77057   0.77622   0.77908   0.78263   0.78703
 Alpha virt. eigenvalues --    0.80410   0.80912   0.82467   0.82994   0.83639
 Alpha virt. eigenvalues --    0.84143   0.84329   0.85003   0.85167   0.86391
 Alpha virt. eigenvalues --    0.87418   0.87673   0.87998   0.88483   0.88756
 Alpha virt. eigenvalues --    0.89150   0.90091   0.90683   0.91205   0.91914
 Alpha virt. eigenvalues --    0.92218   0.92735   0.93450   0.93878   0.94312
 Alpha virt. eigenvalues --    0.95064   0.95417   0.96105   0.96786   0.97165
 Alpha virt. eigenvalues --    0.97950   0.98372   0.98747   0.99210   0.99652
 Alpha virt. eigenvalues --    1.00577   1.01026   1.01647   1.03387   1.03738
 Alpha virt. eigenvalues --    1.05011   1.05349   1.05880   1.06883   1.07030
 Alpha virt. eigenvalues --    1.08195   1.09202   1.10708   1.10997   1.11824
 Alpha virt. eigenvalues --    1.12563   1.13068   1.13815   1.14451   1.15493
 Alpha virt. eigenvalues --    1.15799   1.16176   1.16284   1.17215   1.18111
 Alpha virt. eigenvalues --    1.19363   1.20215   1.20540   1.21041   1.21699
 Alpha virt. eigenvalues --    1.22580   1.23587   1.24286   1.26136   1.26751
 Alpha virt. eigenvalues --    1.26838   1.27451   1.27827   1.27977   1.30142
 Alpha virt. eigenvalues --    1.30938   1.31277   1.31838   1.32907   1.33620
 Alpha virt. eigenvalues --    1.34166   1.34476   1.34708   1.35456   1.35664
 Alpha virt. eigenvalues --    1.36234   1.36431   1.37857   1.38672   1.39105
 Alpha virt. eigenvalues --    1.40567   1.41356   1.42431   1.43704   1.44003
 Alpha virt. eigenvalues --    1.45506   1.47458   1.48136   1.48212   1.49043
 Alpha virt. eigenvalues --    1.49428   1.49772   1.50116   1.51021   1.51695
 Alpha virt. eigenvalues --    1.53424   1.53691   1.53835   1.54402   1.54924
 Alpha virt. eigenvalues --    1.55549   1.56124   1.56377   1.57448   1.57926
 Alpha virt. eigenvalues --    1.58195   1.58919   1.59305   1.60614   1.61265
 Alpha virt. eigenvalues --    1.61781   1.62238   1.63514   1.63854   1.64586
 Alpha virt. eigenvalues --    1.64980   1.65950   1.66367   1.67077   1.67417
 Alpha virt. eigenvalues --    1.68484   1.68850   1.69686   1.70168   1.71559
 Alpha virt. eigenvalues --    1.72399   1.72643   1.72981   1.73973   1.74134
 Alpha virt. eigenvalues --    1.74732   1.75924   1.76122   1.76585   1.76681
 Alpha virt. eigenvalues --    1.77727   1.78180   1.78766   1.79642   1.80195
 Alpha virt. eigenvalues --    1.81233   1.82089   1.82845   1.83602   1.83844
 Alpha virt. eigenvalues --    1.84132   1.85285   1.86530   1.87624   1.88528
 Alpha virt. eigenvalues --    1.89463   1.89789   1.90923   1.91276   1.92405
 Alpha virt. eigenvalues --    1.92949   1.93682   1.94323   1.96257   1.96747
 Alpha virt. eigenvalues --    1.97112   1.98332   1.99129   1.99758   2.00936
 Alpha virt. eigenvalues --    2.01737   2.02039   2.02393   2.03024   2.03886
 Alpha virt. eigenvalues --    2.04226   2.05946   2.06322   2.06937   2.07227
 Alpha virt. eigenvalues --    2.07459   2.07937   2.09040   2.09729   2.10301
 Alpha virt. eigenvalues --    2.11826   2.12984   2.13373   2.14364   2.15145
 Alpha virt. eigenvalues --    2.16498   2.17398   2.17433   2.19922   2.23199
 Alpha virt. eigenvalues --    2.24969   2.25586   2.26512   2.27439   2.29455
 Alpha virt. eigenvalues --    2.30439   2.30609   2.31299   2.32955   2.34370
 Alpha virt. eigenvalues --    2.35475   2.36036   2.36559   2.37079   2.38630
 Alpha virt. eigenvalues --    2.41466   2.42481   2.44167   2.45959   2.46404
 Alpha virt. eigenvalues --    2.47266   2.49179   2.49338   2.49712   2.52609
 Alpha virt. eigenvalues --    2.53174   2.54749   2.55010   2.56555   2.56946
 Alpha virt. eigenvalues --    2.57748   2.58390   2.59165   2.60257   2.60540
 Alpha virt. eigenvalues --    2.61441   2.62094   2.63158   2.63597   2.64629
 Alpha virt. eigenvalues --    2.66467   2.70081   2.70622   2.70862   2.71693
 Alpha virt. eigenvalues --    2.72253   2.73635   2.74701   2.75883   2.76439
 Alpha virt. eigenvalues --    2.77351   2.78559   2.81258   2.83010   2.84089
 Alpha virt. eigenvalues --    2.84527   2.85785   2.88004   2.89105   2.91150
 Alpha virt. eigenvalues --    2.93365   2.94119   2.95910   2.96865   2.98890
 Alpha virt. eigenvalues --    3.05106   3.07255   3.08481   3.10828   3.22327
 Alpha virt. eigenvalues --    3.26008   3.30918   3.33852   3.37896   3.40995
 Alpha virt. eigenvalues --    3.41900   3.58109
          Condensed to atoms (all electrons):
 Mulliken atomic charges:
              1
     1  C    0.015853
     2  C    0.205652
     3  C   -0.127368
     4  C    0.065618
     5  C   -0.248810
     6  C    0.103315
     7  C    0.138817
     8  C    0.065440
     9  N   -0.290568
    10  C    0.076499
    11  C   -0.042140
    12  C   -0.037969
    13  C    0.062792
    14  C    0.072936
    15  N   -0.251055
    16  C    0.058463
    17  C    0.149069
    18  C   -0.113178
    19  C    0.214189
    20  C   -0.007581
    21  C    0.105427
    22  C   -0.242623
    23  C    0.046341
    24  S    0.986431
    25  S    0.992735
    26  O   -0.410792
    27  O   -0.325788
    28  O   -0.435664
    29  O   -0.517939
    30  O   -0.525487
    31  O   -0.520161
    32  H   -0.009783
    33  H   -0.013558
    34  H    0.006527
    35  H    0.074057
    36  H    0.081964
    37  H    0.059056
    38  H    0.059831
    39  H    0.051054
    40  H   -0.029771
    41  H   -0.022616
    42  H   -0.008898
    43  H    0.073232
    44  H    0.071902
    45  H    0.054325
    46  H    0.081641
    47  H    0.082236
    48  H   -0.031986
    49  H   -0.006412
    50  H   -0.026438
    51  H    0.191185
 Sum of Mulliken atomic charges =   0.00000
 Mulliken charges with hydrogens summed into heavy atoms:
              1
     1  C    0.006069
     2  C    0.205652
     3  C   -0.127368
     4  C    0.052060
     5  C   -0.248810
     6  C    0.109843
     7  C    0.294838
     8  C    0.065440
     9  N   -0.290568
    10  C    0.246440
    11  C   -0.071911
    12  C   -0.060585
    13  C    0.053894
    14  C    0.272395
    15  N   -0.251055
    16  C    0.058463
    17  C    0.312945
    18  C   -0.113178
    19  C    0.214189
    20  C   -0.039567
    21  C    0.099015
    22  C   -0.242623
    23  C    0.019903
    24  S    0.986431
    25  S    0.992735
    26  O   -0.410792
    27  O   -0.134604
    28  O   -0.435664
    29  O   -0.517939
    30  O   -0.525487
    31  O   -0.520161
 Sum of Mulliken charges with hydrogens summed into heavy atoms =   0.00000
 Electronic spatial extent (au):  <R**2>=          32540.1696
 Charge=              0.0000 electrons
 Dipole moment (field-independent basis, Debye):
    X=             21.3273    Y=             18.8836    Z=              1.8950  Tot=             28.5488
 Quadrupole moment (field-independent basis, Debye-Ang):
   XX=           -388.5660   YY=           -178.6489   ZZ=           -201.3852
   XY=            -66.3576   XZ=             -0.6866   YZ=             -4.2436
 Traceless Quadrupole moment (field-independent basis, Debye-Ang):
   XX=           -132.3660   YY=             77.5512   ZZ=             54.8148
   XY=            -66.3576   XZ=             -0.6866   YZ=             -4.2436
 Octapole moment (field-independent basis, Debye-Ang**2):
  XXX=           1261.6100  YYY=            150.9829  ZZZ=              9.5686  XYY=            211.5647
  XXY=            796.6470  XXZ=            117.2019  XZZ=             50.1633  YZZ=             -5.4075
  YYZ=             42.8740  XYZ=            -48.7148
 Hexadecapole moment (field-independent basis, Debye-Ang**3):
 XXXX=         -52344.0372 YYYY=          -4846.8503 ZZZZ=           -546.8186 XXXY=          -3477.7344
 XXXZ=            203.8707 YYYX=           -831.4741 YYYZ=           -109.0810 ZZZX=            -23.4497
 ZZZY=            -27.8080 XXYY=          -7562.1203 XXZZ=          -6617.2186 YYZZ=           -989.9266
 XXYZ=           -290.1137 YYXZ=            194.2543 ZZXY=           -150.1883
 N-N= 3.075506538312D+03 E-N=-1.124099857014D+04  KE= 2.158468351398D+03
 1\1\GINC-NODE006\Scan\RB3LYP\CC-pVDZ\C21H20N2O6S2\CHS2057\22-Mar-2015\
 0\\# opt=modredundant B3LYP/cc-pVDZ Geom=PrintInputOrient\\CY3 Dihedra
 l Scan at MP2/6-31G*\\0,1\C,4.4845929806,4.2926942985,0.1693067065\C,3
 .1756384643,4.2963133585,-0.3155474988\C,2.4817327914,3.0907637029,-0.
 549577031\C,3.1499195906,1.8795091039,-0.5184561221\C,4.509558451,1.89
 66280099,-0.1653708797\C,5.1704707057,3.0714505692,0.1923322528\C,1.00
 59188735,3.4045124667,-0.6354086521\C,0.9588160882,4.8810642428,-0.266
 2444858\N,2.2481308496,5.3575333055,-0.3339389679\C,2.6202759545,6.735
 6258027,-0.0662505488\C,-0.1498530985,5.6459418061,0.0183044297\C,-2.6
 016185539,5.869708351,0.3024716058\C,-1.4700458887,5.1292825089,0.0289
 312539\C,-5.170147421,7.4086618781,0.8489955843\N,-5.0378028847,5.9889
 795007,0.5479012252\C,-3.9033464103,5.3144548351,0.3074098012\C,-4.259
 9201377,3.865355198,0.0444233459\C,-5.7612856981,3.8464407526,0.171801
 2129\C,-6.1802474087,5.1507678218,0.4798362702\C,-7.5202222385,5.48667
 05451,0.6833869434\C,-8.4524583501,4.4539643954,0.5546520036\C,-8.0502
 176856,3.1483336079,0.2303620886\C,-6.6933782938,2.8298981933,0.051669
 1804\S,-9.310494236,1.8272793127,-0.0102447437\S,5.4150414302,0.351250
 1618,-0.1356316391\O,6.8567906718,0.6457912933,-0.0952941403\O,4.94163
 73526,-0.1897557185,1.3686872877\O,4.8383663416,-0.590423308,-1.118704
 1\O,-9.5440418097,1.9218009099,-1.4895686144\O,-8.5884157154,0.5921198
 666,0.4395261336\O,-10.4517319514,2.2740024615,0.8508290607\H,4.991456
 7562,5.2102440228,0.4702787489\H,2.6453570102,0.93386355,-0.721209405\
 H,6.2137066213,3.0243749797,0.5051237207\H,0.4140117833,2.7831905388,0
 .0526022263\H,0.5926296165,3.2552148307,-1.6486900496\H,3.6406321271,6
 .9091051357,-0.4311351013\H,1.9446939261,7.4129355677,-0.6069683212\H,
 2.5777179027,6.9712138108,1.0116867784\H,-0.0145899702,6.7030015552,0.
 2571676443\H,-2.4809088291,6.9325323643,0.5214681701\H,-1.5958253972,4
 .0663124598,-0.1980144664\H,-5.8521810685,7.8702466168,0.1201053918\H,
 -5.5949296577,7.5320688019,1.8564820242\H,-4.1991357444,7.909553984,0.
 8003046484\H,-3.7619955284,3.2075489872,0.7762721917\H,-3.9123021183,3
 .5563789822,-0.9554697222\H,-7.8357291941,6.499871505,0.9390792561\H,-
 9.517607151,4.6289891534,0.7162380293\H,-6.4262326698,1.7930525565,-0.
 1619632635\H,4.8455689931,-1.157318443,1.274052265\\Version=EM64L-G09R
 evB.01\State=1-A\HF=-2169.3948994,-2169.393265,-2169.3876286\RMSD=6.44
 6e-09,2.602e-09,7.869e-09\PG=C01 [X(C21H20N2O6S2)]\\@


 DEFINE YOUR TERMS, YOU WILL PERMIT ME AGAIN TO SAY, 
 OR WE SHALL NEVER UNDERSTAND ONE ANOTHER.

                                    -- VOLTAIRE
 Job cpu time:  1 days 15 hours 32 minutes 52.5 seconds.
 File lengths (MBytes):  RWF=    255 Int=      0 D2E=      0 Chk=     21 Scr=      2
 Normal termination of Gaussian 09 at Sun Mar 22 02:15:35 2015.
