 Entering Gaussian System, Link 0=g09
 Initial command:
 /softlib/exe/x86_64/pkg/gaussian/09revB.01/dist/g09/l1.exe /zenodotus/hwlab/hwlab_store011/chs2057/Weinsteinlab/parameters/Cy3-2/torsion-scan/Gau-11623.inp -scrdir=/zenodotus/hwlab/hwlab_store011/chs2057/Weinsteinlab/parameters/Cy3-2/torsion-scan/
 Entering Link 1 = /softlib/exe/x86_64/pkg/gaussian/09revB.01/dist/g09/l1.exe PID=     11624.
  
 Copyright (c) 1988,1990,1992,1993,1995,1998,2003,2009,2010,
            Gaussian, Inc.  All Rights Reserved.
  
 This is part of the Gaussian(R) 09 program.  It is based on
 the Gaussian(R) 03 system (copyright 2003, Gaussian, Inc.),
 the Gaussian(R) 98 system (copyright 1998, Gaussian, Inc.),
 the Gaussian(R) 94 system (copyright 1995, Gaussian, Inc.),
 the Gaussian 92(TM) system (copyright 1992, Gaussian, Inc.),
 the Gaussian 90(TM) system (copyright 1990, Gaussian, Inc.),
 the Gaussian 88(TM) system (copyright 1988, Gaussian, Inc.),
 the Gaussian 86(TM) system (copyright 1986, Carnegie Mellon
 University), and the Gaussian 82(TM) system (copyright 1983,
 Carnegie Mellon University). Gaussian is a federally registered
 trademark of Gaussian, Inc.
  
 This software contains proprietary and confidential information,
 including trade secrets, belonging to Gaussian, Inc.
  
 This software is provided under written license and may be
 used, copied, transmitted, or stored only in accord with that
 written license.
  
 The following legend is applicable only to US Government
 contracts under FAR:
  
                    RESTRICTED RIGHTS LEGEND
  
 Use, reproduction and disclosure by the US Government is
 subject to restrictions as set forth in subparagraphs (a)
 and (c) of the Commercial Computer Software - Restricted
 Rights clause in FAR 52.227-19.
  
 Gaussian, Inc.
 340 Quinnipiac St., Bldg. 40, Wallingford CT 06492
  
  
 ---------------------------------------------------------------
 Warning -- This program may not be used in any manner that
 competes with the business of Gaussian, Inc. or will provide
 assistance to any competitor of Gaussian, Inc.  The licensee
 of this program is prohibited from giving any competitor of
 Gaussian, Inc. access to this program.  By using this program,
 the user acknowledges that Gaussian, Inc. is engaged in the
 business of creating and licensing software in the field of
 computational chemistry and represents and warrants to the
 licensee that it is not a competitor of Gaussian, Inc. and that
 it will not use this program in any manner prohibited above.
 ---------------------------------------------------------------
  

 Cite this work as:
 Gaussian 09, Revision B.01,
 M. J. Frisch, G. W. Trucks, H. B. Schlegel, G. E. Scuseria, 
 M. A. Robb, J. R. Cheeseman, G. Scalmani, V. Barone, B. Mennucci, 
 G. A. Petersson, H. Nakatsuji, M. Caricato, X. Li, H. P. Hratchian, 
 A. F. Izmaylov, J. Bloino, G. Zheng, J. L. Sonnenberg, M. Hada, 
 M. Ehara, K. Toyota, R. Fukuda, J. Hasegawa, M. Ishida, T. Nakajima, 
 Y. Honda, O. Kitao, H. Nakai, T. Vreven, J. A. Montgomery, Jr., 
 J. E. Peralta, F. Ogliaro, M. Bearpark, J. J. Heyd, E. Brothers, 
 K. N. Kudin, V. N. Staroverov, T. Keith, R. Kobayashi, J. Normand, 
 K. Raghavachari, A. Rendell, J. C. Burant, S. S. Iyengar, J. Tomasi, 
 M. Cossi, N. Rega, J. M. Millam, M. Klene, J. E. Knox, J. B. Cross, 
 V. Bakken, C. Adamo, J. Jaramillo, R. Gomperts, R. E. Stratmann, 
 O. Yazyev, A. J. Austin, R. Cammi, C. Pomelli, J. W. Ochterski, 
 R. L. Martin, K. Morokuma, V. G. Zakrzewski, G. A. Voth, 
 P. Salvador, J. J. Dannenberg, S. Dapprich, A. D. Daniels, 
 O. Farkas, J. B. Foresman, J. V. Ortiz, J. Cioslowski, 
 and D. J. Fox, Gaussian, Inc., Wallingford CT, 2010.
 
 ******************************************
 Gaussian 09:  EM64L-G09RevB.01 12-Aug-2010
                17-Mar-2015 
 ******************************************
 %chk=CY3.scan10.neg.chk
 %nproc=16
 Will use up to   16 processors via shared memory.
 %mem=40GB
 ------------------------------------------------------
 # opt=modredundant B3LYP/cc-pVDZ Geom=PrintInputOrient
 ------------------------------------------------------
 1/14=-1,18=120,19=15,26=3,38=1/1,3;
 2/9=2110,12=2,17=6,18=5,40=1/2;
 3/5=16,11=2,16=1,25=1,30=1,71=1,74=-5/1,2,3;
 4//1;
 5/5=2,38=5/2;
 6/7=2,8=2,9=2,10=2,28=1/1;
 7//1,2,3,16;
 1/14=-1,18=20,19=15/3(2);
 2/9=2110/2;
 99//99;
 2/9=2110/2;
 3/5=16,11=2,16=1,25=1,30=1,71=1,74=-5/1,2,3;
 4/5=5,16=3/1;
 5/5=2,38=5/2;
 7//1,2,3,16;
 1/14=-1,18=20,19=15/3(-5);
 2/9=2110/2;
 6/7=2,8=2,9=2,10=2,19=2,28=1/1;
 99/9=1/99;
 -------------------------------
 CY3 Dihedral Scan at MP2/6-31G*
 -------------------------------
 Symbolic Z-matrix:
 Charge =  0 Multiplicity = 1
 C1                    4.557     4.293    -0.053 
 C2                    3.164     4.229    -0.007 
 C3                    2.47      3.01     -0.128 
 C4                    3.164     1.824    -0.294 
 C5                    4.566     1.888    -0.326 
 C6                    5.26      3.095    -0.22 
 C7                    0.991     3.296    -0.058 
 C8                    0.943     4.804     0.118 
 N9                    2.235     5.273     0.142 
 C10                   2.575     6.677     0.295 
 C11                  -0.175     5.603     0.232 
 C12                  -2.637     5.869     0.314 
 C13                  -1.498     5.097     0.206 
 C14                  -5.214     7.474     0.515 
 N15                  -5.082     6.03      0.378 
 C16                  -3.943     5.326     0.287 
 C17                  -4.302     3.859     0.157 
 C18                  -5.808     3.863     0.192 
 C19                  -6.228     5.196     0.329 
 C20                  -7.574     5.561     0.413 
 C21                  -8.51      4.526     0.343 
 C22                  -8.105     3.19      0.188 
 C23                  -6.745     2.845     0.127 
 S24                  -9.37      1.861     0.023 
 S25                   5.494     0.374    -0.561 
 O26                   6.852     0.715    -1.014 
 O27                   5.582    -0.131     1.025 
 O28                   4.658    -0.621    -1.268 
 O29                  -9.58      1.849    -1.463 
 O30                  -8.666     0.657     0.576 
 O31                  -10.521    2.379     0.829 
 H32                   5.1       5.235     0.027 
 H33                   2.656     0.865    -0.411 
 H34                   6.349     3.092    -0.278 
 H35                   0.504     2.782     0.787 
 H36                   0.46      2.985    -0.972 
 H37                   3.664     6.792     0.322 
 H38                   2.179     7.268    -0.547 
 H39                   2.158     7.075     1.234 
 H40                  -0.044     6.681     0.348 
 H41                  -2.518     6.948     0.427 
 H42                  -1.621     4.016     0.093 
 H43                  -5.86      7.855    -0.29 
 H44                  -5.68      7.712     1.483 
 H45                  -4.237     7.963     0.451 
 H46                  -3.857     3.278     0.982 
 H47                  -3.899     3.445    -0.782 
 H48                  -7.89      6.598     0.537 
 H49                  -9.58      4.725     0.422 
 H50                  -6.481     1.789     0.045 
 H51                   5.43     -1.096     0.993 
 
 The following ModRedundant input section has been read:
 D       6       1       2       3 S   2 -15.00                                

 GradGradGradGradGradGradGradGradGradGradGradGradGradGradGradGradGradGrad
 Berny optimization.
 Initialization pass.
                           ----------------------------
                           !    Initial Parameters    !
                           ! (Angstroms and Degrees)  !
 --------------------------                            --------------------------
 ! Name  Definition              Value          Derivative Info.                !
 --------------------------------------------------------------------------------
 ! R1    R(1,2)                  1.3952         estimate D2E/DX2                !
 ! R2    R(1,6)                  1.399          estimate D2E/DX2                !
 ! R3    R(1,32)                 1.0902         estimate D2E/DX2                !
 ! R4    R(2,3)                  1.4079         estimate D2E/DX2                !
 ! R5    R(2,9)                  1.4054         estimate D2E/DX2                !
 ! R6    R(3,4)                  1.3841         estimate D2E/DX2                !
 ! R7    R(3,7)                  1.508          estimate D2E/DX2                !
 ! R8    R(4,5)                  1.4038         estimate D2E/DX2                !
 ! R9    R(4,33)                 1.0915         estimate D2E/DX2                !
 ! R10   R(5,6)                  1.3963         estimate D2E/DX2                !
 ! R11   R(5,25)                 1.7913         estimate D2E/DX2                !
 ! R12   R(6,34)                 1.0905         estimate D2E/DX2                !
 ! R13   R(7,8)                  1.519          estimate D2E/DX2                !
 ! R14   R(7,35)                 1.1024         estimate D2E/DX2                !
 ! R15   R(7,36)                 1.1019         estimate D2E/DX2                !
 ! R16   R(8,9)                  1.3747         estimate D2E/DX2                !
 ! R17   R(8,11)                 1.3789         estimate D2E/DX2                !
 ! R18   R(9,10)                 1.4527         estimate D2E/DX2                !
 ! R19   R(10,37)                1.0954         estimate D2E/DX2                !
 ! R20   R(10,38)                1.1023         estimate D2E/DX2                !
 ! R21   R(10,39)                1.1018         estimate D2E/DX2                !
 ! R22   R(11,13)                1.4167         estimate D2E/DX2                !
 ! R23   R(11,40)                1.0921         estimate D2E/DX2                !
 ! R24   R(12,13)                1.3802         estimate D2E/DX2                !
 ! R25   R(12,16)                1.4146         estimate D2E/DX2                !
 ! R26   R(12,41)                1.0914         estimate D2E/DX2                !
 ! R27   R(13,42)                1.0938         estimate D2E/DX2                !
 ! R28   R(14,15)                1.4565         estimate D2E/DX2                !
 ! R29   R(14,43)                1.1002         estimate D2E/DX2                !
 ! R30   R(14,44)                1.1004         estimate D2E/DX2                !
 ! R31   R(14,45)                1.0944         estimate D2E/DX2                !
 ! R32   R(15,16)                1.3421         estimate D2E/DX2                !
 ! R33   R(15,19)                1.4182         estimate D2E/DX2                !
 ! R34   R(16,17)                1.5159         estimate D2E/DX2                !
 ! R35   R(17,18)                1.5064         estimate D2E/DX2                !
 ! R36   R(17,46)                1.1028         estimate D2E/DX2                !
 ! R37   R(17,47)                1.1025         estimate D2E/DX2                !
 ! R38   R(18,19)                1.4043         estimate D2E/DX2                !
 ! R39   R(18,23)                1.3851         estimate D2E/DX2                !
 ! R40   R(19,20)                1.3971         estimate D2E/DX2                !
 ! R41   R(20,21)                1.3972         estimate D2E/DX2                !
 ! R42   R(20,48)                1.0911         estimate D2E/DX2                !
 ! R43   R(21,22)                1.4046         estimate D2E/DX2                !
 ! R44   R(21,49)                1.0912         estimate D2E/DX2                !
 ! R45   R(22,23)                1.4044         estimate D2E/DX2                !
 ! R46   R(22,24)                1.8422         estimate D2E/DX2                !
 ! R47   R(23,50)                1.0916         estimate D2E/DX2                !
 ! R48   R(24,29)                1.5008         estimate D2E/DX2                !
 ! R49   R(24,30)                1.5003         estimate D2E/DX2                !
 ! R50   R(24,31)                1.4976         estimate D2E/DX2                !
 ! R51   R(25,26)                1.4716         estimate D2E/DX2                !
 ! R52   R(25,27)                1.6668         estimate D2E/DX2                !
 ! R53   R(25,28)                1.4794         estimate D2E/DX2                !
 ! R54   R(27,51)                0.9774         estimate D2E/DX2                !
 ! A1    A(2,1,6)              117.7971         estimate D2E/DX2                !
 ! A2    A(2,1,32)             122.3084         estimate D2E/DX2                !
 ! A3    A(6,1,32)             119.892          estimate D2E/DX2                !
 ! A4    A(1,2,3)              121.9393         estimate D2E/DX2                !
 ! A5    A(1,2,9)              129.0046         estimate D2E/DX2                !
 ! A6    A(3,2,9)              109.0532         estimate D2E/DX2                !
 ! A7    A(2,3,4)              120.3339         estimate D2E/DX2                !
 ! A8    A(2,3,7)              108.3756         estimate D2E/DX2                !
 ! A9    A(4,3,7)              131.2865         estimate D2E/DX2                !
 ! A10   A(3,4,5)              117.6727         estimate D2E/DX2                !
 ! A11   A(3,4,33)             122.1629         estimate D2E/DX2                !
 ! A12   A(5,4,33)             120.1595         estimate D2E/DX2                !
 ! A13   A(4,5,6)              122.2796         estimate D2E/DX2                !
 ! A14   A(4,5,25)             118.8067         estimate D2E/DX2                !
 ! A15   A(6,5,25)             118.8869         estimate D2E/DX2                !
 ! A16   A(1,6,5)              119.9679         estimate D2E/DX2                !
 ! A17   A(1,6,34)             120.6958         estimate D2E/DX2                !
 ! A18   A(5,6,34)             119.3339         estimate D2E/DX2                !
 ! A19   A(3,7,8)              102.9823         estimate D2E/DX2                !
 ! A20   A(3,7,35)             112.3584         estimate D2E/DX2                !
 ! A21   A(3,7,36)             112.3712         estimate D2E/DX2                !
 ! A22   A(8,7,35)             111.1059         estimate D2E/DX2                !
 ! A23   A(8,7,36)             111.1673         estimate D2E/DX2                !
 ! A24   A(35,7,36)            106.9371         estimate D2E/DX2                !
 ! A25   A(7,8,9)              108.1207         estimate D2E/DX2                !
 ! A26   A(7,8,11)             127.6228         estimate D2E/DX2                !
 ! A27   A(9,8,11)             124.256          estimate D2E/DX2                !
 ! A28   A(2,9,8)              111.4672         estimate D2E/DX2                !
 ! A29   A(2,9,10)             125.0585         estimate D2E/DX2                !
 ! A30   A(8,9,10)             123.4733         estimate D2E/DX2                !
 ! A31   A(9,10,37)            109.6792         estimate D2E/DX2                !
 ! A32   A(9,10,38)            110.7111         estimate D2E/DX2                !
 ! A33   A(9,10,39)            110.5055         estimate D2E/DX2                !
 ! A34   A(37,10,38)           108.6445         estimate D2E/DX2                !
 ! A35   A(37,10,39)           108.5014         estimate D2E/DX2                !
 ! A36   A(38,10,39)           108.7444         estimate D2E/DX2                !
 ! A37   A(8,11,13)            123.2775         estimate D2E/DX2                !
 ! A38   A(8,11,40)            118.9138         estimate D2E/DX2                !
 ! A39   A(13,11,40)           117.8087         estimate D2E/DX2                !
 ! A40   A(13,12,16)           123.0706         estimate D2E/DX2                !
 ! A41   A(13,12,41)           118.1058         estimate D2E/DX2                !
 ! A42   A(16,12,41)           118.8236         estimate D2E/DX2                !
 ! A43   A(11,13,12)           124.7115         estimate D2E/DX2                !
 ! A44   A(11,13,42)           117.3798         estimate D2E/DX2                !
 ! A45   A(12,13,42)           117.9087         estimate D2E/DX2                !
 ! A46   A(15,14,43)           109.1302         estimate D2E/DX2                !
 ! A47   A(15,14,44)           109.6069         estimate D2E/DX2                !
 ! A48   A(15,14,45)           110.8902         estimate D2E/DX2                !
 ! A49   A(43,14,44)           108.6686         estimate D2E/DX2                !
 ! A50   A(43,14,45)           109.0651         estimate D2E/DX2                !
 ! A51   A(44,14,45)           109.4424         estimate D2E/DX2                !
 ! A52   A(14,15,16)           127.1104         estimate D2E/DX2                !
 ! A53   A(14,15,19)           120.8671         estimate D2E/DX2                !
 ! A54   A(16,15,19)           112.0225         estimate D2E/DX2                !
 ! A55   A(12,16,15)           125.5108         estimate D2E/DX2                !
 ! A56   A(12,16,17)           126.2808         estimate D2E/DX2                !
 ! A57   A(15,16,17)           108.208          estimate D2E/DX2                !
 ! A58   A(16,17,18)           103.4266         estimate D2E/DX2                !
 ! A59   A(16,17,46)           110.4952         estimate D2E/DX2                !
 ! A60   A(16,17,47)           110.4796         estimate D2E/DX2                !
 ! A61   A(18,17,46)           112.794          estimate D2E/DX2                !
 ! A62   A(18,17,47)           112.7192         estimate D2E/DX2                !
 ! A63   A(46,17,47)           106.9665         estimate D2E/DX2                !
 ! A64   A(17,18,19)           107.6852         estimate D2E/DX2                !
 ! A65   A(17,18,23)           132.3188         estimate D2E/DX2                !
 ! A66   A(19,18,23)           119.9934         estimate D2E/DX2                !
 ! A67   A(15,19,18)           108.6572         estimate D2E/DX2                !
 ! A68   A(15,19,20)           128.5196         estimate D2E/DX2                !
 ! A69   A(18,19,20)           122.8188         estimate D2E/DX2                !
 ! A70   A(19,20,21)           116.6698         estimate D2E/DX2                !
 ! A71   A(19,20,48)           122.2842         estimate D2E/DX2                !
 ! A72   A(21,20,48)           121.0433         estimate D2E/DX2                !
 ! A73   A(20,21,22)           121.1274         estimate D2E/DX2                !
 ! A74   A(20,21,49)           121.2092         estimate D2E/DX2                !
 ! A75   A(22,21,49)           117.657          estimate D2E/DX2                !
 ! A76   A(21,22,23)           121.176          estimate D2E/DX2                !
 ! A77   A(21,22,24)           119.8723         estimate D2E/DX2                !
 ! A78   A(23,22,24)           118.9377         estimate D2E/DX2                !
 ! A79   A(18,23,22)           118.1972         estimate D2E/DX2                !
 ! A80   A(18,23,50)           123.4302         estimate D2E/DX2                !
 ! A81   A(22,23,50)           118.3668         estimate D2E/DX2                !
 ! A82   A(22,24,29)           100.984          estimate D2E/DX2                !
 ! A83   A(22,24,30)           102.9269         estimate D2E/DX2                !
 ! A84   A(22,24,31)           103.2985         estimate D2E/DX2                !
 ! A85   A(29,24,30)           115.099          estimate D2E/DX2                !
 ! A86   A(29,24,31)           115.3478         estimate D2E/DX2                !
 ! A87   A(30,24,31)           116.0932         estimate D2E/DX2                !
 ! A88   A(5,25,26)            108.8206         estimate D2E/DX2                !
 ! A89   A(5,25,27)             99.1257         estimate D2E/DX2                !
 ! A90   A(5,25,28)            109.779          estimate D2E/DX2                !
 ! A91   A(26,25,27)           108.3241         estimate D2E/DX2                !
 ! A92   A(26,25,28)           122.018          estimate D2E/DX2                !
 ! A93   A(27,25,28)           106.3071         estimate D2E/DX2                !
 ! A94   A(25,27,51)           105.0562         estimate D2E/DX2                !
 ! D1    D(6,1,2,3)             -0.2465         Scan                            !
 ! D2    D(6,1,2,9)           -179.5481         estimate D2E/DX2                !
 ! D3    D(32,1,2,3)           179.1829         estimate D2E/DX2                !
 ! D4    D(32,1,2,9)            -0.1187         estimate D2E/DX2                !
 ! D5    D(2,1,6,5)             -0.3958         estimate D2E/DX2                !
 ! D6    D(2,1,6,34)           179.0393         estimate D2E/DX2                !
 ! D7    D(32,1,6,5)          -179.8395         estimate D2E/DX2                !
 ! D8    D(32,1,6,34)           -0.4044         estimate D2E/DX2                !
 ! D9    D(1,2,3,4)              0.2172         estimate D2E/DX2                !
 ! D10   D(1,2,3,7)           -179.1361         estimate D2E/DX2                !
 ! D11   D(9,2,3,4)            179.643          estimate D2E/DX2                !
 ! D12   D(9,2,3,7)              0.2897         estimate D2E/DX2                !
 ! D13   D(1,2,9,8)            179.0184         estimate D2E/DX2                !
 ! D14   D(1,2,9,10)            -0.6249         estimate D2E/DX2                !
 ! D15   D(3,2,9,8)             -0.3546         estimate D2E/DX2                !
 ! D16   D(3,2,9,10)          -179.9979         estimate D2E/DX2                !
 ! D17   D(2,3,4,5)              0.4479         estimate D2E/DX2                !
 ! D18   D(2,3,4,33)          -178.7404         estimate D2E/DX2                !
 ! D19   D(7,3,4,5)            179.6312         estimate D2E/DX2                !
 ! D20   D(7,3,4,33)             0.4429         estimate D2E/DX2                !
 ! D21   D(2,3,7,8)             -0.1283         estimate D2E/DX2                !
 ! D22   D(2,3,7,35)          -119.7588         estimate D2E/DX2                !
 ! D23   D(2,3,7,36)           119.5818         estimate D2E/DX2                !
 ! D24   D(4,3,7,8)           -179.3856         estimate D2E/DX2                !
 ! D25   D(4,3,7,35)            60.9839         estimate D2E/DX2                !
 ! D26   D(4,3,7,36)           -59.6755         estimate D2E/DX2                !
 ! D27   D(3,4,5,6)             -1.1121         estimate D2E/DX2                !
 ! D28   D(3,4,5,25)          -179.2071         estimate D2E/DX2                !
 ! D29   D(33,4,5,6)           178.0932         estimate D2E/DX2                !
 ! D30   D(33,4,5,25)           -0.0018         estimate D2E/DX2                !
 ! D31   D(4,5,6,1)              1.1017         estimate D2E/DX2                !
 ! D32   D(4,5,6,34)          -178.3411         estimate D2E/DX2                !
 ! D33   D(25,5,6,1)           179.1952         estimate D2E/DX2                !
 ! D34   D(25,5,6,34)           -0.2477         estimate D2E/DX2                !
 ! D35   D(4,5,25,26)          160.897          estimate D2E/DX2                !
 ! D36   D(4,5,25,27)          -86.0765         estimate D2E/DX2                !
 ! D37   D(4,5,25,28)           25.0224         estimate D2E/DX2                !
 ! D38   D(6,5,25,26)          -17.2635         estimate D2E/DX2                !
 ! D39   D(6,5,25,27)           95.763          estimate D2E/DX2                !
 ! D40   D(6,5,25,28)         -153.1381         estimate D2E/DX2                !
 ! D41   D(3,7,8,9)             -0.0794         estimate D2E/DX2                !
 ! D42   D(3,7,8,11)           179.6628         estimate D2E/DX2                !
 ! D43   D(35,7,8,9)           120.4136         estimate D2E/DX2                !
 ! D44   D(35,7,8,11)          -59.8441         estimate D2E/DX2                !
 ! D45   D(36,7,8,9)          -120.6181         estimate D2E/DX2                !
 ! D46   D(36,7,8,11)           59.1241         estimate D2E/DX2                !
 ! D47   D(7,8,9,2)              0.2648         estimate D2E/DX2                !
 ! D48   D(7,8,9,10)           179.9148         estimate D2E/DX2                !
 ! D49   D(11,8,9,2)          -179.4882         estimate D2E/DX2                !
 ! D50   D(11,8,9,10)            0.1618         estimate D2E/DX2                !
 ! D51   D(7,8,11,13)            0.3664         estimate D2E/DX2                !
 ! D52   D(7,8,11,40)         -179.6027         estimate D2E/DX2                !
 ! D53   D(9,8,11,13)         -179.93           estimate D2E/DX2                !
 ! D54   D(9,8,11,40)            0.1009         estimate D2E/DX2                !
 ! D55   D(2,9,10,37)           -2.5436         estimate D2E/DX2                !
 ! D56   D(2,9,10,38)          117.3376         estimate D2E/DX2                !
 ! D57   D(2,9,10,39)         -122.1188         estimate D2E/DX2                !
 ! D58   D(8,9,10,37)          177.8543         estimate D2E/DX2                !
 ! D59   D(8,9,10,38)          -62.2645         estimate D2E/DX2                !
 ! D60   D(8,9,10,39)           58.2791         estimate D2E/DX2                !
 ! D61   D(8,11,13,12)        -179.8251         estimate D2E/DX2                !
 ! D62   D(8,11,13,42)           0.2365         estimate D2E/DX2                !
 ! D63   D(40,11,13,12)          0.1442         estimate D2E/DX2                !
 ! D64   D(40,11,13,42)       -179.7942         estimate D2E/DX2                !
 ! D65   D(16,12,13,11)       -179.8385         estimate D2E/DX2                !
 ! D66   D(16,12,13,42)          0.0996         estimate D2E/DX2                !
 ! D67   D(41,12,13,11)          0.0545         estimate D2E/DX2                !
 ! D68   D(41,12,13,42)        179.9926         estimate D2E/DX2                !
 ! D69   D(13,12,16,15)       -179.488          estimate D2E/DX2                !
 ! D70   D(13,12,16,17)          0.7735         estimate D2E/DX2                !
 ! D71   D(41,12,16,15)          0.6197         estimate D2E/DX2                !
 ! D72   D(41,12,16,17)       -179.1188         estimate D2E/DX2                !
 ! D73   D(43,14,15,16)        125.0424         estimate D2E/DX2                !
 ! D74   D(43,14,15,19)        -55.0791         estimate D2E/DX2                !
 ! D75   D(44,14,15,16)       -116.0616         estimate D2E/DX2                !
 ! D76   D(44,14,15,19)         63.8169         estimate D2E/DX2                !
 ! D77   D(45,14,15,16)          4.8801         estimate D2E/DX2                !
 ! D78   D(45,14,15,19)       -175.2414         estimate D2E/DX2                !
 ! D79   D(14,15,16,12)          0.2982         estimate D2E/DX2                !
 ! D80   D(14,15,16,17)       -179.9237         estimate D2E/DX2                !
 ! D81   D(19,15,16,12)       -179.5893         estimate D2E/DX2                !
 ! D82   D(19,15,16,17)          0.1888         estimate D2E/DX2                !
 ! D83   D(14,15,19,18)        179.8636         estimate D2E/DX2                !
 ! D84   D(14,15,19,20)         -0.8879         estimate D2E/DX2                !
 ! D85   D(16,15,19,18)         -0.241          estimate D2E/DX2                !
 ! D86   D(16,15,19,20)        179.0076         estimate D2E/DX2                !
 ! D87   D(12,16,17,18)        179.7074         estimate D2E/DX2                !
 ! D88   D(12,16,17,46)         58.7464         estimate D2E/DX2                !
 ! D89   D(12,16,17,47)        -59.4277         estimate D2E/DX2                !
 ! D90   D(15,16,17,18)         -0.0685         estimate D2E/DX2                !
 ! D91   D(15,16,17,46)       -121.0295         estimate D2E/DX2                !
 ! D92   D(15,16,17,47)        120.7964         estimate D2E/DX2                !
 ! D93   D(16,17,18,19)         -0.0733         estimate D2E/DX2                !
 ! D94   D(16,17,18,23)       -179.4767         estimate D2E/DX2                !
 ! D95   D(46,17,18,19)        119.3187         estimate D2E/DX2                !
 ! D96   D(46,17,18,23)        -60.0848         estimate D2E/DX2                !
 ! D97   D(47,17,18,19)       -119.4085         estimate D2E/DX2                !
 ! D98   D(47,17,18,23)         61.1881         estimate D2E/DX2                !
 ! D99   D(17,18,19,15)          0.1838         estimate D2E/DX2                !
 ! D100  D(17,18,19,20)       -179.1166         estimate D2E/DX2                !
 ! D101  D(23,18,19,15)        179.6746         estimate D2E/DX2                !
 ! D102  D(23,18,19,20)          0.3742         estimate D2E/DX2                !
 ! D103  D(17,18,23,22)        179.9832         estimate D2E/DX2                !
 ! D104  D(17,18,23,50)          0.8691         estimate D2E/DX2                !
 ! D105  D(19,18,23,22)          0.6395         estimate D2E/DX2                !
 ! D106  D(19,18,23,50)       -178.4747         estimate D2E/DX2                !
 ! D107  D(15,19,20,21)       -179.6684         estimate D2E/DX2                !
 ! D108  D(15,19,20,48)         -0.2548         estimate D2E/DX2                !
 ! D109  D(18,19,20,21)         -0.5156         estimate D2E/DX2                !
 ! D110  D(18,19,20,48)        178.898          estimate D2E/DX2                !
 ! D111  D(19,20,21,22)         -0.358          estimate D2E/DX2                !
 ! D112  D(19,20,21,49)        178.6991         estimate D2E/DX2                !
 ! D113  D(48,20,21,22)       -179.7793         estimate D2E/DX2                !
 ! D114  D(48,20,21,49)         -0.7222         estimate D2E/DX2                !
 ! D115  D(20,21,22,23)          1.3902         estimate D2E/DX2                !
 ! D116  D(20,21,22,24)       -177.2311         estimate D2E/DX2                !
 ! D117  D(49,21,22,23)       -177.6993         estimate D2E/DX2                !
 ! D118  D(49,21,22,24)          3.6794         estimate D2E/DX2                !
 ! D119  D(21,22,23,18)         -1.5066         estimate D2E/DX2                !
 ! D120  D(21,22,23,50)        177.6532         estimate D2E/DX2                !
 ! D121  D(24,22,23,18)        177.1273         estimate D2E/DX2                !
 ! D122  D(24,22,23,50)         -3.7129         estimate D2E/DX2                !
 ! D123  D(21,22,24,29)         88.7629         estimate D2E/DX2                !
 ! D124  D(21,22,24,30)       -152.0356         estimate D2E/DX2                !
 ! D125  D(21,22,24,31)        -30.8404         estimate D2E/DX2                !
 ! D126  D(23,22,24,29)        -89.8892         estimate D2E/DX2                !
 ! D127  D(23,22,24,30)         29.3123         estimate D2E/DX2                !
 ! D128  D(23,22,24,31)        150.5074         estimate D2E/DX2                !
 ! D129  D(5,25,27,51)         138.7649         estimate D2E/DX2                !
 ! D130  D(26,25,27,51)       -107.8197         estimate D2E/DX2                !
 ! D131  D(28,25,27,51)         24.9308         estimate D2E/DX2                !
 --------------------------------------------------------------------------------
 Trust Radius=3.00D-01 FncErr=1.00D-07 GrdErr=1.00D-06
 Number of optimizations in scan=   3
 Number of steps in this run=    289 maximum allowed number of steps=    306.
 GradGradGradGradGradGradGradGradGradGradGradGradGradGradGradGradGradGrad

                          Input orientation:                          
 ---------------------------------------------------------------------
 Center     Atomic      Atomic             Coordinates (Angstroms)
 Number     Number       Type             X           Y           Z
 ---------------------------------------------------------------------
      1          6           0        4.557000    4.293000   -0.053000
      2          6           0        3.164000    4.229000   -0.007000
      3          6           0        2.470000    3.010000   -0.128000
      4          6           0        3.164000    1.824000   -0.294000
      5          6           0        4.566000    1.888000   -0.326000
      6          6           0        5.260000    3.095000   -0.220000
      7          6           0        0.991000    3.296000   -0.058000
      8          6           0        0.943000    4.804000    0.118000
      9          7           0        2.235000    5.273000    0.142000
     10          6           0        2.575000    6.677000    0.295000
     11          6           0       -0.175000    5.603000    0.232000
     12          6           0       -2.637000    5.869000    0.314000
     13          6           0       -1.498000    5.097000    0.206000
     14          6           0       -5.214000    7.474000    0.515000
     15          7           0       -5.082000    6.030000    0.378000
     16          6           0       -3.943000    5.326000    0.287000
     17          6           0       -4.302000    3.859000    0.157000
     18          6           0       -5.808000    3.863000    0.192000
     19          6           0       -6.228000    5.196000    0.329000
     20          6           0       -7.574000    5.561000    0.413000
     21          6           0       -8.510000    4.526000    0.343000
     22          6           0       -8.105000    3.190000    0.188000
     23          6           0       -6.745000    2.845000    0.127000
     24         16           0       -9.370000    1.861000    0.023000
     25         16           0        5.494000    0.374000   -0.561000
     26          8           0        6.852000    0.715000   -1.014000
     27          8           0        5.582000   -0.131000    1.025000
     28          8           0        4.658000   -0.621000   -1.268000
     29          8           0       -9.580000    1.849000   -1.463000
     30          8           0       -8.666000    0.657000    0.576000
     31          8           0      -10.521000    2.379000    0.829000
     32          1           0        5.100000    5.235000    0.027000
     33          1           0        2.656000    0.865000   -0.411000
     34          1           0        6.349000    3.092000   -0.278000
     35          1           0        0.504000    2.782000    0.787000
     36          1           0        0.460000    2.985000   -0.972000
     37          1           0        3.664000    6.792000    0.322000
     38          1           0        2.179000    7.268000   -0.547000
     39          1           0        2.158000    7.075000    1.234000
     40          1           0       -0.044000    6.681000    0.348000
     41          1           0       -2.518000    6.948000    0.427000
     42          1           0       -1.621000    4.016000    0.093000
     43          1           0       -5.860000    7.855000   -0.290000
     44          1           0       -5.680000    7.712000    1.483000
     45          1           0       -4.237000    7.963000    0.451000
     46          1           0       -3.857000    3.278000    0.982000
     47          1           0       -3.899000    3.445000   -0.782000
     48          1           0       -7.890000    6.598000    0.537000
     49          1           0       -9.580000    4.725000    0.422000
     50          1           0       -6.481000    1.789000    0.045000
     51          1           0        5.430000   -1.096000    0.993000
 ---------------------------------------------------------------------
 Stoichiometry    C21H20N2O6S2
 Framework group  C1[X(C21H20N2O6S2)]
 Deg. of freedom   147
 Full point group                 C1      NOp   1
 Largest Abelian subgroup         C1      NOp   1
 Largest concise Abelian subgroup C1      NOp   1
                         Standard orientation:                         
 ---------------------------------------------------------------------
 Center     Atomic      Atomic             Coordinates (Angstroms)
 Number     Number       Type             X           Y           Z
 ---------------------------------------------------------------------
      1          6           0        6.069464    1.632461   -0.034341
      2          6           0        4.690695    1.419858   -0.012980
      3          6           0        4.136352    0.125718   -0.024938
      4          6           0        4.959115   -0.986933   -0.054226
      5          6           0        6.346363   -0.771958   -0.061463
      6          6           0        6.902495    0.508837   -0.063205
      7          6           0        2.633656    0.252129   -0.017153
      8          6           0        2.417785    1.755561    0.003710
      9          7           0        3.650278    2.364445    0.008607
     10          6           0        3.831897    3.805607    0.025758
     11          6           0        1.217107    2.433526    0.011172
     12          6           0       -1.260579    2.432780    0.011127
     13          6           0       -0.042139    1.784429    0.007355
     14          6           0       -4.000625    3.755313   -0.009074
     15          7           0       -3.709471    2.328295    0.004217
     16          6           0       -2.498916    1.748869    0.010449
     17          6           0       -2.693394    0.245569    0.022149
     18          6           0       -4.191400    0.086655    0.023159
     19          6           0       -4.756771    1.372090    0.014753
     20          6           0       -6.136282    1.592698    0.031391
     21          6           0       -6.952583    0.458830    0.046107
     22          6           0       -6.401197   -0.833001    0.036583
     23          6           0       -5.010690   -1.030018    0.041100
     24         16           0       -7.509606   -2.303324   -0.020630
     25         16           0        7.439234   -2.189952   -0.120884
     26          8           0        8.766896   -1.747357   -0.575943
     27          8           0        7.528473   -2.523444    1.509756
     28          8           0        6.739103   -3.335964   -0.741562
     29          8           0       -7.667726   -2.484762   -1.502020
     30          8           0       -6.698800   -3.361847    0.667239
     31          8           0       -8.735759   -1.838744    0.702886
     32          1           0        6.504947    2.631936   -0.038383
     33          1           0        4.561466   -2.003001   -0.084481
     34          1           0        7.986809    0.620422   -0.096439
     35          1           0        2.177083   -0.226757    0.864663
     36          1           0        2.169809   -0.204122   -0.906399
     37          1           0        4.900691    4.042265    0.065082
     38          1           0        3.402700    4.263425   -0.880473
     39          1           0        3.343582    4.245669    0.910014
     40          1           0        1.227377    3.525551    0.019991
     41          1           0       -1.262240    3.524173    0.016593
     42          1           0       -0.044237    0.690616    0.002003
     43          1           0       -4.656849    3.981480   -0.862725
     44          1           0       -4.521363    4.034582    0.919185
     45          1           0       -3.080364    4.340521   -0.100715
     46          1           0       -2.216022   -0.198623    0.911543
     47          1           0       -2.217268   -0.211863   -0.860793
     48          1           0       -6.566018    2.595598    0.042417
     49          1           0       -8.039815    0.545254    0.080747
     50          1           0       -4.631970   -2.053313    0.072623
     51          1           0        7.482388   -3.497758    1.572543
 ---------------------------------------------------------------------
 Rotational constants (GHZ):      0.2331788      0.0325428      0.0289211
 Standard basis: CC-pVDZ (5D, 7F)
 There are   542 symmetry adapted basis functions of A   symmetry.
 Integral buffers will be    131072 words long.
 Raffenetti 2 integral format.
 Two-electron integral symmetry is turned on.
   542 basis functions,  1239 primitive gaussians,   573 cartesian basis functions
   120 alpha electrons      120 beta electrons
       nuclear repulsion energy      3069.6289782520 Hartrees.
 NAtoms=   51 NActive=   51 NUniq=   51 SFac= 1.00D+00 NAtFMM=   50 NAOKFM=T Big=T
 One-electron integrals computed using PRISM.
 NBasis=   542 RedAO= T  NBF=   542
 NBsUse=   542 1.00D-06 NBFU=   542
 Harris functional with IExCor=  402 diagonalized for initial guess.
 ExpMin= 1.22D-01 ExpMax= 1.11D+05 ExpMxC= 1.07D+03 IAcc=2 IRadAn=         0 AccDes= 0.00D+00
 HarFok:  IExCor=  402 AccDes= 0.00D+00 IRadAn=         0 IDoV= 1
 ScaDFX=  1.000000  1.000000  1.000000  1.000000
 FoFCou: FMM=F IPFlag=           0 FMFlag=      100000 FMFlg1=        2001
         NFxFlg=           0 DoJE=T BraDBF=F KetDBF=T FulRan=T
         Omega=  0.000000  0.000000  1.000000  0.000000  0.000000 ICntrl=     500 IOpCl=  0
         NMat0=    1 NMatS0=    1 NMatT0=    0 NMatD0=    1 NMtDS0=    0 NMtDT0=    0
         I1Cent=           4 NGrid=           0.
 Petite list used in FoFCou.
 Initial guess orbital symmetries:
       Occupied  (A) (A) (A) (A) (A) (A) (A) (A) (A) (A) (A) (A)
                 (A) (A) (A) (A) (A) (A) (A) (A) (A) (A) (A) (A)
                 (A) (A) (A) (A) (A) (A) (A) (A) (A) (A) (A) (A)
                 (A) (A) (A) (A) (A) (A) (A) (A) (A) (A) (A) (A)
                 (A) (A) (A) (A) (A) (A) (A) (A) (A) (A) (A) (A)
                 (A) (A) (A) (A) (A) (A) (A) (A) (A) (A) (A) (A)
                 (A) (A) (A) (A) (A) (A) (A) (A) (A) (A) (A) (A)
                 (A) (A) (A) (A) (A) (A) (A) (A) (A) (A) (A) (A)
                 (A) (A) (A) (A) (A) (A) (A) (A) (A) (A) (A) (A)
                 (A) (A) (A) (A) (A) (A) (A) (A) (A) (A) (A) (A)
       Virtual   (A) (A) (A) (A) (A) (A) (A) (A) (A) (A) (A) (A)
                 (A) (A) (A) (A) (A) (A) (A) (A) (A) (A) (A) (A)
                 (A) (A) (A) (A) (A) (A) (A) (A) (A) (A) (A) (A)
                 (A) (A) (A) (A) (A) (A) (A) (A) (A) (A) (A) (A)
                 (A) (A) (A) (A) (A) (A) (A) (A) (A) (A) (A) (A)
                 (A) (A) (A) (A) (A) (A) (A) (A) (A) (A) (A) (A)
                 (A) (A) (A) (A) (A) (A) (A) (A) (A) (A) (A) (A)
                 (A) (A) (A) (A) (A) (A) (A) (A) (A) (A) (A) (A)
                 (A) (A) (A) (A) (A) (A) (A) (A) (A) (A) (A) (A)
                 (A) (A) (A) (A) (A) (A) (A) (A) (A) (A) (A) (A)
                 (A) (A) (A) (A) (A) (A) (A) (A) (A) (A) (A) (A)
                 (A) (A) (A) (A) (A) (A) (A) (A) (A) (A) (A) (A)
                 (A) (A) (A) (A) (A) (A) (A) (A) (A) (A) (A) (A)
                 (A) (A) (A) (A) (A) (A) (A) (A) (A) (A) (A) (A)
                 (A) (A) (A) (A) (A) (A) (A) (A) (A) (A) (A) (A)
                 (A) (A) (A) (A) (A) (A) (A) (A) (A) (A) (A) (A)
                 (A) (A) (A) (A) (A) (A) (A) (A) (A) (A) (A) (A)
                 (A) (A) (A) (A) (A) (A) (A) (A) (A) (A) (A) (A)
                 (A) (A) (A) (A) (A) (A) (A) (A) (A) (A) (A) (A)
                 (A) (A) (A) (A) (A) (A) (A) (A) (A) (A) (A) (A)
                 (A) (A) (A) (A) (A) (A) (A) (A) (A) (A) (A) (A)
                 (A) (A) (A) (A) (A) (A) (A) (A) (A) (A) (A) (A)
                 (A) (A) (A) (A) (A) (A) (A) (A) (A) (A) (A) (A)
                 (A) (A) (A) (A) (A) (A) (A) (A) (A) (A) (A) (A)
                 (A) (A) (A) (A) (A) (A) (A) (A) (A) (A) (A) (A)
                 (A) (A) (A) (A) (A) (A) (A) (A) (A) (A) (A) (A)
                 (A) (A) (A) (A) (A) (A) (A) (A) (A) (A) (A) (A)
                 (A) (A) (A) (A) (A) (A) (A) (A) (A) (A) (A) (A)
                 (A) (A) (A) (A) (A) (A) (A) (A) (A) (A) (A) (A)
                 (A) (A) (A) (A) (A) (A) (A) (A) (A) (A) (A) (A)
                 (A) (A) (A) (A) (A) (A) (A) (A) (A) (A) (A) (A)
                 (A) (A) (A) (A) (A) (A) (A) (A) (A) (A) (A) (A)
                 (A) (A) (A) (A) (A) (A) (A) (A) (A) (A) (A) (A)
                 (A) (A) (A) (A) (A) (A) (A) (A) (A) (A) (A) (A)
                 (A) (A) (A) (A) (A) (A) (A) (A) (A) (A) (A) (A)
                 (A) (A)
 The electronic state of the initial guess is 1-A.
 Requested convergence on RMS density matrix=1.00D-08 within 128 cycles.
 Requested convergence on MAX density matrix=1.00D-06.
 Requested convergence on             energy=1.00D-06.
 No special actions if energy rises.
 Integral accuracy reduced to 1.0D-05 until final iterations.
 EnCoef did     3 forward-backward iterations
 EnCoef did     1 forward-backward iterations
 Problem detected with inexpensive integrals.
 Switching to full accuracy and repeating last cycle.
 EnCoef did     3 forward-backward iterations
 EnCoef did     3 forward-backward iterations
 EnCoef did     2 forward-backward iterations
 EnCoef did     4 forward-backward iterations
 EnCoef did     1 forward-backward iterations
 EnCoef did     1 forward-backward iterations
 EnCoef did     4 forward-backward iterations
 Restarting incremental Fock formation.
 SCF Done:  E(RB3LYP) =  -2169.39489223     A.U. after   31 cycles
             Convg  =    0.9704D-08             -V/T =  2.0051

 **********************************************************************

            Population analysis using the SCF density.

 **********************************************************************

 Orbital symmetries:
       Occupied  (A) (A) (A) (A) (A) (A) (A) (A) (A) (A) (A) (A)
                 (A) (A) (A) (A) (A) (A) (A) (A) (A) (A) (A) (A)
                 (A) (A) (A) (A) (A) (A) (A) (A) (A) (A) (A) (A)
                 (A) (A) (A) (A) (A) (A) (A) (A) (A) (A) (A) (A)
                 (A) (A) (A) (A) (A) (A) (A) (A) (A) (A) (A) (A)
                 (A) (A) (A) (A) (A) (A) (A) (A) (A) (A) (A) (A)
                 (A) (A) (A) (A) (A) (A) (A) (A) (A) (A) (A) (A)
                 (A) (A) (A) (A) (A) (A) (A) (A) (A) (A) (A) (A)
                 (A) (A) (A) (A) (A) (A) (A) (A) (A) (A) (A) (A)
                 (A) (A) (A) (A) (A) (A) (A) (A) (A) (A) (A) (A)
       Virtual   (A) (A) (A) (A) (A) (A) (A) (A) (A) (A) (A) (A)
                 (A) (A) (A) (A) (A) (A) (A) (A) (A) (A) (A) (A)
                 (A) (A) (A) (A) (A) (A) (A) (A) (A) (A) (A) (A)
                 (A) (A) (A) (A) (A) (A) (A) (A) (A) (A) (A) (A)
                 (A) (A) (A) (A) (A) (A) (A) (A) (A) (A) (A) (A)
                 (A) (A) (A) (A) (A) (A) (A) (A) (A) (A) (A) (A)
                 (A) (A) (A) (A) (A) (A) (A) (A) (A) (A) (A) (A)
                 (A) (A) (A) (A) (A) (A) (A) (A) (A) (A) (A) (A)
                 (A) (A) (A) (A) (A) (A) (A) (A) (A) (A) (A) (A)
                 (A) (A) (A) (A) (A) (A) (A) (A) (A) (A) (A) (A)
                 (A) (A) (A) (A) (A) (A) (A) (A) (A) (A) (A) (A)
                 (A) (A) (A) (A) (A) (A) (A) (A) (A) (A) (A) (A)
                 (A) (A) (A) (A) (A) (A) (A) (A) (A) (A) (A) (A)
                 (A) (A) (A) (A) (A) (A) (A) (A) (A) (A) (A) (A)
                 (A) (A) (A) (A) (A) (A) (A) (A) (A) (A) (A) (A)
                 (A) (A) (A) (A) (A) (A) (A) (A) (A) (A) (A) (A)
                 (A) (A) (A) (A) (A) (A) (A) (A) (A) (A) (A) (A)
                 (A) (A) (A) (A) (A) (A) (A) (A) (A) (A) (A) (A)
                 (A) (A) (A) (A) (A) (A) (A) (A) (A) (A) (A) (A)
                 (A) (A) (A) (A) (A) (A) (A) (A) (A) (A) (A) (A)
                 (A) (A) (A) (A) (A) (A) (A) (A) (A) (A) (A) (A)
                 (A) (A) (A) (A) (A) (A) (A) (A) (A) (A) (A) (A)
                 (A) (A) (A) (A) (A) (A) (A) (A) (A) (A) (A) (A)
                 (A) (A) (A) (A) (A) (A) (A) (A) (A) (A) (A) (A)
                 (A) (A) (A) (A) (A) (A) (A) (A) (A) (A) (A) (A)
                 (A) (A) (A) (A) (A) (A) (A) (A) (A) (A) (A) (A)
                 (A) (A) (A) (A) (A) (A) (A) (A) (A) (A) (A) (A)
                 (A) (A) (A) (A) (A) (A) (A) (A) (A) (A) (A) (A)
                 (A) (A) (A) (A) (A) (A) (A) (A) (A) (A) (A) (A)
                 (A) (A) (A) (A) (A) (A) (A) (A) (A) (A) (A) (A)
                 (A) (A) (A) (A) (A) (A) (A) (A) (A) (A) (A) (A)
                 (A) (A) (A) (A) (A) (A) (A) (A) (A) (A) (A) (A)
                 (A) (A) (A) (A) (A) (A) (A) (A) (A) (A) (A) (A)
                 (A) (A) (A) (A) (A) (A) (A) (A) (A) (A) (A) (A)
                 (A) (A) (A) (A) (A) (A) (A) (A) (A) (A) (A) (A)
                 (A) (A)
 The electronic state is 1-A.
 Alpha  occ. eigenvalues --  -89.15009 -89.01648 -19.21157 -19.16739 -19.16641
 Alpha  occ. eigenvalues --  -19.02716 -19.02699 -19.02612 -14.45967 -14.45126
 Alpha  occ. eigenvalues --  -10.31068 -10.31058 -10.29705 -10.29277 -10.28627
 Alpha  occ. eigenvalues --  -10.27007 -10.26949 -10.26627 -10.25996 -10.25860
 Alpha  occ. eigenvalues --  -10.25684 -10.25518 -10.25196 -10.25123 -10.25018
 Alpha  occ. eigenvalues --  -10.24624 -10.21965 -10.21301 -10.19467 -10.19225
 Alpha  occ. eigenvalues --  -10.18769  -8.18169  -8.04483  -6.14592  -6.14438
 Alpha  occ. eigenvalues --   -6.14298  -6.00813  -6.00787  -6.00778  -1.15835
 Alpha  occ. eigenvalues --   -1.05974  -1.05667  -1.05299  -1.03143  -1.01536
 Alpha  occ. eigenvalues --   -0.92341  -0.88841  -0.88293  -0.88006  -0.87772
 Alpha  occ. eigenvalues --   -0.86868  -0.84788  -0.82738  -0.80986  -0.78241
 Alpha  occ. eigenvalues --   -0.77242  -0.76538  -0.74940  -0.73574  -0.71624
 Alpha  occ. eigenvalues --   -0.68304  -0.66417  -0.65105  -0.63107  -0.62352
 Alpha  occ. eigenvalues --   -0.60846  -0.60065  -0.58692  -0.57267  -0.56788
 Alpha  occ. eigenvalues --   -0.54819  -0.54506  -0.54173  -0.53997  -0.53337
 Alpha  occ. eigenvalues --   -0.52156  -0.51450  -0.50935  -0.49797  -0.49115
 Alpha  occ. eigenvalues --   -0.48644  -0.48484  -0.48274  -0.47516  -0.47144
 Alpha  occ. eigenvalues --   -0.46689  -0.46094  -0.45509  -0.45293  -0.44507
 Alpha  occ. eigenvalues --   -0.44041  -0.43522  -0.43389  -0.42085  -0.41377
 Alpha  occ. eigenvalues --   -0.41019  -0.40669  -0.40468  -0.39148  -0.38453
 Alpha  occ. eigenvalues --   -0.38210  -0.36694  -0.36243  -0.36207  -0.35338
 Alpha  occ. eigenvalues --   -0.34652  -0.34217  -0.34167  -0.32180  -0.31438
 Alpha  occ. eigenvalues --   -0.31198  -0.27317  -0.26594  -0.24203  -0.23582
 Alpha  occ. eigenvalues --   -0.23478  -0.20785  -0.20534  -0.19577  -0.16421
 Alpha virt. eigenvalues --   -0.13741  -0.07410  -0.07277  -0.03796  -0.01891
 Alpha virt. eigenvalues --   -0.00188  -0.00105   0.00488   0.01066   0.01475
 Alpha virt. eigenvalues --    0.02521   0.03213   0.03886   0.04379   0.05129
 Alpha virt. eigenvalues --    0.05608   0.06287   0.06471   0.07479   0.07573
 Alpha virt. eigenvalues --    0.07940   0.08092   0.08173   0.08572   0.09280
 Alpha virt. eigenvalues --    0.09496   0.09999   0.10325   0.10843   0.11331
 Alpha virt. eigenvalues --    0.12483   0.12813   0.13209   0.14245   0.14934
 Alpha virt. eigenvalues --    0.15220   0.16273   0.17059   0.17253   0.18550
 Alpha virt. eigenvalues --    0.19019   0.19421   0.20793   0.22494   0.23521
 Alpha virt. eigenvalues --    0.25021   0.25759   0.26104   0.27482   0.27906
 Alpha virt. eigenvalues --    0.28759   0.29651   0.30016   0.30345   0.32760
 Alpha virt. eigenvalues --    0.34051   0.34165   0.34604   0.34720   0.35260
 Alpha virt. eigenvalues --    0.35595   0.37194   0.38134   0.38989   0.39592
 Alpha virt. eigenvalues --    0.39786   0.40530   0.40850   0.41119   0.41925
 Alpha virt. eigenvalues --    0.42213   0.42414   0.42935   0.43139   0.43482
 Alpha virt. eigenvalues --    0.43622   0.44555   0.45057   0.45391   0.46438
 Alpha virt. eigenvalues --    0.46669   0.46759   0.47151   0.47720   0.47944
 Alpha virt. eigenvalues --    0.48036   0.48710   0.49193   0.49249   0.49720
 Alpha virt. eigenvalues --    0.49878   0.51195   0.51657   0.51816   0.52233
 Alpha virt. eigenvalues --    0.52655   0.52906   0.53505   0.54300   0.54714
 Alpha virt. eigenvalues --    0.55076   0.55728   0.56200   0.56560   0.56776
 Alpha virt. eigenvalues --    0.56901   0.57397   0.57842   0.58170   0.58700
 Alpha virt. eigenvalues --    0.59071   0.59441   0.60041   0.60448   0.61050
 Alpha virt. eigenvalues --    0.61391   0.61897   0.62424   0.62962   0.63138
 Alpha virt. eigenvalues --    0.63333   0.63912   0.64409   0.65240   0.65963
 Alpha virt. eigenvalues --    0.66261   0.66629   0.66995   0.67147   0.68364
 Alpha virt. eigenvalues --    0.68479   0.69438   0.69709   0.70142   0.71014
 Alpha virt. eigenvalues --    0.72581   0.73133   0.74256   0.74915   0.76429
 Alpha virt. eigenvalues --    0.77385   0.78147   0.78393   0.78579   0.80585
 Alpha virt. eigenvalues --    0.80954   0.81598   0.82110   0.83445   0.83757
 Alpha virt. eigenvalues --    0.83948   0.84690   0.85063   0.85586   0.85893
 Alpha virt. eigenvalues --    0.87277   0.87886   0.88003   0.88124   0.88750
 Alpha virt. eigenvalues --    0.89439   0.90433   0.90724   0.91275   0.91539
 Alpha virt. eigenvalues --    0.92132   0.92567   0.93114   0.94231   0.94341
 Alpha virt. eigenvalues --    0.94934   0.95481   0.95951   0.96766   0.97328
 Alpha virt. eigenvalues --    0.97823   0.98394   0.98755   0.99214   0.99794
 Alpha virt. eigenvalues --    1.00647   1.00971   1.02115   1.03427   1.03770
 Alpha virt. eigenvalues --    1.04931   1.05180   1.05715   1.07125   1.07629
 Alpha virt. eigenvalues --    1.08241   1.08704   1.10330   1.11086   1.11616
 Alpha virt. eigenvalues --    1.11841   1.13415   1.13720   1.14475   1.15653
 Alpha virt. eigenvalues --    1.15946   1.16511   1.16805   1.17035   1.18072
 Alpha virt. eigenvalues --    1.19891   1.20303   1.20918   1.21138   1.22209
 Alpha virt. eigenvalues --    1.22826   1.24646   1.25235   1.26138   1.26311
 Alpha virt. eigenvalues --    1.27148   1.27704   1.27775   1.28160   1.29907
 Alpha virt. eigenvalues --    1.31213   1.31443   1.32069   1.32820   1.33661
 Alpha virt. eigenvalues --    1.33915   1.34066   1.34695   1.34911   1.35901
 Alpha virt. eigenvalues --    1.36437   1.36827   1.37522   1.38956   1.39029
 Alpha virt. eigenvalues --    1.39814   1.41205   1.42712   1.43566   1.43970
 Alpha virt. eigenvalues --    1.45782   1.46226   1.48332   1.48686   1.48992
 Alpha virt. eigenvalues --    1.49568   1.49859   1.49939   1.50957   1.51798
 Alpha virt. eigenvalues --    1.53252   1.53966   1.54679   1.54895   1.55238
 Alpha virt. eigenvalues --    1.55420   1.55799   1.56330   1.56452   1.57671
 Alpha virt. eigenvalues --    1.58247   1.58830   1.60159   1.60849   1.61717
 Alpha virt. eigenvalues --    1.62103   1.63025   1.63885   1.64400   1.65799
 Alpha virt. eigenvalues --    1.66019   1.66409   1.66907   1.67320   1.68861
 Alpha virt. eigenvalues --    1.69144   1.69703   1.70215   1.70530   1.71693
 Alpha virt. eigenvalues --    1.72928   1.73156   1.73362   1.73626   1.74525
 Alpha virt. eigenvalues --    1.75548   1.75919   1.76190   1.76747   1.77042
 Alpha virt. eigenvalues --    1.77736   1.78452   1.79322   1.79487   1.80094
 Alpha virt. eigenvalues --    1.80966   1.81785   1.83663   1.84132   1.84222
 Alpha virt. eigenvalues --    1.84766   1.86646   1.86802   1.87780   1.89163
 Alpha virt. eigenvalues --    1.90123   1.90544   1.90798   1.91853   1.92221
 Alpha virt. eigenvalues --    1.93843   1.94611   1.95973   1.96108   1.97234
 Alpha virt. eigenvalues --    1.97543   1.98837   1.99833   2.00564   2.00944
 Alpha virt. eigenvalues --    2.01363   2.02185   2.02295   2.02649   2.03681
 Alpha virt. eigenvalues --    2.04301   2.05202   2.06933   2.07285   2.07920
 Alpha virt. eigenvalues --    2.08488   2.08916   2.09631   2.10351   2.10372
 Alpha virt. eigenvalues --    2.12001   2.12211   2.13054   2.13311   2.14881
 Alpha virt. eigenvalues --    2.16405   2.17496   2.17952   2.20158   2.24209
 Alpha virt. eigenvalues --    2.25013   2.26199   2.27576   2.27819   2.29712
 Alpha virt. eigenvalues --    2.30736   2.31053   2.31407   2.33035   2.35451
 Alpha virt. eigenvalues --    2.36141   2.36725   2.37363   2.38720   2.40464
 Alpha virt. eigenvalues --    2.42041   2.43628   2.43806   2.44546   2.46484
 Alpha virt. eigenvalues --    2.47192   2.49253   2.49716   2.50295   2.52813
 Alpha virt. eigenvalues --    2.53565   2.54154   2.55141   2.55220   2.57366
 Alpha virt. eigenvalues --    2.57934   2.58778   2.59191   2.60102   2.60853
 Alpha virt. eigenvalues --    2.61549   2.62101   2.63487   2.63720   2.64695
 Alpha virt. eigenvalues --    2.69670   2.70198   2.70441   2.70699   2.71949
 Alpha virt. eigenvalues --    2.72401   2.73720   2.74688   2.75876   2.76538
 Alpha virt. eigenvalues --    2.77587   2.78731   2.81346   2.83162   2.83732
 Alpha virt. eigenvalues --    2.84749   2.85882   2.87997   2.89223   2.91218
 Alpha virt. eigenvalues --    2.94056   2.95354   2.96905   2.97783   2.99111
 Alpha virt. eigenvalues --    3.05629   3.07313   3.08918   3.10861   3.22537
 Alpha virt. eigenvalues --    3.26046   3.30942   3.36032   3.37950   3.41103
 Alpha virt. eigenvalues --    3.41884   3.57988
          Condensed to atoms (all electrons):
 Mulliken atomic charges:
              1
     1  C   -0.002954
     2  C    0.246324
     3  C   -0.139565
     4  C    0.050689
     5  C   -0.250510
     6  C    0.111283
     7  C    0.159215
     8  C    0.066457
     9  N   -0.300269
    10  C    0.075805
    11  C   -0.060735
    12  C   -0.037757
    13  C    0.062104
    14  C    0.072360
    15  N   -0.251147
    16  C    0.058369
    17  C    0.150007
    18  C   -0.112535
    19  C    0.213610
    20  C   -0.008373
    21  C    0.108526
    22  C   -0.242722
    23  C    0.042878
    24  S    0.986126
    25  S    0.995502
    26  O   -0.409698
    27  O   -0.325023
    28  O   -0.437583
    29  O   -0.517878
    30  O   -0.525826
    31  O   -0.520273
    32  H   -0.005718
    33  H   -0.013896
    34  H    0.004955
    35  H    0.080469
    36  H    0.082297
    37  H    0.055226
    38  H    0.058518
    39  H    0.058744
    40  H   -0.031971
    41  H   -0.023740
    42  H   -0.008743
    43  H    0.073134
    44  H    0.071300
    45  H    0.054392
    46  H    0.081137
    47  H    0.081745
    48  H   -0.032358
    49  H   -0.006764
    50  H   -0.026629
    51  H    0.191499
 Sum of Mulliken atomic charges =   0.00000
 Mulliken charges with hydrogens summed into heavy atoms:
              1
     1  C   -0.008672
     2  C    0.246324
     3  C   -0.139565
     4  C    0.036793
     5  C   -0.250510
     6  C    0.116238
     7  C    0.321981
     8  C    0.066457
     9  N   -0.300269
    10  C    0.248292
    11  C   -0.092707
    12  C   -0.061498
    13  C    0.053361
    14  C    0.271186
    15  N   -0.251147
    16  C    0.058369
    17  C    0.312890
    18  C   -0.112535
    19  C    0.213610
    20  C   -0.040731
    21  C    0.101762
    22  C   -0.242722
    23  C    0.016248
    24  S    0.986126
    25  S    0.995502
    26  O   -0.409698
    27  O   -0.133525
    28  O   -0.437583
    29  O   -0.517878
    30  O   -0.525826
    31  O   -0.520273
 Sum of Mulliken charges with hydrogens summed into heavy atoms =   0.00000
 Electronic spatial extent (au):  <R**2>=          33056.6856
 Charge=              0.0000 electrons
 Dipole moment (field-independent basis, Debye):
    X=             21.9330    Y=             19.0931    Z=              1.8358  Tot=             29.1372
 Quadrupole moment (field-independent basis, Debye-Ang):
   XX=           -385.4310   YY=           -180.0159   ZZ=           -202.3391
   XY=            -68.6364   XZ=             10.5756   YZ=             -7.7859
 Traceless Quadrupole moment (field-independent basis, Debye-Ang):
   XX=           -129.5023   YY=             75.9127   ZZ=             53.5896
   XY=            -68.6364   XZ=             10.5756   YZ=             -7.7859
 Octapole moment (field-independent basis, Debye-Ang**2):
  XXX=           1348.0243  YYY=            165.7721  ZZZ=              7.5804  XYY=            215.8509
  XXY=            794.2233  XXZ=            102.8319  XZZ=             50.5907  YZZ=             -7.6903
  YYZ=             31.2301  XYZ=            -51.8303
 Hexadecapole moment (field-independent basis, Debye-Ang**3):
 XXXX=         -52897.4614 YYYY=          -4862.9622 ZZZZ=           -450.2402 XXXY=          -3834.5559
 XXXZ=            786.0671 YYYX=           -806.3979 YYYZ=           -118.3039 ZZZX=            -34.7548
 ZZZY=            -28.6595 XXYY=          -7634.9277 XXZZ=          -6765.9073 YYZZ=           -977.8233
 XXYZ=           -447.0074 YYXZ=            250.0442 ZZXY=           -171.2018
 N-N= 3.069628978252D+03 E-N=-1.122927718294D+04  KE= 2.158473138816D+03
 Calling FoFJK, ICntrl=      2127 FMM=T ISym2X=0 I1Cent= 0 IOpClX= 0 NMat=1 NMatS=1 NMatT=0.
 ***** Axes restored to original set *****
 -------------------------------------------------------------------
 Center     Atomic                   Forces (Hartrees/Bohr)
 Number     Number              X              Y              Z
 -------------------------------------------------------------------
      1        6           0.000676368    0.000486869    0.000066136
      2        6          -0.000644428   -0.000115196   -0.000006834
      3        6           0.000343229   -0.000270577   -0.000145112
      4        6          -0.000446552   -0.000636153   -0.000070558
      5        6           0.000616546    0.000320295   -0.000076264
      6        6           0.000014058   -0.000566302   -0.000002309
      7        6          -0.000337340    0.000058903    0.000473873
      8        6           0.000176134    0.000235990   -0.000254575
      9        7           0.000056415    0.000546534    0.000190760
     10        6           0.000049460   -0.000059463   -0.000069972
     11        6          -0.000077969   -0.000190823    0.000074710
     12        6          -0.000497236   -0.000242150   -0.000113292
     13        6           0.000479596    0.000402155    0.000153439
     14        6           0.000159592    0.000703925   -0.000417151
     15        7           0.000291028   -0.000266097   -0.000063043
     16        6           0.000181355   -0.000149976    0.000082052
     17        6           0.000334990    0.000241148    0.000105548
     18        6          -0.000453856    0.000316874    0.000045677
     19        6          -0.000655957   -0.000270255    0.000080097
     20        6           0.000292236   -0.000643126   -0.000092254
     21        6           0.000534619    0.000145232   -0.000089087
     22        6          -0.000471784   -0.000026461    0.000095614
     23        6           0.000304033    0.000369879    0.000040358
     24       16           0.000625876   -0.000222407   -0.000247856
     25       16          -0.000649152   -0.000167929    0.000087479
     26        8           0.000069925    0.000006362   -0.000044298
     27        8          -0.000055240   -0.000623637   -0.000181324
     28        8           0.000324406    0.000215016    0.000151917
     29        8           0.000000795   -0.000083387    0.000283126
     30        8          -0.000246766    0.000353103   -0.000220192
     31        8          -0.000305617    0.000058558    0.000162925
     32        1          -0.000101322   -0.000105203   -0.000027542
     33        1           0.000193496    0.000440272    0.000061851
     34        1          -0.000288189    0.000080626   -0.000001302
     35        1           0.000024071   -0.000060957    0.000007206
     36        1          -0.000066663   -0.000104374   -0.000304651
     37        1          -0.000190324   -0.000002946    0.000003344
     38        1           0.000042278   -0.000077888    0.000076748
     39        1           0.000036311   -0.000076912   -0.000057692
     40        1          -0.000053587   -0.000119993   -0.000044740
     41        1           0.000068477    0.000287133    0.000051328
     42        1          -0.000042863   -0.000303469   -0.000071798
     43        1           0.000133916   -0.000150700    0.000250796
     44        1          -0.000009175   -0.000016067    0.000069274
     45        1          -0.000368679   -0.000258494    0.000098307
     46        1          -0.000066628    0.000021041   -0.000023355
     47        1           0.000075886   -0.000112925   -0.000174734
     48        1          -0.000097524    0.000203017    0.000038840
     49        1          -0.000113295    0.000022245    0.000025235
     50        1           0.000033957   -0.000192996   -0.000023116
     51        1           0.000101095    0.000601685    0.000046409
 -------------------------------------------------------------------
 Cartesian Forces:  Max     0.000703925 RMS     0.000270298

 GradGradGradGradGradGradGradGradGradGradGradGradGradGradGradGradGradGrad
 Berny optimization.
 Internal  Forces:  Max     0.000611958 RMS     0.000126600
 Search for a local minimum.
 Step number   1 out of a maximum of  289 on scan point     1 out of     3
 All quantities printed in internal units (Hartrees-Bohrs-Radians)
 Mixed Optimization -- En-DIIS/RFO-DIIS
 Second derivative matrix not updated -- first step.
 ITU=  0
     Eigenvalues ---    0.00230   0.00486   0.00839   0.00887   0.00945
     Eigenvalues ---    0.00995   0.01327   0.01375   0.01380   0.01465
     Eigenvalues ---    0.01511   0.01547   0.01585   0.01587   0.01736
     Eigenvalues ---    0.01781   0.01817   0.01868   0.01895   0.01955
     Eigenvalues ---    0.02047   0.02054   0.02079   0.02109   0.02110
     Eigenvalues ---    0.02118   0.02121   0.02121   0.02126   0.02133
     Eigenvalues ---    0.02147   0.02177   0.02188   0.02351   0.02368
     Eigenvalues ---    0.04989   0.05017   0.07078   0.07098   0.07443
     Eigenvalues ---    0.07447   0.07565   0.07664   0.08505   0.08604
     Eigenvalues ---    0.09365   0.09460   0.10576   0.12571   0.13142
     Eigenvalues ---    0.13478   0.15998   0.15998   0.15998   0.15999
     Eigenvalues ---    0.15999   0.15999   0.16000   0.16000   0.16000
     Eigenvalues ---    0.16000   0.16000   0.16000   0.16000   0.16000
     Eigenvalues ---    0.16000   0.16000   0.16172   0.20138   0.22000
     Eigenvalues ---    0.22000   0.22000   0.22450   0.22453   0.23056
     Eigenvalues ---    0.23474   0.23478   0.23820   0.23827   0.24656
     Eigenvalues ---    0.24660   0.24987   0.24993   0.24997   0.24997
     Eigenvalues ---    0.24999   0.25000   0.25000   0.25000   0.25000
     Eigenvalues ---    0.25000   0.25000   0.25000   0.26818   0.29720
     Eigenvalues ---    0.29959   0.30777   0.30930   0.33372   0.33406
     Eigenvalues ---    0.33413   0.33429   0.33478   0.33481   0.33641
     Eigenvalues ---    0.33657   0.34197   0.34307   0.34374   0.34570
     Eigenvalues ---    0.34630   0.34637   0.34650   0.34673   0.34680
     Eigenvalues ---    0.34749   0.34785   0.37409   0.37898   0.39252
     Eigenvalues ---    0.39394   0.40205   0.41183   0.42042   0.42106
     Eigenvalues ---    0.42955   0.42961   0.43277   0.44148   0.44485
     Eigenvalues ---    0.45284   0.45624   0.45857   0.46184   0.47566
     Eigenvalues ---    0.47714   0.48399   0.49065   0.49307   0.51889
     Eigenvalues ---    0.54284   0.76408   0.76562   0.77482   0.83906
     Eigenvalues ---    0.869001000.000001000.000001000.000001000.00000
     Eigenvalues --- 1000.000001000.000001000.000001000.000001000.00000
     Eigenvalues --- 1000.000001000.000001000.000001000.000001000.00000
     Eigenvalues --- 1000.000001000.000001000.000001000.000001000.00000
     Eigenvalues --- 1000.000001000.000001000.000001000.000001000.00000
     Eigenvalues --- 1000.000001000.000001000.000001000.000001000.00000
     Eigenvalues --- 1000.000001000.000001000.000001000.000001000.00000
     Eigenvalues --- 1000.000001000.000001000.000001000.000001000.00000
     Eigenvalues --- 1000.000001000.000001000.000001000.000001000.00000
     Eigenvalues --- 1000.000001000.000001000.000001000.000001000.00000
     Eigenvalues --- 1000.000001000.000001000.000001000.000001000.00000
     Eigenvalues --- 1000.000001000.000001000.000001000.000001000.00000
     Eigenvalues --- 1000.000001000.000001000.000001000.000001000.00000
     Eigenvalues --- 1000.000001000.000001000.000001000.000001000.00000
     Eigenvalues --- 1000.000001000.000001000.000001000.000001000.00000
     Eigenvalues --- 1000.000001000.000001000.000001000.000001000.00000
     Eigenvalues --- 1000.000001000.000001000.000001000.000001000.00000
     Eigenvalues --- 1000.000001000.000001000.000001000.000001000.00000
     Eigenvalues --- 1000.000001000.000001000.000001000.000001000.00000
     Eigenvalues --- 1000.000001000.000001000.000001000.000001000.00000
     Eigenvalues --- 1000.000001000.000001000.000001000.000001000.00000
     Eigenvalues --- 1000.000001000.000001000.000001000.000001000.00000
     Eigenvalues --- 1000.000001000.000001000.000001000.000001000.00000
     Eigenvalues --- 1000.000001000.000001000.000001000.000001000.00000
     Eigenvalues --- 1000.000001000.000001000.000001000.000001000.00000
     Eigenvalues --- 1000.000001000.000001000.000001000.000001000.00000
     Eigenvalues --- 1000.000001000.000001000.000001000.00000
 RFO step:  Lambda=-1.33292748D-05 EMin= 2.30000000D-03
 Linear search not attempted -- first point.
 Iteration  1 RMS(Cart)=  0.00087162 RMS(Int)=  0.00000040
 Iteration  2 RMS(Cart)=  0.00000387 RMS(Int)=  0.00000020
 Iteration  3 RMS(Cart)=  0.00000000 RMS(Int)=  0.00000020
 Iteration  1 RMS(Cart)=  0.00000001 RMS(Int)=  0.00000000
 Variable       Old X    -DE/DX   Delta X   Delta X   Delta X     New X
                                 (Linear)    (Quad)   (Total)
    R1        2.63660   0.00049   0.00000   0.00109   0.00109   2.63769
    R2        2.64380   0.00020   0.00000   0.00043   0.00043   2.64422
    R3        2.06025  -0.00014   0.00000  -0.00041  -0.00041   2.05983
    R4        2.66058   0.00015   0.00000   0.00041   0.00041   2.66100
    R5        2.65584   0.00013   0.00000   0.00028   0.00028   2.65612
    R6        2.61561   0.00003   0.00000   0.00006   0.00006   2.61567
    R7        2.84975   0.00025   0.00000   0.00082   0.00082   2.85057
    R8        2.65284   0.00023   0.00000   0.00047   0.00047   2.65332
    R9        2.06269  -0.00048   0.00000  -0.00140  -0.00140   2.06129
   R10        2.63867  -0.00027   0.00000  -0.00062  -0.00062   2.63805
   R11        3.38499  -0.00014   0.00000  -0.00054  -0.00054   3.38445
   R12        2.06084  -0.00029   0.00000  -0.00083  -0.00083   2.06001
   R13        2.87048   0.00019   0.00000   0.00060   0.00060   2.87108
   R14        2.08332   0.00002   0.00000   0.00007   0.00007   2.08339
   R15        2.08220   0.00031   0.00000   0.00094   0.00094   2.08314
   R16        2.59781  -0.00004   0.00000  -0.00011  -0.00011   2.59770
   R17        2.60571  -0.00011   0.00000  -0.00023  -0.00023   2.60548
   R18        2.74513  -0.00023   0.00000  -0.00060  -0.00060   2.74453
   R19        2.06998  -0.00019   0.00000  -0.00055  -0.00055   2.06943
   R20        2.08304  -0.00012   0.00000  -0.00034  -0.00034   2.08270
   R21        2.08214  -0.00009   0.00000  -0.00027  -0.00027   2.08187
   R22        2.67718  -0.00024   0.00000  -0.00055  -0.00055   2.67662
   R23        2.06379  -0.00013   0.00000  -0.00037  -0.00037   2.06341
   R24        2.60821   0.00025   0.00000   0.00051   0.00051   2.60872
   R25        2.67329  -0.00018   0.00000  -0.00041  -0.00041   2.67287
   R26        2.06246   0.00030   0.00000   0.00086   0.00086   2.06332
   R27        2.06704   0.00031   0.00000   0.00091   0.00091   2.06794
   R28        2.75234   0.00028   0.00000   0.00076   0.00076   2.75310
   R29        2.07913  -0.00031   0.00000  -0.00093  -0.00093   2.07820
   R30        2.07941   0.00006   0.00000   0.00018   0.00018   2.07959
   R31        2.06815  -0.00045   0.00000  -0.00131  -0.00131   2.06683
   R32        2.53619   0.00002   0.00000   0.00006   0.00006   2.53625
   R33        2.68000   0.00021   0.00000   0.00049   0.00049   2.68049
   R34        2.86458  -0.00020   0.00000  -0.00062  -0.00062   2.86397
   R35        2.84671   0.00031   0.00000   0.00096   0.00096   2.84767
   R36        2.08403  -0.00006   0.00000  -0.00017  -0.00017   2.08386
   R37        2.08344   0.00022   0.00000   0.00066   0.00066   2.08410
   R38        2.65374  -0.00037   0.00000  -0.00088  -0.00088   2.65286
   R39        2.61747  -0.00018   0.00000  -0.00036  -0.00036   2.61711
   R40        2.64021  -0.00044   0.00000  -0.00101  -0.00101   2.63919
   R41        2.64036  -0.00037   0.00000  -0.00083  -0.00083   2.63953
   R42        2.06197   0.00023   0.00000   0.00065   0.00065   2.06262
   R43        2.65434  -0.00019   0.00000  -0.00040  -0.00040   2.65394
   R44        2.06209   0.00012   0.00000   0.00034   0.00034   2.06243
   R45        2.65394   0.00018   0.00000   0.00045   0.00045   2.65439
   R46        3.48125  -0.00012   0.00000  -0.00054  -0.00054   3.48071
   R47        2.06280   0.00020   0.00000   0.00057   0.00057   2.06336
   R48        2.83613  -0.00028   0.00000  -0.00037  -0.00037   2.83576
   R49        2.83524  -0.00048   0.00000  -0.00063  -0.00063   2.83462
   R50        2.83003   0.00034   0.00000   0.00044   0.00044   2.83047
   R51        2.78095   0.00008   0.00000   0.00009   0.00009   2.78104
   R52        3.14976  -0.00012   0.00000  -0.00029  -0.00029   3.14947
   R53        2.79575  -0.00040   0.00000  -0.00048  -0.00048   2.79528
   R54        1.84706  -0.00061   0.00000  -0.00118  -0.00118   1.84588
    A1        2.05595  -0.00016   0.00000  -0.00062  -0.00062   2.05533
    A2        2.13468   0.00005   0.00000   0.00009   0.00009   2.13477
    A3        2.09251   0.00012   0.00000   0.00052   0.00052   2.09303
    A4        2.12824  -0.00008   0.00000  -0.00019  -0.00019   2.12806
    A5        2.25155  -0.00010   0.00000  -0.00053  -0.00053   2.25103
    A6        1.90334   0.00018   0.00000   0.00071   0.00071   1.90405
    A7        2.10022   0.00009   0.00000   0.00043   0.00043   2.10065
    A8        1.89151  -0.00014   0.00000  -0.00046  -0.00046   1.89105
    A9        2.29138   0.00004   0.00000   0.00005   0.00005   2.29143
   A10        2.05378  -0.00007   0.00000  -0.00038  -0.00038   2.05340
   A11        2.13214   0.00000   0.00000  -0.00004  -0.00004   2.13210
   A12        2.09718   0.00007   0.00000   0.00042   0.00042   2.09760
   A13        2.13418   0.00007   0.00000   0.00015   0.00015   2.13434
   A14        2.07357  -0.00016   0.00000  -0.00055  -0.00055   2.07302
   A15        2.07497   0.00009   0.00000   0.00042   0.00042   2.07538
   A16        2.09383   0.00015   0.00000   0.00061   0.00061   2.09444
   A17        2.10654  -0.00015   0.00000  -0.00081  -0.00081   2.10573
   A18        2.08277   0.00001   0.00000   0.00020   0.00020   2.08297
   A19        1.79738  -0.00005   0.00000  -0.00024  -0.00024   1.79714
   A20        1.96102  -0.00001   0.00000  -0.00002  -0.00002   1.96100
   A21        1.96125  -0.00006   0.00000  -0.00101  -0.00101   1.96024
   A22        1.93916   0.00008   0.00000   0.00091   0.00091   1.94008
   A23        1.94024   0.00003   0.00000   0.00002   0.00002   1.94026
   A24        1.86641   0.00002   0.00000   0.00033   0.00033   1.86674
   A25        1.88706   0.00016   0.00000   0.00059   0.00059   1.88766
   A26        2.22744  -0.00014   0.00000  -0.00052  -0.00052   2.22692
   A27        2.16868  -0.00002   0.00000  -0.00006  -0.00006   2.16861
   A28        1.94547  -0.00015   0.00000  -0.00061  -0.00061   1.94486
   A29        2.18268   0.00013   0.00000   0.00052   0.00052   2.18320
   A30        2.15502   0.00002   0.00000   0.00009   0.00009   2.15510
   A31        1.91426   0.00004   0.00000   0.00025   0.00025   1.91451
   A32        1.93227  -0.00002   0.00000  -0.00007  -0.00007   1.93221
   A33        1.92869  -0.00007   0.00000  -0.00044  -0.00044   1.92824
   A34        1.89620   0.00000   0.00000   0.00006   0.00006   1.89627
   A35        1.89371   0.00000   0.00000  -0.00004  -0.00004   1.89367
   A36        1.89795   0.00004   0.00000   0.00025   0.00025   1.89820
   A37        2.15160   0.00007   0.00000   0.00032   0.00032   2.15192
   A38        2.07544   0.00000   0.00000   0.00008   0.00008   2.07552
   A39        2.05615  -0.00007   0.00000  -0.00040  -0.00040   2.05575
   A40        2.14799   0.00001   0.00000   0.00006   0.00006   2.14805
   A41        2.06133  -0.00004   0.00000  -0.00026  -0.00026   2.06107
   A42        2.07386   0.00003   0.00000   0.00020   0.00020   2.07406
   A43        2.17663   0.00009   0.00000   0.00043   0.00043   2.17705
   A44        2.04866  -0.00004   0.00000  -0.00017  -0.00017   2.04850
   A45        2.05789  -0.00005   0.00000  -0.00026  -0.00026   2.05764
   A46        1.90468  -0.00002   0.00000   0.00003   0.00003   1.90471
   A47        1.91300  -0.00005   0.00000  -0.00046  -0.00046   1.91254
   A48        1.93540  -0.00006   0.00000  -0.00037  -0.00037   1.93503
   A49        1.89663   0.00002   0.00000   0.00009   0.00009   1.89671
   A50        1.90355   0.00010   0.00000   0.00092   0.00092   1.90446
   A51        1.91013   0.00001   0.00000  -0.00019  -0.00019   1.90995
   A52        2.21849   0.00002   0.00000   0.00009   0.00009   2.21859
   A53        2.10953  -0.00011   0.00000  -0.00044  -0.00044   2.10908
   A54        1.95516   0.00009   0.00000   0.00035   0.00035   1.95551
   A55        2.19058  -0.00001   0.00000  -0.00009  -0.00009   2.19049
   A56        2.20402   0.00006   0.00000   0.00021   0.00021   2.20423
   A57        1.88859  -0.00005   0.00000  -0.00012  -0.00012   1.88847
   A58        1.80514  -0.00003   0.00000  -0.00013  -0.00013   1.80501
   A59        1.92850   0.00002   0.00000  -0.00002  -0.00002   1.92849
   A60        1.92823   0.00004   0.00000   0.00052   0.00052   1.92875
   A61        1.96863  -0.00004   0.00000  -0.00060  -0.00060   1.96802
   A62        1.96732   0.00001   0.00000   0.00020   0.00020   1.96752
   A63        1.86692   0.00000   0.00000   0.00005   0.00005   1.86696
   A64        1.87946   0.00009   0.00000   0.00030   0.00030   1.87976
   A65        2.30940  -0.00007   0.00000  -0.00021  -0.00021   2.30919
   A66        2.09428  -0.00002   0.00000  -0.00009  -0.00009   2.09419
   A67        1.89643  -0.00010   0.00000  -0.00040  -0.00040   1.89602
   A68        2.24309   0.00004   0.00000   0.00028   0.00028   2.24337
   A69        2.14359   0.00007   0.00000   0.00013   0.00013   2.14372
   A70        2.03627   0.00009   0.00000   0.00023   0.00023   2.03650
   A71        2.13426  -0.00001   0.00000   0.00011   0.00011   2.13437
   A72        2.11260  -0.00008   0.00000  -0.00034  -0.00034   2.11227
   A73        2.11407   0.00005   0.00000   0.00024   0.00024   2.11431
   A74        2.11550  -0.00003   0.00000  -0.00014  -0.00014   2.11536
   A75        2.05350  -0.00003   0.00000  -0.00011  -0.00011   2.05339
   A76        2.11492  -0.00019   0.00000  -0.00064  -0.00064   2.11428
   A77        2.09217   0.00013   0.00000   0.00043   0.00043   2.09259
   A78        2.07585   0.00007   0.00000   0.00019   0.00019   2.07604
   A79        2.06293   0.00000   0.00000   0.00015   0.00015   2.06308
   A80        2.15426   0.00001   0.00000   0.00002   0.00002   2.15428
   A81        2.06589  -0.00001   0.00000  -0.00016  -0.00016   2.06573
   A82        1.76250   0.00018   0.00000   0.00070   0.00070   1.76320
   A83        1.79641   0.00006   0.00000   0.00020   0.00020   1.79662
   A84        1.80290   0.00016   0.00000   0.00070   0.00070   1.80360
   A85        2.00886  -0.00013   0.00000  -0.00065  -0.00065   2.00821
   A86        2.01320  -0.00009   0.00000  -0.00028  -0.00028   2.01292
   A87        2.02621  -0.00006   0.00000  -0.00020  -0.00020   2.02601
   A88        1.89928  -0.00007   0.00000  -0.00038  -0.00038   1.89890
   A89        1.73007   0.00014   0.00000   0.00072   0.00072   1.73079
   A90        1.91601   0.00013   0.00000   0.00079   0.00079   1.91680
   A91        1.89061  -0.00004   0.00000  -0.00029  -0.00029   1.89032
   A92        2.12962  -0.00008   0.00000  -0.00062  -0.00062   2.12900
   A93        1.85541  -0.00004   0.00000   0.00004   0.00004   1.85545
   A94        1.83358   0.00005   0.00000   0.00032   0.00032   1.83390
    D1       -0.00430   0.00000   0.00000   0.00000   0.00000  -0.00430
    D2       -3.13371   0.00000   0.00000  -0.00009  -0.00009  -3.13380
[...]
     30          8           0       -6.709296   -3.384358    0.522227
     31          8           0       -8.741827   -1.860274    0.650566
     32          1           0        6.427654    2.580606   -0.697126
     33          1           0        4.582043   -2.034307   -0.173733
     34          1           0        7.973053    0.620324   -0.378652
     35          1           0        2.182634   -0.295834    0.716822
     36          1           0        2.130865   -0.176163   -1.050728
     37          1           0        4.923311    3.969060    0.212292
     38          1           0        3.587808    4.254440   -0.946280
     39          1           0        3.264712    4.199823    0.815333
     40          1           0        1.239074    3.504518    0.055691
     41          1           0       -1.250728    3.512837    0.134121
     42          1           0       -0.046539    0.676785   -0.016761
     43          1           0       -4.564135    4.060416   -0.647875
     44          1           0       -4.592491    3.944813    1.135718
     45          1           0       -3.064062    4.330487    0.291697
     46          1           0       -2.202471   -0.256069    0.871097
     47          1           0       -2.236500   -0.164934   -0.898905
     48          1           0       -6.557616    2.595965    0.251849
     49          1           0       -8.037776    0.551454    0.186613
     50          1           0       -4.639672   -2.050773   -0.037325
     51          1           0        7.371536   -3.274547    1.860652
 ---------------------------------------------------------------------
 Rotational constants (GHZ):      0.2356745      0.0324896      0.0289557

 **********************************************************************

            Population analysis using the SCF density.

 **********************************************************************

 Orbital symmetries:
       Occupied  (A) (A) (A) (A) (A) (A) (A) (A) (A) (A) (A) (A)
                 (A) (A) (A) (A) (A) (A) (A) (A) (A) (A) (A) (A)
                 (A) (A) (A) (A) (A) (A) (A) (A) (A) (A) (A) (A)
                 (A) (A) (A) (A) (A) (A) (A) (A) (A) (A) (A) (A)
                 (A) (A) (A) (A) (A) (A) (A) (A) (A) (A) (A) (A)
                 (A) (A) (A) (A) (A) (A) (A) (A) (A) (A) (A) (A)
                 (A) (A) (A) (A) (A) (A) (A) (A) (A) (A) (A) (A)
                 (A) (A) (A) (A) (A) (A) (A) (A) (A) (A) (A) (A)
                 (A) (A) (A) (A) (A) (A) (A) (A) (A) (A) (A) (A)
                 (A) (A) (A) (A) (A) (A) (A) (A) (A) (A) (A) (A)
       Virtual   (A) (A) (A) (A) (A) (A) (A) (A) (A) (A) (A) (A)
                 (A) (A) (A) (A) (A) (A) (A) (A) (A) (A) (A) (A)
                 (A) (A) (A) (A) (A) (A) (A) (A) (A) (A) (A) (A)
                 (A) (A) (A) (A) (A) (A) (A) (A) (A) (A) (A) (A)
                 (A) (A) (A) (A) (A) (A) (A) (A) (A) (A) (A) (A)
                 (A) (A) (A) (A) (A) (A) (A) (A) (A) (A) (A) (A)
                 (A) (A) (A) (A) (A) (A) (A) (A) (A) (A) (A) (A)
                 (A) (A) (A) (A) (A) (A) (A) (A) (A) (A) (A) (A)
                 (A) (A) (A) (A) (A) (A) (A) (A) (A) (A) (A) (A)
                 (A) (A) (A) (A) (A) (A) (A) (A) (A) (A) (A) (A)
                 (A) (A) (A) (A) (A) (A) (A) (A) (A) (A) (A) (A)
                 (A) (A) (A) (A) (A) (A) (A) (A) (A) (A) (A) (A)
                 (A) (A) (A) (A) (A) (A) (A) (A) (A) (A) (A) (A)
                 (A) (A) (A) (A) (A) (A) (A) (A) (A) (A) (A) (A)
                 (A) (A) (A) (A) (A) (A) (A) (A) (A) (A) (A) (A)
                 (A) (A) (A) (A) (A) (A) (A) (A) (A) (A) (A) (A)
                 (A) (A) (A) (A) (A) (A) (A) (A) (A) (A) (A) (A)
                 (A) (A) (A) (A) (A) (A) (A) (A) (A) (A) (A) (A)
                 (A) (A) (A) (A) (A) (A) (A) (A) (A) (A) (A) (A)
                 (A) (A) (A) (A) (A) (A) (A) (A) (A) (A) (A) (A)
                 (A) (A) (A) (A) (A) (A) (A) (A) (A) (A) (A) (A)
                 (A) (A) (A) (A) (A) (A) (A) (A) (A) (A) (A) (A)
                 (A) (A) (A) (A) (A) (A) (A) (A) (A) (A) (A) (A)
                 (A) (A) (A) (A) (A) (A) (A) (A) (A) (A) (A) (A)
                 (A) (A) (A) (A) (A) (A) (A) (A) (A) (A) (A) (A)
                 (A) (A) (A) (A) (A) (A) (A) (A) (A) (A) (A) (A)
                 (A) (A) (A) (A) (A) (A) (A) (A) (A) (A) (A) (A)
                 (A) (A) (A) (A) (A) (A) (A) (A) (A) (A) (A) (A)
                 (A) (A) (A) (A) (A) (A) (A) (A) (A) (A) (A) (A)
                 (A) (A) (A) (A) (A) (A) (A) (A) (A) (A) (A) (A)
                 (A) (A) (A) (A) (A) (A) (A) (A) (A) (A) (A) (A)
                 (A) (A) (A) (A) (A) (A) (A) (A) (A) (A) (A) (A)
                 (A) (A) (A) (A) (A) (A) (A) (A) (A) (A) (A) (A)
                 (A) (A) (A) (A) (A) (A) (A) (A) (A) (A) (A) (A)
                 (A) (A) (A) (A) (A) (A) (A) (A) (A) (A) (A) (A)
                 (A) (A)
 The electronic state is 1-A.
 Alpha  occ. eigenvalues --  -89.14932 -89.01697 -19.21071 -19.16679 -19.16542
 Alpha  occ. eigenvalues --  -19.02760 -19.02742 -19.02667 -14.46037 -14.45126
 Alpha  occ. eigenvalues --  -10.31144 -10.31128 -10.29666 -10.29253 -10.28675
 Alpha  occ. eigenvalues --  -10.27117 -10.27008 -10.26566 -10.26039 -10.25787
 Alpha  occ. eigenvalues --  -10.25687 -10.25528 -10.25248 -10.25179 -10.25096
 Alpha  occ. eigenvalues --  -10.24696 -10.22018 -10.21353 -10.19530 -10.19267
 Alpha  occ. eigenvalues --  -10.18831  -8.18092  -8.04533  -6.14515  -6.14362
 Alpha  occ. eigenvalues --   -6.14219  -6.00863  -6.00836  -6.00827  -1.15777
 Alpha  occ. eigenvalues --   -1.05982  -1.05720  -1.05228  -1.03082  -1.01595
 Alpha  occ. eigenvalues --   -0.92339  -0.88906  -0.88343  -0.88063  -0.87833
 Alpha  occ. eigenvalues --   -0.86894  -0.84785  -0.82669  -0.80964  -0.78237
 Alpha  occ. eigenvalues --   -0.77280  -0.76540  -0.74989  -0.73608  -0.71578
 Alpha  occ. eigenvalues --   -0.68299  -0.66283  -0.65093  -0.63050  -0.62390
 Alpha  occ. eigenvalues --   -0.60881  -0.60112  -0.58621  -0.57290  -0.56810
 Alpha  occ. eigenvalues --   -0.54857  -0.54506  -0.54224  -0.53908  -0.53389
 Alpha  occ. eigenvalues --   -0.52173  -0.51263  -0.50732  -0.49853  -0.49119
 Alpha  occ. eigenvalues --   -0.48689  -0.48541  -0.48259  -0.47562  -0.47130
 Alpha  occ. eigenvalues --   -0.46742  -0.46140  -0.45475  -0.45341  -0.44554
 Alpha  occ. eigenvalues --   -0.44096  -0.43516  -0.43268  -0.42133  -0.41437
 Alpha  occ. eigenvalues --   -0.41062  -0.40687  -0.40452  -0.39105  -0.38368
 Alpha  occ. eigenvalues --   -0.38261  -0.36686  -0.36286  -0.36144  -0.35315
 Alpha  occ. eigenvalues --   -0.34696  -0.34155  -0.34080  -0.32175  -0.31152
 Alpha  occ. eigenvalues --   -0.31083  -0.27346  -0.26654  -0.24264  -0.23635
 Alpha  occ. eigenvalues --   -0.23527  -0.20830  -0.20591  -0.19629  -0.16467
 Alpha virt. eigenvalues --   -0.13827  -0.07697  -0.07390  -0.03926  -0.01947
 Alpha virt. eigenvalues --   -0.00213  -0.00044   0.00565   0.01086   0.01479
 Alpha virt. eigenvalues --    0.02319   0.03124   0.03620   0.04422   0.05093
 Alpha virt. eigenvalues --    0.05733   0.06229   0.06714   0.07355   0.07571
 Alpha virt. eigenvalues --    0.07773   0.08041   0.08309   0.08701   0.09165
 Alpha virt. eigenvalues --    0.09272   0.09757   0.10143   0.10776   0.11029
 Alpha virt. eigenvalues --    0.12250   0.12875   0.13153   0.13869   0.14663
 Alpha virt. eigenvalues --    0.15170   0.16133   0.17077   0.17231   0.18243
 Alpha virt. eigenvalues --    0.19020   0.19374   0.20759   0.22378   0.23398
 Alpha virt. eigenvalues --    0.24979   0.25338   0.26255   0.27190   0.27482
 Alpha virt. eigenvalues --    0.28699   0.29604   0.29983   0.30409   0.32166
 Alpha virt. eigenvalues --    0.33350   0.33685   0.34173   0.34849   0.35087
 Alpha virt. eigenvalues --    0.35354   0.36828   0.38022   0.38903   0.39418
 Alpha virt. eigenvalues --    0.39648   0.40175   0.40882   0.41261   0.41852
 Alpha virt. eigenvalues --    0.42248   0.42381   0.42549   0.43211   0.43318
 Alpha virt. eigenvalues --    0.43757   0.44519   0.44860   0.45842   0.46176
 Alpha virt. eigenvalues --    0.46534   0.46612   0.47380   0.47641   0.48012
 Alpha virt. eigenvalues --    0.48270   0.48721   0.49272   0.49306   0.49754
 Alpha virt. eigenvalues --    0.49767   0.50591   0.51524   0.51759   0.52094
 Alpha virt. eigenvalues --    0.52392   0.53136   0.53484   0.53976   0.54661
 Alpha virt. eigenvalues --    0.54727   0.55496   0.55727   0.56193   0.56281
 Alpha virt. eigenvalues --    0.56780   0.57325   0.57724   0.58192   0.58505
 Alpha virt. eigenvalues --    0.58948   0.59350   0.59666   0.60171   0.60702
 Alpha virt. eigenvalues --    0.61259   0.61629   0.61901   0.62806   0.63011
 Alpha virt. eigenvalues --    0.63205   0.64148   0.64421   0.64824   0.65873
 Alpha virt. eigenvalues --    0.66089   0.66282   0.66778   0.66998   0.67992
 Alpha virt. eigenvalues --    0.68439   0.69445   0.69664   0.69939   0.70780
 Alpha virt. eigenvalues --    0.71238   0.73154   0.73594   0.73945   0.74680
 Alpha virt. eigenvalues --    0.76489   0.77127   0.77592   0.78247   0.78463
 Alpha virt. eigenvalues --    0.79846   0.80676   0.82063   0.82578   0.83538
 Alpha virt. eigenvalues --    0.83656   0.84359   0.85246   0.85426   0.85859
 Alpha virt. eigenvalues --    0.87449   0.87883   0.88664   0.88740   0.89094
 Alpha virt. eigenvalues --    0.89787   0.90070   0.90506   0.91126   0.91738
 Alpha virt. eigenvalues --    0.92090   0.92722   0.93213   0.93959   0.94379
 Alpha virt. eigenvalues --    0.94953   0.95384   0.96261   0.96727   0.97221
 Alpha virt. eigenvalues --    0.97520   0.98336   0.98625   0.99269   1.00227
 Alpha virt. eigenvalues --    1.00502   1.01979   1.02448   1.03423   1.04385
 Alpha virt. eigenvalues --    1.05021   1.05706   1.06159   1.07368   1.07732
 Alpha virt. eigenvalues --    1.08321   1.08480   1.10531   1.11367   1.11724
 Alpha virt. eigenvalues --    1.12310   1.13599   1.13691   1.14590   1.15577
 Alpha virt. eigenvalues --    1.15863   1.15963   1.16435   1.17004   1.17987
 Alpha virt. eigenvalues --    1.19801   1.20295   1.20512   1.21085   1.21967
 Alpha virt. eigenvalues --    1.22952   1.23347   1.25010   1.26281   1.26307
 Alpha virt. eigenvalues --    1.27277   1.27679   1.27887   1.27995   1.29372
 Alpha virt. eigenvalues --    1.30021   1.31453   1.31747   1.32666   1.33544
 Alpha virt. eigenvalues --    1.33912   1.34316   1.34553   1.34862   1.35907
 Alpha virt. eigenvalues --    1.36128   1.36451   1.37421   1.38896   1.39123
 Alpha virt. eigenvalues --    1.39987   1.41542   1.42632   1.42836   1.44000
 Alpha virt. eigenvalues --    1.45282   1.46541   1.47790   1.48330   1.48711
 Alpha virt. eigenvalues --    1.49334   1.49650   1.49782   1.50563   1.52135
 Alpha virt. eigenvalues --    1.52856   1.53407   1.53879   1.54701   1.55127
 Alpha virt. eigenvalues --    1.55398   1.55968   1.56195   1.56476   1.56709
 Alpha virt. eigenvalues --    1.57971   1.58176   1.58898   1.59726   1.60486
 Alpha virt. eigenvalues --    1.61957   1.62273   1.62916   1.64180   1.64802
 Alpha virt. eigenvalues --    1.65043   1.65916   1.66160   1.66539   1.67255
 Alpha virt. eigenvalues --    1.67743   1.68932   1.69559   1.70025   1.71066
 Alpha virt. eigenvalues --    1.71586   1.72842   1.73126   1.73675   1.74601
 Alpha virt. eigenvalues --    1.75039   1.76097   1.76600   1.76703   1.77389
 Alpha virt. eigenvalues --    1.77739   1.78430   1.79332   1.79436   1.80252
 Alpha virt. eigenvalues --    1.80844   1.81905   1.82744   1.83295   1.83914
 Alpha virt. eigenvalues --    1.84244   1.85778   1.86895   1.87248   1.88497
 Alpha virt. eigenvalues --    1.90081   1.90175   1.90795   1.91106   1.92268
 Alpha virt. eigenvalues --    1.93474   1.93720   1.94868   1.95765   1.96435
 Alpha virt. eigenvalues --    1.97484   1.97640   1.99434   2.00404   2.01207
 Alpha virt. eigenvalues --    2.01798   2.01918   2.02417   2.02573   2.03192
 Alpha virt. eigenvalues --    2.03935   2.05016   2.06188   2.07138   2.07636
 Alpha virt. eigenvalues --    2.08110   2.08161   2.09469   2.09916   2.10248
 Alpha virt. eigenvalues --    2.10653   2.12366   2.13006   2.13584   2.15076
 Alpha virt. eigenvalues --    2.16344   2.17332   2.17521   2.20064   2.23557
 Alpha virt. eigenvalues --    2.24900   2.25895   2.26401   2.28717   2.29657
 Alpha virt. eigenvalues --    2.30596   2.31247   2.31416   2.32402   2.35538
 Alpha virt. eigenvalues --    2.36008   2.36203   2.36787   2.37691   2.38715
 Alpha virt. eigenvalues --    2.41221   2.42478   2.44147   2.44744   2.45954
 Alpha virt. eigenvalues --    2.47228   2.47886   2.49298   2.49362   2.49613
 Alpha virt. eigenvalues --    2.53534   2.53902   2.54843   2.55195   2.56172
 Alpha virt. eigenvalues --    2.57291   2.57938   2.59140   2.59890   2.60363
 Alpha virt. eigenvalues --    2.61298   2.61815   2.62330   2.63555   2.64090
 Alpha virt. eigenvalues --    2.64648   2.70098   2.70237   2.70643   2.71763
 Alpha virt. eigenvalues --    2.72323   2.73629   2.74666   2.75085   2.76232
 Alpha virt. eigenvalues --    2.76443   2.78437   2.81245   2.83076   2.83705
 Alpha virt. eigenvalues --    2.84510   2.85825   2.87986   2.89163   2.91186
 Alpha virt. eigenvalues --    2.93609   2.95060   2.96774   2.97153   2.98960
 Alpha virt. eigenvalues --    3.05153   3.07268   3.08578   3.10852   3.20683
 Alpha virt. eigenvalues --    3.26016   3.28628   3.30950   3.37928   3.41074
 Alpha virt. eigenvalues --    3.41864   3.58175
          Condensed to atoms (all electrons):
 Mulliken atomic charges:
              1
     1  C    0.004631
     2  C    0.200542
     3  C   -0.115573
     4  C    0.064756
     5  C   -0.256521
     6  C    0.092338
     7  C    0.135168
     8  C    0.072817
     9  N   -0.287981
    10  C    0.076801
    11  C   -0.051107
    12  C   -0.038069
    13  C    0.061571
    14  C    0.073042
    15  N   -0.251405
    16  C    0.058358
    17  C    0.149349
    18  C   -0.112462
    19  C    0.214451
    20  C   -0.008195
    21  C    0.107685
    22  C   -0.242633
    23  C    0.043272
    24  S    0.986170
    25  S    0.997031
    26  O   -0.410863
    27  O   -0.325219
    28  O   -0.438371
    29  O   -0.517530
    30  O   -0.525344
    31  O   -0.520271
    32  H   -0.000297
    33  H   -0.008901
    34  H    0.014646
    35  H    0.080188
    36  H    0.081614
    37  H    0.055731
    38  H    0.055718
    39  H    0.059651
    40  H   -0.030821
    41  H   -0.023066
    42  H   -0.008785
    43  H    0.072305
    44  H    0.072488
    45  H    0.054069
    46  H    0.081509
    47  H    0.081753
    48  H   -0.032154
    49  H   -0.006547
    50  H   -0.026361
    51  H    0.190821
 Sum of Mulliken atomic charges =   0.00000
 Mulliken charges with hydrogens summed into heavy atoms:
              1
     1  C    0.004334
     2  C    0.200542
     3  C   -0.115573
     4  C    0.055855
     5  C   -0.256521
     6  C    0.106983
     7  C    0.296970
     8  C    0.072817
     9  N   -0.287981
    10  C    0.247901
    11  C   -0.081927
    12  C   -0.061135
    13  C    0.052786
    14  C    0.271904
    15  N   -0.251405
    16  C    0.058358
    17  C    0.312611
    18  C   -0.112462
    19  C    0.214451
    20  C   -0.040349
    21  C    0.101138
    22  C   -0.242633
    23  C    0.016911
    24  S    0.986170
    25  S    0.997031
    26  O   -0.410863
    27  O   -0.134398
    28  O   -0.438371
    29  O   -0.517530
    30  O   -0.525344
    31  O   -0.520271
 Sum of Mulliken charges with hydrogens summed into heavy atoms =   0.00000
 Electronic spatial extent (au):  <R**2>=          33037.4685
 Charge=              0.0000 electrons
 Dipole moment (field-independent basis, Debye):
    X=             21.5983    Y=             19.1757    Z=              2.0765  Tot=             28.9570
 Quadrupole moment (field-independent basis, Debye-Ang):
   XX=           -389.3574   YY=           -181.9071   ZZ=           -200.5668
   XY=            -66.1134   XZ=              3.4041   YZ=             -7.5945
 Traceless Quadrupole moment (field-independent basis, Debye-Ang):
   XX=           -132.0803   YY=             75.3700   ZZ=             56.7103
   XY=            -66.1134   XZ=              3.4041   YZ=             -7.5945
 Octapole moment (field-independent basis, Debye-Ang**2):
  XXX=           1314.6200  YYY=            175.0514  ZZZ=             13.9060  XYY=            195.3052
  XXY=            810.5957  XXZ=            109.5534  XZZ=             62.6599  YZZ=            -12.7877
  YYZ=             36.6018  XYZ=            -57.2307
 Hexadecapole moment (field-independent basis, Debye-Ang**3):
 XXXX=         -53353.8083 YYYY=          -4856.4888 ZZZZ=           -480.0322 XXXY=          -3631.9069
 XXXZ=            418.3708 YYYX=           -707.6835 YYYZ=           -100.5597 ZZZX=              1.0544
 ZZZY=            -43.2018 XXYY=          -7757.4349 XXZZ=          -6688.5492 YYZZ=           -941.9775
 XXYZ=           -478.1482 YYXZ=            213.6274 ZZXY=           -202.0773
 N-N= 3.071053826047D+03 E-N=-1.123208401293D+04  KE= 2.158459246563D+03
 1\1\GINC-NODE109\Scan\RB3LYP\CC-pVDZ\C21H20N2O6S2\CHS2057\17-Mar-2015\
 0\\# opt=modredundant B3LYP/cc-pVDZ Geom=PrintInputOrient\\CY3 Dihedra
 l Scan at MP2/6-31G*\\0,1\C,4.5012581929,4.297624311,-0.4859474902\C,3
 .1575522383,4.2074146237,-0.1126302961\C,2.4512715016,2.9985682541,-0.
 2754642804\C,3.1649514109,1.8128132454,-0.3611288891\C,4.5704349707,1.
 8946499807,-0.331401697\C,5.2499646972,3.1162174418,-0.384113254\C,0.9
 760807747,3.2874411492,-0.1614566965\C,0.942115624,4.7884519524,0.0799
 154747\N,2.2381405896,5.2490990257,0.0955089156\C,2.6042270579,6.64122
 80339,0.2877065083\C,-0.1706769792,5.5859341027,0.2405538032\C,-2.6309
 413066,5.8546106324,0.3730514317\C,-1.4954332017,5.0843536225,0.222517
 79\C,-5.2017858422,7.4491968739,0.7098616062\N,-5.0742413257,6.0149132
 103,0.4867254304\C,-3.9382680146,5.3151658495,0.3421184674\C,-4.302264
 9057,3.8587127086,0.1349108769\C,-5.8086180897,3.8653542532,0.17752829
 04\C,-6.2236967444,5.1891014568,0.3932439291\C,-7.5677933349,5.5530977
 737,0.4992218924\C,-8.5073642064,4.5274315191,0.3709543903\C,-8.107942
 4699,3.2009521365,0.1402388286\C,-6.7486743858,2.8557714625,0.05726030
 87\S,-9.3762054067,1.8881412158,-0.10275912\S,5.5187341663,0.376250398
 4,-0.3225943412\O,6.8962728385,0.6746226778,-0.7455544145\O,5.53471808
 91,0.0731227246,1.3161733801\O,4.7266467679,-0.7120683164,-0.936470351
 7\O,-9.5696586868,1.9497799361,-1.5896092787\O,-8.6832151943,0.6554706
 051,0.396806233\O,-10.5344918257,2.370642302,0.7153070087\H,5.01003626
 87,5.2583372027,-0.5807226097\H,2.677266255,0.840524064,-0.443763135\H
 ,6.3355863504,3.1215644844,-0.4832045193\H,0.4954729267,2.735017342,0.
 662226948\H,0.4325057086,3.0268962223,-1.0847926866\H,3.6797342058,6.7
 081709804,0.4898710237\H,2.3675361701,7.2445768923,-0.6045264669\H,2.0
 649793378,7.0580483707,1.1516978013\H,-0.0350433385,6.660443313,0.3799
 926804\H,-2.5076008934,6.9296025271,0.5190816976\H,-1.6236888888,4.007
 4999167,0.0763185683\H,-5.751614844,7.9029209194,-0.1282613077\H,-5.76
 7612862,7.62218092,1.6370441556\H,-4.2180340032,7.9192642207,0.7957599
 928\H,-3.8562847116,3.2323868392,0.9255937005\H,-3.9047819504,3.494346
 9458,-0.8269454676\H,-7.8808460329,6.5830883982,0.6795152361\H,-9.5769
 138037,4.7255265371,0.4604836088\H,-6.4879083867,1.805279687,-0.086367
 0478\H,5.3421156643,-0.8807407527,1.3985230999\\Version=EM64L-G09RevB.
 01\State=1-A\HF=-2169.3948994,-2169.3922843,-2169.3840127\RMSD=6.442e-
 09,5.825e-09,3.171e-09\PG=C01 [X(C21H20N2O6S2)]\\@


 THERE ARE PEOPLE SO ADDICTED TO EXAGERATING THEY
 CAN'T TELL THE TRUTH WITHOUT LYING. -- FORTUNE COOKIE
 Job cpu time:  0 days 16 hours  3 minutes 37.3 seconds.
 File lengths (MBytes):  RWF=    278 Int=      0 D2E=      0 Chk=     21 Scr=      2
 Normal termination of Gaussian 09 at Tue Mar 17 16:30:11 2015.
