    -----------------------------------------------------------------------
          Psi4: An Open-Source Ab Initio Electronic Structure Package
                              Psi4 1.0.0 Driver

                          Git: Rev {master} 6a9a71b 

    J. M. Turney, A. C. Simmonett, R. M. Parrish, E. G. Hohenstein,
    F. A. Evangelista, J. T. Fermann, B. J. Mintz, L. A. Burns, J. J. Wilke,
    M. L. Abrams, N. J. Russ, M. L. Leininger, C. L. Janssen, E. T. Seidl,
    W. D. Allen, H. F. Schaefer, R. A. King, E. F. Valeev, C. D. Sherrill,
    and T. D. Crawford, WIREs Comput. Mol. Sci. 2, 556-565 (2012)
    (doi: 10.1002/wcms.93)

                         Additional Contributions by
    A. E. DePrince, U. Bozkaya, A. Yu. Sokolov, D. G. A. Smith, R. Di Remigio,
    R. M. Richard, J. F. Gonthier, H. R. McAlexander, M. Saitow, and
    B. P. Pritchard
    -----------------------------------------------------------------------


    Psi4 started on: Tue Feb 21 17:59:19 2017

    Process ID:  34344
    PSI4DATADIR: /Users/sternc1/anaconda/share/psi4
    Memory level set to 256.000 MB

  ==> Input File <==

--------------------------------------------------------------------------

memory 1000 mb

molecule butane {
  symmetry C1
  0 1 
  H      1.604   0.760   -8.260
  H      1.745   2.388   -8.880
  H      2.043   1.024   -9.930
  C      2.142   1.395   -8.932
  H      4.169   2.051   -9.210
  H      3.731   1.788   -7.539
  C      3.631   1.416   -8.537
  H      3.665   -0.647   -7.940
  H      4.104   -0.384   -9.610
  C      4.203   -0.012   -8.612
  H      6.088   -0.983   -8.269
  H      5.790   0.381   -7.219
  H      6.230   0.644   -8.889
  C      5.691   0.009   -8.217
  units Angstrom
}

dih_string = "4 7 10 14 180.001"
set optking fixed_dihedral = $dih_string

optimize('B3LYP/cc-PVDZ')
--------------------------------------------------------------------------

  Memory set to 1000.000 MiB by Python script.
gradient() will perform analytic gradient computation.

*** tstart() called on lski1497
*** at Tue Feb 21 17:59:21 2017


         ---------------------------------------------------------
                                   SCF
            by Justin Turney, Rob Parrish, and Andy Simmonett
                              RKS Reference
                        1 Threads,   1000 MiB Core
         ---------------------------------------------------------

  ==> Geometry <==

    Molecular point group: c1
    Full point group: C1

    Geometry (in Angstrom), charge = 0, multiplicity = 1:

       Center              X                  Y                   Z               Mass       
    ------------   -----------------  -----------------  -----------------  -----------------
           H         -2.312776029323     0.057965294236     0.314517352882     1.007825032070
           H         -2.171776029323     1.685965294236    -0.305482647118     1.007825032070
           H         -1.873776029323     0.321965294236    -1.355482647118     1.007825032070
           C         -1.774776029323     0.692965294236    -0.357482647118    12.000000000000
           H          0.252223970677     1.348965294236    -0.635482647118     1.007825032070
           H         -0.185776029323     1.085965294236     1.035517352882     1.007825032070
           C         -0.285776029323     0.713965294236     0.037517352882    12.000000000000
           H         -0.251776029323    -1.349034705764     0.634517352882     1.007825032070
           H          0.187223970677    -1.086034705764    -1.035482647118     1.007825032070
           C          0.286223970677    -0.714034705764    -0.037482647118    12.000000000000
           H          2.171223970677    -1.685034705764     0.305517352882     1.007825032070
           H          1.873223970677    -0.321034705764     1.355517352882     1.007825032070
           H          2.313223970677    -0.058034705764    -0.314482647118     1.007825032070
           C          1.774223970677    -0.693034705764     0.357517352882    12.000000000000

  Running in c1 symmetry.

  Rotational constants: A =      0.76946  B =      0.12464  C =      0.11637 [cm^-1]
  Rotational constants: A =  23067.68991  B =   3736.52948  C =   3488.75156 [MHz]
  Nuclear repulsion =  131.817319909035746

  Charge       = 0
  Multiplicity = 1
  Electrons    = 34
  Nalpha       = 17
  Nbeta        = 17

  ==> Algorithm <==

  SCF Algorithm Type is DF.
  DIIS enabled.
  MOM disabled.
  Fractional occupation disabled.
  Guess Type is SAD.
  Energy threshold   = 1.00e-08
  Density threshold  = 1.00e-08
  Integral threshold = 0.00e+00

  ==> Primary Basis <==

  Basis Set: CC-PVDZ
    Number of shells: 54
    Number of basis function: 106
    Number of Cartesian functions: 110
    Spherical Harmonics?: true
    Max angular momentum: 2

  ==> DFT Potential <==

   => B3LYP Composite Functional <= 

    B3LYP Hybrid-GGA Exchange-Correlation Functional (VWN1-RPA)

    P.J. Stephens et. al., J. Phys. Chem., 98, 11623-11627, 1994

    Points   =           5000
    Deriv    =              1
    GGA      =           TRUE
    Meta     =          FALSE

    X_LRC        =          FALSE
    X_Hybrid     =           TRUE
    X_Alpha      =   2.000000E-01
    X_Omega      =   0.000000E+00
    C_LRC        =          FALSE
    C_Hybrid     =          FALSE
    C_Alpha      =   0.000000E+00
    C_Omega      =   0.000000E+00

   => Exchange Functionals <=

    0.8000    B3_X
    0.2000      HF 

   => Correlation Functionals <=

    0.1900 VWN3RPA_C
    0.8100   LYP_C

   => Molecular Quadrature <=

    Radial Scheme    =       TREUTLER
    Pruning Scheme   =           FLAT
    Nuclear Scheme   =       TREUTLER

    BS radius alpha  =              1
    Pruning alpha    =              1
    Radial Points    =             75
    Spherical Points =            302
    Total Points     =         312700
    Total Blocks     =            278
    Max Points       =           4724
    Max Functions    =            106

  ==> Pre-Iterations <==

   -------------------------------------------------------
    Irrep   Nso     Nmo     Nalpha   Nbeta   Ndocc  Nsocc
   -------------------------------------------------------
     A        106     106       0       0       0       0
   -------------------------------------------------------
    Total     106     106      17      17      17       0
   -------------------------------------------------------

  ==> Integral Setup <==

  ==> DFJK: Density-Fitted J/K Matrices <==

    J tasked:                  Yes
    K tasked:                  Yes
    wK tasked:                  No
    OpenMP threads:              1
    Integrals threads:           1
    Memory (MB):               715
    Algorithm:                Core
    Integral Cache:           NONE
    Schwarz Cutoff:          1E-12
    Fitting Condition:       1E-12

   => Auxiliary Basis Set <=

  Basis Set: 
    Number of shells: 186
    Number of basis function: 510
    Number of Cartesian functions: 574
    Spherical Harmonics?: true
    Max angular momentum: 3

  Minimum eigenvalue in the overlap matrix is 3.7214047617E-03.
  Using Symmetric Orthogonalization.
  SCF Guess: Superposition of Atomic Densities via on-the-fly atomic UHF.

  ==> Iterations <==

                           Total Energy        Delta E     RMS |[F,P]|

   @DF-RKS iter   0:  -159.06518488709381   -1.59065e+02   3.41017e-02 
   @DF-RKS iter   1:  -158.31667022700682    7.48515e-01   4.50812e-03 
   @DF-RKS iter   2:  -158.28316878494587    3.35014e-02   5.16953e-03 DIIS
   @DF-RKS iter   3:  -158.44863474427311   -1.65466e-01   3.52069e-04 DIIS
   @DF-RKS iter   4:  -158.44929379863231   -6.59054e-04   1.29406e-04 DIIS
   @DF-RKS iter   5:  -158.44937905377375   -8.52551e-05   4.26094e-05 DIIS
   @DF-RKS iter   6:  -158.44938912726752   -1.00735e-05   3.32763e-06 DIIS
   @DF-RKS iter   7:  -158.44938919191344   -6.46459e-08   5.81379e-07 DIIS
   @DF-RKS iter   8:  -158.44938919403788   -2.12444e-09   6.90641e-08 DIIS
   @DF-RKS iter   9:  -158.44938919406923   -3.13491e-11   1.73441e-08 DIIS
   @DF-RKS iter  10:  -158.44938919407025   -1.02318e-12   9.95978e-09 DIIS

  ==> Post-Iterations <==

    Orbital Energies (a.u.)
    -----------------------

    Doubly Occupied:                                                      

       1A    -10.170363     2A    -10.170162     3A    -10.163746  
       4A    -10.163671     5A     -0.794323     6A     -0.723813  
       7A     -0.629586     8A     -0.580095     9A     -0.474069  
      10A     -0.426687    11A     -0.414625    12A     -0.412768  
      13A     -0.367284    14A     -0.354726    15A     -0.332272  
      16A     -0.330528    17A     -0.310100  

    Virtual:                                                              

      18A      0.063685    19A      0.085922    20A      0.101767  
      21A      0.107963    22A      0.141953    23A      0.152083  
      24A      0.155035    25A      0.164000    26A      0.174008  
      27A      0.180860    28A      0.226349    29A      0.228966  
      30A      0.241148    31A      0.405892    32A      0.412768  
      33A      0.414346    34A      0.434186    35A      0.451309  
      36A      0.500629    37A      0.507903    38A      0.587656  
      39A      0.611092    40A      0.653652    41A      0.664131  
      42A      0.665653    43A      0.673220    44A      0.682997  
      45A      0.683267    46A      0.687952    47A      0.696959  
      48A      0.709959    49A      0.726756    50A      0.732125  
      51A      0.752171    52A      0.759886    53A      0.891437  
      54A      0.911162    55A      0.969104    56A      1.091677  
      57A      1.217413    58A      1.228473    59A      1.234516  
      60A      1.237929    61A      1.320372    62A      1.334919  
      63A      1.437624    64A      1.438408    65A      1.469121  
      66A      1.494005    67A      1.570556    68A      1.626880  
      69A      1.629447    70A      1.633201    71A      1.640601  
      72A      1.661141    73A      1.672088    74A      1.688629  
      75A      1.722848    76A      1.723100    77A      1.726140  
      78A      1.733421    79A      1.740781    80A      1.772195  
      81A      1.775102    82A      1.775202    83A      1.881753  
      84A      1.963068    85A      1.974259    86A      1.981277  
      87A      1.984824    88A      2.104920    89A      2.108793  
      90A      2.193686    91A      2.247682    92A      2.250129  
      93A      2.280657    94A      2.352849    95A      2.357895  
      96A      2.373086    97A      2.469753    98A      2.496119  
      99A      2.511103   100A      2.512121   101A      2.557426  
     102A      2.575082   103A      2.630449   104A      2.662648  
     105A      2.752644   106A      2.753172  

    Final Occupation by Irrep:
              A 
    DOCC [    17 ]

  Energy converged.

  @DF-RKS Final Energy:  -158.44938919407025

   => Energetics <=

    Nuclear Repulsion Energy =            131.8173199090357457
    One-Electron Energy =                -472.0314633152587476
    Two-Electron Energy =                 202.4433742036536330
    DFT Exchange-Correlation Energy =     -20.6786199915008808
    Empirical Dispersion Energy =           0.0000000000000000
    PCM Polarization Energy =               0.0000000000000000
    EFP Energy =                            0.0000000000000000
    Total Energy =                       -158.4493891940702497


  Saving occupied orbitals to File 180.

*** tstop() called on lski1497 at Tue Feb 21 18:01:25 2017
Module time:
	user time   =     104.83 seconds =       1.75 minutes
	system time =       1.25 seconds =       0.02 minutes
	total time  =        124 seconds =       2.07 minutes
Total time:
	user time   =     104.83 seconds =       1.75 minutes
	system time =       1.25 seconds =       0.02 minutes
	total time  =        124 seconds =       2.07 minutes


Properties will be evaluated at   0.000000,   0.000000,   0.000000 Bohr

Properties computed using the SCF density matrix

  Nuclear Dipole Moment: (a.u.)
     X:     0.0012      Y:     0.0015      Z:    -0.0008

  Electronic Dipole Moment: (a.u.)
     X:    -0.0011      Y:    -0.0021      Z:     0.0007

  Dipole Moment: (a.u.)
     X:     0.0001      Y:    -0.0005      Z:    -0.0001     Total:     0.0005

  Dipole Moment: (Debye)
     X:     0.0002      Y:    -0.0013      Z:    -0.0003     Total:     0.0013


*** tstart() called on lski1497
*** at Tue Feb 21 18:01:25 2017


         ------------------------------------------------------------
                                   SCF GRAD                          
                          Rob Parrish, Justin Turney,                
                       Andy Simmonett, and Alex Sokolov              
         ------------------------------------------------------------

  ==> Geometry <==

    Molecular point group: c1
    Full point group: C1

    Geometry (in Angstrom), charge = 0, multiplicity = 1:

       Center              X                  Y                   Z               Mass       
    ------------   -----------------  -----------------  -----------------  -----------------
           H         -2.312776029323     0.057965294236     0.314517352882     1.007825032070
           H         -2.171776029323     1.685965294236    -0.305482647118     1.007825032070
           H         -1.873776029323     0.321965294236    -1.355482647118     1.007825032070
           C         -1.774776029323     0.692965294236    -0.357482647118    12.000000000000
           H          0.252223970677     1.348965294236    -0.635482647118     1.007825032070
           H         -0.185776029323     1.085965294236     1.035517352882     1.007825032070
           C         -0.285776029323     0.713965294236     0.037517352882    12.000000000000
           H         -0.251776029323    -1.349034705764     0.634517352882     1.007825032070
           H          0.187223970677    -1.086034705764    -1.035482647118     1.007825032070
           C          0.286223970677    -0.714034705764    -0.037482647118    12.000000000000
           H          2.171223970677    -1.685034705764     0.305517352882     1.007825032070
           H          1.873223970677    -0.321034705764     1.355517352882     1.007825032070
           H          2.313223970677    -0.058034705764    -0.314482647118     1.007825032070
           C          1.774223970677    -0.693034705764     0.357517352882    12.000000000000

  Nuclear repulsion =  131.817319909035746

  ==> Basis Set <==

  Basis Set: CC-PVDZ
    Number of shells: 54
    Number of basis function: 106
    Number of Cartesian functions: 110
    Spherical Harmonics?: true
    Max angular momentum: 2

  ==> DFJKGrad: Density-Fitted SCF Gradients <==

    Gradient:                    1
    J tasked:                  Yes
    K tasked:                  Yes
    wK tasked:                  No
    OpenMP threads:              1
    Integrals threads:           1
    Memory (MB):               715
    Schwarz Cutoff:          0E+00
    Fitting Condition:       1E-12

   => Auxiliary Basis Set <=

  Basis Set: 
    Number of shells: 186
    Number of basis function: 510
    Number of Cartesian functions: 574
    Spherical Harmonics?: true
    Max angular momentum: 3

  ==> DFT Potential <==

   => B3LYP Composite Functional <= 

    B3LYP Hybrid-GGA Exchange-Correlation Functional (VWN1-RPA)

    P.J. Stephens et. al., J. Phys. Chem., 98, 11623-11627, 1994

    Points   =           5000
    Deriv    =              1
    GGA      =           TRUE
    Meta     =          FALSE

    X_LRC        =          FALSE
    X_Hybrid     =           TRUE
    X_Alpha      =   2.000000E-01
    X_Omega      =   0.000000E+00
    C_LRC        =          FALSE
    C_Hybrid     =          FALSE
    C_Alpha      =   0.000000E+00
    C_Omega      =   0.000000E+00

   => Exchange Functionals <=

    0.8000    B3_X
    0.2000      HF 

   => Correlation Functionals <=

    0.1900 VWN3RPA_C
    0.8100   LYP_C

   => Molecular Quadrature <=

    Radial Scheme    =       TREUTLER
    Pruning Scheme   =           FLAT
    Nuclear Scheme   =       TREUTLER

    BS radius alpha  =              1
    Pruning alpha    =              1
    Radial Points    =             75
    Spherical Points =            302
    Total Points     =         312700
    Total Blocks     =            278
    Max Points       =           4724
    Max Functions    =            106


  -Total Gradient:
     Atom            X                  Y                   Z
    ------   -----------------  -----------------  -----------------
       1        0.014293282388     0.012844188397    -0.012492510771
       2        0.012672688292    -0.018781768468     0.000321206865
       3        0.005463211636     0.007722508106     0.021171255389
       4       -0.029331180251    -0.008433925856    -0.009349354153
       5       -0.013031067172    -0.015165443134     0.012085443721
       6       -0.004375775625    -0.010137598354    -0.021014794872
       7        0.025883746392     0.034610988757     0.012796374355
       8        0.013277272471     0.015435242398    -0.012400903562
       9        0.004454303879     0.010129023386     0.021109561632
      10       -0.025749749206    -0.034886653720    -0.012361716330
      11       -0.012931983567     0.019443760723    -0.000370852028
      12       -0.005465742931    -0.007579650613    -0.020959599488
      13       -0.014056050476    -0.012653812663     0.012294226140
      14        0.028897160986     0.007453174702     0.009171633538


*** tstop() called on lski1497 at Tue Feb 21 18:02:09 2017
Module time:
	user time   =      38.01 seconds =       0.63 minutes
	system time =       0.58 seconds =       0.01 minutes
	total time  =         44 seconds =       0.73 minutes
Total time:
	user time   =     142.86 seconds =       2.38 minutes
	system time =       1.83 seconds =       0.03 minutes
	total time  =        168 seconds =       2.80 minutes

			-----------------------------------------
			 OPTKING 2.0: for geometry optimizations 
			  - R.A. King,  Bethel University        
			-----------------------------------------

	Internal coordinates to be generated automatically.
	Detected frag 1 with atoms:  1 2 3 4 5 6 7 8 9 10 11 12 13 14
	---Fragment 1 Bond Connectivity---
	 1 : 4
	 2 : 4
	 3 : 4
	 4 : 1 2 3 7
	 5 : 7
	 6 : 7
	 7 : 4 5 6 10
	 8 : 10
	 9 : 10
	 10 : 7 8 9 14
	 11 : 14
	 12 : 14
	 13 : 14
	 14 : 10 11 12 13

	Assuming in current code that numbering for constraints corresponds to unified fragment.
	Fixed dihedral atom list: 
	     4     7    10    14
	---Fragment 1 Geometry and Gradient---
	 H          -4.3705133021        0.1095385313        0.5943516610
	 H          -4.1040619174        3.1860126757       -0.5772785414
	 H          -3.5409235298        0.6084262304       -2.5614909809
	 C          -3.3538406426        1.3095146257       -0.6755443003
	 H           0.4766342287        2.5491749689       -1.2008881653
	 H          -0.3510658175        2.0521769959        1.9568442028
	 C          -0.5400384308        1.3491988745        0.0708975222
	 H          -0.4757877422       -2.5493061377        1.1990640235
	 H           0.3538020301       -2.0523081647       -1.9567786184
	 C           0.5408849172       -1.3493300433       -0.0708319378
	 H           4.1030186777       -3.1842541183        0.5773441258
	 H           3.5398802901       -0.6066676730        2.5615565653
	 H           4.3713597886       -0.1096697001       -0.5942860766
	 C           3.3527974030       -1.3096457945        0.6756098847
	             0.0142932824        0.0128441884       -0.0124925108
	             0.0126726883       -0.0187817685        0.0003212069
	             0.0054632116        0.0077225081        0.0211712554
	            -0.0293311803       -0.0084339259       -0.0093493542
	            -0.0130310672       -0.0151654431        0.0120854437
	            -0.0043757756       -0.0101375984       -0.0210147949
	             0.0258837464        0.0346109888        0.0127963744
	             0.0132772725        0.0154352424       -0.0124009036
	             0.0044543039        0.0101290234        0.0211095616
	            -0.0257497492       -0.0348866537       -0.0123617163
	            -0.0129319836        0.0194437607       -0.0003708520
	            -0.0054657429       -0.0075796506       -0.0209595995
	            -0.0140560505       -0.0126538127        0.0122942261
	             0.0288971610        0.0074531747        0.0091716335

	Previous optimization step data not found.  Starting new optimization.

	---Fragment 1 Intrafragment Coordinates---
	 - Coordinate -           - BOHR/RAD -       - ANG/DEG -
	 R(1,4)           =         2.021436	       1.069698
	 R(2,4)           =         2.023298	       1.070683
	 R(3,4)           =         2.020723	       1.069320
	 R(4,7)           =         2.911397	       1.540645
	 R(5,7)           =         2.022623	       1.070326
	 R(6,7)           =         2.021555	       1.069761
	 R(7,10)          =         2.910419	       1.540128
	 R(8,10)          =         2.021436	       1.069698
	 R(9,10)          =         2.021379	       1.069668
	 R(10,14)         =         2.909571	       1.539679
	 R(11,14)         =         2.021545	       1.069756
	 R(12,14)         =         2.021379	       1.069668
	 R(13,14)         =         2.022387	       1.070201
	 B(1,4,2)         =         1.910870	     109.484805
	 B(1,4,3)         =         1.911121	     109.499161
	 B(1,4,7)         =         1.910399	     109.457783
	 B(2,4,3)         =         1.910042	     109.437340
	 B(2,4,7)         =         1.910564	     109.467262
	 B(3,4,7)         =         1.910803	     109.480971
	 B(4,7,5)         =         1.909937	     109.431343
	 B(4,7,6)         =         1.911630	     109.528316
	 B(4,7,10)        =         1.911154	     109.501062
	 B(5,7,6)         =         1.910605	     109.469614
	 B(5,7,10)        =         1.910047	     109.437654
	 B(6,7,10)        =         1.910425	     109.459295
	 B(7,10,8)        =         1.910303	     109.452301
	 B(7,10,9)        =         1.910824	     109.482155
	 B(7,10,14)       =         1.911120	     109.499137
	 B(8,10,9)        =         1.910417	     109.458846
	 B(8,10,14)       =         1.910274	     109.450639
	 B(9,10,14)       =         1.910860	     109.484229
	 B(10,14,11)      =         1.910851	     109.483671
	 B(10,14,12)      =         1.910860	     109.484229
	 B(10,14,13)      =         1.911066	     109.496002
	 B(11,14,12)      =         1.910809	     109.481276
	 B(11,14,13)      =         1.910054	     109.438058
	 B(12,14,13)      =         1.910159	     109.444072
	 D(1,4,7,5)       =         3.140997	     179.965873
	 D(1,4,7,6)       =        -1.047644	     -60.025575
	 D(1,4,7,10)      =         1.047427	      60.013132
	 D(2,4,7,5)       =        -1.047689	     -60.028143
	 D(2,4,7,6)       =         1.046856	      59.980409
	 D(2,4,7,10)      =        -3.141259	    -179.980883
	 D(3,4,7,5)       =         1.046044	      59.933911
	 D(3,4,7,6)       =         3.140588	     179.942463
	 D(3,4,7,10)      =        -1.047526	     -60.018830
	 D(4,7,10,8)      =        -1.047368	     -60.009777
	 D(4,7,10,9)      =         1.046677	      59.970178
	 D(4,7,10,14)     =        -3.141419	    -179.990072
	 D(5,7,10,8)      =        -3.140871	    -179.958653
	 D(5,7,10,9)      =        -1.046826	     -59.978698
	 D(5,7,10,14)     =         1.048263	      60.061052
	 D(6,7,10,8)      =         1.048439	      60.071149
	 D(6,7,10,9)      =        -3.140701	    -179.948896
	 D(6,7,10,14)     =        -1.045612	     -59.909147
	 D(7,10,14,11)    =         3.141408	     179.989437
	 D(7,10,14,12)    =         1.046526	      59.961519
	 D(7,10,14,13)    =        -1.047693	     -60.028376
	 D(8,10,14,11)    =         1.047339	      60.008125
	 D(8,10,14,12)    =        -1.047543	     -60.019793
	 D(8,10,14,13)    =         3.141424	     179.990311
	 D(9,10,14,11)    =        -1.046710	     -59.972082
	 D(9,10,14,12)    =         3.141593	     180.000000
	 D(9,10,14,13)    =         1.047374	      60.010105

	Current energy   :      -158.4493891941

	Generating empirical Hessian (Schlegel '84) for each fragment.
	Adding user-defined constraint: Fragment 1; Coordinate 49:
		Value =    -3.141419; Fixed value    =    -3.141575
		Force =    -0.000078; Force constant =     0.500000
	Removing off-diagonal coupling between coordinate 49 and others.
	Taking RFO optimization step.
	Going to follow RFO solution 1.
	Using RFO vector 1.

	Determining step-restricting scale parameter for RS-RFO.
	Maximum step size allowed    0.10000

	 Iter      |step|        alpha        rfo_root  
	------------------------------------------------
	    0     0.24843       1.00000           1
	    1     0.18242       7.19094           1
	    2     0.13638      21.91551           1
	    3     0.11110      41.29459           1
	    4     0.10157      53.27116           1
	    5     0.10004      55.55111           1
	    6     0.10000      55.61072           1
	------------------------------------------------
	Norm of target step-size    0.10000
	Projected energy change by RFO approximation:        -0.0075604245

	Back-transformation to cartesian coordinates...
	Could not converge backtransformation.
	Using first guess instead.

	--- Internal Coordinate Step in ANG or DEG, aJ/ANG or AJ/DEG ---
	 ---------------------------------------------------------------------------
	   Coordinate                Previous        Force       Change         New 
	   ----------                --------       ------       ------       ------
	    1 R(1,4)          =      1.069698     0.186700     0.015091     1.084788
	    2 R(2,4)          =      1.070683     0.182096     0.014712     1.085395
	    3 R(3,4)          =      1.069320     0.189031     0.015268     1.084588
	    4 R(4,7)          =      1.540645     0.023181     0.002132     1.542777
	    5 R(5,7)          =      1.070326     0.190698     0.015391     1.085717
	    6 R(6,7)          =      1.069761     0.193935     0.015638     1.085399
	    7 R(7,10)         =      1.540128     0.013699     0.001343     1.541471
	    8 R(8,10)         =      1.069698     0.194689     0.015697     1.085395
	    9 R(9,10)         =      1.069668     0.194682     0.015696     1.085364
	   10 R(10,14)        =      1.539679     0.027282     0.002501     1.542180
	   11 R(11,14)        =      1.069756     0.187940     0.015161     1.084917
	   12 R(12,14)        =      1.069668     0.186995     0.015113     1.084781
	   13 R(13,14)        =      1.070201     0.183781     0.014866     1.085067
	   14 B(1,4,2)        =    109.484805    -0.000325    -0.411016   109.073788
	   15 B(1,4,3)        =    109.499161    -0.000264    -0.347394   109.151767
	   16 B(1,4,7)        =    109.457783     0.000234     0.293407   109.751190
	   17 B(2,4,3)        =    109.437340    -0.000318    -0.402277   109.035064
	   18 B(2,4,7)        =    109.467262     0.000448     0.577401   110.044663
	   19 B(3,4,7)        =    109.480971     0.000225     0.281875   109.762846
	   20 B(4,7,5)        =    109.431343    -0.000186    -0.193788   109.237555
	   21 B(4,7,6)        =    109.528316    -0.000193    -0.203869   109.324447
	   22 B(4,7,10)       =    109.501062     0.000853     1.023733   110.524795
	   23 B(5,7,6)        =    109.469614     0.000009    -0.074234   109.395380
	   24 B(5,7,10)       =    109.437654    -0.000242    -0.278603   109.159052
	   25 B(6,7,10)       =    109.459295    -0.000241    -0.277012   109.182283
	   26 B(7,10,8)       =    109.452301    -0.000243    -0.280316   109.171984
	   27 B(7,10,9)       =    109.482155    -0.000245    -0.283763   109.198392
	   28 B(7,10,14)      =    109.499137     0.000856     1.026789   110.525926
	   29 B(8,10,9)       =    109.458846     0.000010    -0.073209   109.385637
	   30 B(8,10,14)      =    109.450639    -0.000187    -0.193792   109.256847
	   31 B(9,10,14)      =    109.484229    -0.000191    -0.199595   109.284634
	   32 B(10,14,11)     =    109.483671     0.000448     0.578157   110.061828
	   33 B(10,14,12)     =    109.484229     0.000229     0.286879   109.771108
	   34 B(10,14,13)     =    109.496002     0.000225     0.282901   109.778903
	   35 B(11,14,12)     =    109.481276    -0.000323    -0.409278   109.071998
	   36 B(11,14,13)     =    109.438058    -0.000320    -0.404451   109.033608
	   37 B(12,14,13)     =    109.444072    -0.000260    -0.343065   109.101007
	   38 D(1,4,7,5)      =    179.965873     0.000021     0.131316   180.097189
	   39 D(1,4,7,6)      =    -60.025575    -0.000030    -0.200893   -60.226468
	   40 D(1,4,7,10)     =     60.013132    -0.000005    -0.035773    59.977360
	   41 D(2,4,7,5)      =    -60.028143     0.000025     0.165364   -59.862778
	   42 D(2,4,7,6)      =     59.980409    -0.000026    -0.166844    59.813565
	   43 D(2,4,7,10)     =   -179.980883    -0.000000    -0.001724  -179.982607
	   44 D(3,4,7,5)      =     59.933911     0.000030     0.202860    60.136771
	   45 D(3,4,7,6)      =    179.942463    -0.000020    -0.129348   179.813115
	   46 D(3,4,7,10)     =    -60.018830     0.000005     0.035772   -59.983058
	   47 D(4,7,10,8)     =    -60.009777     0.000033     0.218299   -59.791478
	   48 D(4,7,10,9)     =     59.970178    -0.000032    -0.212050    59.758129
	   49 D(4,7,10,14)    =   -179.990072    -0.000000    -0.001044  -179.991116
	   50 D(5,7,10,8)     =   -179.958653     0.000000     0.000272  -179.958380
	   51 D(5,7,10,9)     =    -59.978698    -0.000066    -0.430076   -60.408774
	   52 D(5,7,10,14)    =     60.061052    -0.000033    -0.219071    59.841981
	   53 D(6,7,10,8)     =     60.071149     0.000065     0.426359    60.497508
	   54 D(6,7,10,9)     =   -179.948896    -0.000001    -0.003990  -179.952886
	   55 D(6,7,10,14)    =    -59.909147     0.000032     0.207016   -59.702131
	   56 D(7,10,14,11)   =    179.989437     0.000000     0.001299   179.990736
	   57 D(7,10,14,12)   =     59.961519    -0.000004    -0.031894    59.929625
	   58 D(7,10,14,13)   =    -60.028376     0.000005     0.037710   -59.990666
	   59 D(8,10,14,11)   =     60.008125    -0.000025    -0.166157    59.841968
	   60 D(8,10,14,12)   =    -60.019793    -0.000030    -0.199350   -60.219143
	   61 D(8,10,14,13)   =    179.990311    -0.000020    -0.129746   179.860565
	   62 D(9,10,14,11)   =    -59.972082     0.000025     0.161903   -59.810179
	   63 D(9,10,14,12)   =    180.000000     0.000020     0.128711   180.128711
	   64 D(9,10,14,13)   =     60.010105     0.000030     0.198314    60.208419
	 ---------------------------------------------------------------------------
	 Forces used to impose fixed constraints are not included.
	  Forces zeroed: 49 

  ==> Convergence Check <==

  Measures of convergence in internal coordinates in au.
  Criteria marked as inactive (o), active & met (*), and active & unmet ( ).
  --------------------------------------------------------------------------------------------- ~
   Step     Total Energy     Delta E     MAX Force     RMS Force      MAX Disp      RMS Disp    ~
  --------------------------------------------------------------------------------------------- ~
    Convergence Criteria    1.00e-06 *    3.00e-04 *             o    1.20e-03 *             o  ~
  --------------------------------------------------------------------------------------------- ~
      1    -158.44938919   -1.58e+02      2.36e-02      9.58e-03 o    2.97e-02      1.25e-02 o  ~
  ---------------------------------------------------------------------------------------------

	Writing optimization data to binary file.
	Structure for next step:
	Cartesian Geometry (in Angstrom)
	    H    -2.3389850496   0.0591104712   0.3187177593
	    H    -2.1916690663   1.7054329900  -0.3076193248
	    H    -1.8946037154   0.3261091293  -1.3713468004
	    C    -1.7855792843   0.7001885400  -0.3591660146
	    H     0.2513213440   1.3565147060  -0.6472696009
	    H    -0.1928724287   1.0899904273   1.0471950000
	    C    -0.2940331588   0.7115685847   0.0349430879
	    H    -0.2512162086  -1.3566053730   0.6464573023
	    H     0.1940431986  -1.0898400430  -1.0472731085
	    C     0.2943131300  -0.7114906730  -0.0349432440
	    H     2.1914455677  -1.7048537061   0.3076472841
	    H     1.8943759369  -0.3252323380   1.3712762116
	    H     2.3393683926  -0.0591996614  -0.3185986092
	    C     1.7852269314  -0.7001789346   0.3592229975
			--------------------------
			 OPTKING Finished Execution 
			--------------------------

    Structure for next step:
    Molecular point group: c1
    Full point group: C1

    Geometry (in Angstrom), charge = 0, multiplicity = 1:

    H           -2.338991056033     0.059067632934     0.318720141182
    H           -2.191675072682     1.705390151701    -0.307616942959
    H           -1.894609721798     0.326066291044    -1.371344418516
    C           -1.785585290752     0.700145701761    -0.359163632780
    H            0.251315337590     1.356471867699    -0.647267219075
    H           -0.192878435170     1.089947589034     1.047197381800
    C           -0.294039165233     0.711525746486     0.034945469755
    H           -0.251222215045    -1.356648211241     0.646459684136
    H            0.194037192178    -1.089882881287    -1.047270726629
    C            0.294307123565    -0.711533511282    -0.034940862126
    H            2.191439561234    -1.704896544329     0.307649665952
    H            1.894369930480    -0.325275176297     1.371278593432
    H            2.339362386157    -0.059242499616    -0.318596227374
    C            1.785220924977    -0.700221772860     0.359225379347

gradient() will perform analytic gradient computation.

*** tstart() called on lski1497
*** at Tue Feb 21 18:02:10 2017


         ---------------------------------------------------------
                                   SCF
            by Justin Turney, Rob Parrish, and Andy Simmonett
                              RKS Reference
                        1 Threads,   1000 MiB Core
         ---------------------------------------------------------

  ==> Geometry <==

    Molecular point group: c1
    Full point group: C1

    Geometry (in Angstrom), charge = 0, multiplicity = 1:

       Center              X                  Y                   Z               Mass       
    ------------   -----------------  -----------------  -----------------  -----------------
           H         -2.338991056033     0.059067632934     0.318720141182     1.007825032070
           H         -2.191675072682     1.705390151701    -0.307616942959     1.007825032070
           H         -1.894609721798     0.326066291044    -1.371344418516     1.007825032070
           C         -1.785585290752     0.700145701761    -0.359163632780    12.000000000000
           H          0.251315337590     1.356471867699    -0.647267219075     1.007825032070
           H         -0.192878435170     1.089947589034     1.047197381800     1.007825032070
           C         -0.294039165233     0.711525746486     0.034945469755    12.000000000000
           H         -0.251222215045    -1.356648211241     0.646459684136     1.007825032070
           H          0.194037192178    -1.089882881287    -1.047270726629     1.007825032070
           C          0.294307123565    -0.711533511282    -0.034940862126    12.000000000000
           H          2.191439561234    -1.704896544329     0.307649665952     1.007825032070
           H          1.894369930480    -0.325275176297     1.371278593432     1.007825032070
           H          2.339362386157    -0.059242499616    -0.318596227374     1.007825032070
           C          1.785220924977    -0.700221772860     0.359225379347    12.000000000000

  Running in c1 symmetry.

  Rotational constants: A =      0.76588  B =      0.12260  C =      0.11477 [cm^-1]
  Rotational constants: A =  22960.49341  B =   3675.55421  C =   3440.69331 [MHz]
  Nuclear repulsion =  130.840176017247501

  Charge       = 0
  Multiplicity = 1
  Electrons    = 34
  Nalpha       = 17
  Nbeta        = 17

  ==> Algorithm <==

  SCF Algorithm Type is DF.
  DIIS enabled.
  MOM disabled.
  Fractional occupation disabled.
  Guess Type is READ.
  Energy threshold   = 1.00e-08
  Density threshold  = 1.00e-08
  Integral threshold = 0.00e+00

  ==> Primary Basis <==

  Basis Set: CC-PVDZ
    Number of shells: 54
    Number of basis function: 106
    Number of Cartesian functions: 110
    Spherical Harmonics?: true
    Max angular momentum: 2

  ==> DFT Potential <==

   => B3LYP Composite Functional <= 

    B3LYP Hybrid-GGA Exchange-Correlation Functional (VWN1-RPA)

    P.J. Stephens et. al., J. Phys. Chem., 98, 11623-11627, 1994

    Points   =           5000
    Deriv    =              1
    GGA      =           TRUE
    Meta     =          FALSE

    X_LRC        =          FALSE
    X_Hybrid     =           TRUE
    X_Alpha      =   2.000000E-01
    X_Omega      =   0.000000E+00
    C_LRC        =          FALSE
    C_Hybrid     =          FALSE
    C_Alpha      =   0.000000E+00
    C_Omega      =   0.000000E+00

   => Exchange Functionals <=

    0.8000    B3_X
    0.2000      HF 

   => Correlation Functionals <=

    0.1900 VWN3RPA_C
    0.8100   LYP_C

   => Molecular Quadrature <=

    Radial Scheme    =       TREUTLER
    Pruning Scheme   =           FLAT
    Nuclear Scheme   =       TREUTLER

    BS radius alpha  =              1
    Pruning alpha    =              1
    Radial Points    =             75
    Spherical Points =            302
    Total Points     =         312738
    Total Blocks     =            278
    Max Points       =           4828
    Max Functions    =            106

  ==> Pre-Iterations <==

   -------------------------------------------------------
    Irrep   Nso     Nmo     Nalpha   Nbeta   Ndocc  Nsocc
   -------------------------------------------------------
     A        106     106       0       0       0       0
   -------------------------------------------------------
    Total     106     106      17      17      17       0
   -------------------------------------------------------

  ==> Integral Setup <==

  ==> DFJK: Density-Fitted J/K Matrices <==

    J tasked:                  Yes
    K tasked:                  Yes
    wK tasked:                  No
    OpenMP threads:              1
    Integrals threads:           1
    Memory (MB):               715
    Algorithm:                Core
    Integral Cache:           NONE
    Schwarz Cutoff:          1E-12
    Fitting Condition:       1E-12

   => Auxiliary Basis Set <=

  Basis Set: 
    Number of shells: 186
    Number of basis function: 510
    Number of Cartesian functions: 574
    Spherical Harmonics?: true
    Max angular momentum: 3

  Minimum eigenvalue in the overlap matrix is 3.7958222288E-03.
  Using Symmetric Orthogonalization.
  SCF Guess was Projection but file not found.
  Switching over to SAD guess.

  SCF Guess: Superposition of Atomic Densities via on-the-fly atomic UHF.

  ==> Iterations <==

                           Total Energy        Delta E     RMS |[F,P]|

   @DF-RKS iter   0:  -158.99751666404413   -1.58998e+02   3.32998e-02 
   @DF-RKS iter   1:  -158.32829174503937    6.69225e-01   4.39265e-03 
   @DF-RKS iter   2:  -158.29156653274396    3.67252e-02   5.11052e-03 DIIS
   @DF-RKS iter   3:  -158.45449516153161   -1.62929e-01   3.46982e-04 DIIS
   @DF-RKS iter   4:  -158.45514467580341   -6.49514e-04   1.26441e-04 DIIS
   @DF-RKS iter   5:  -158.45522570242338   -8.10266e-05   4.36259e-05 DIIS
   @DF-RKS iter   6:  -158.45523630896281   -1.06065e-05   3.37850e-06 DIIS
   @DF-RKS iter   7:  -158.45523637604680   -6.70840e-08   5.77100e-07 DIIS
   @DF-RKS iter   8:  -158.45523637816152   -2.11472e-09   6.93516e-08 DIIS
   @DF-RKS iter   9:  -158.45523637819431   -3.27987e-11   1.21313e-08 DIIS
   @DF-RKS iter  10:  -158.45523637819574   -1.42109e-12   7.70716e-09 DIIS

  ==> Post-Iterations <==

    Orbital Energies (a.u.)
    -----------------------

    Doubly Occupied:                                                      

       1A    -10.175024     2A    -10.174852     3A    -10.169327  
       4A    -10.169281     5A     -0.791493     6A     -0.721064  
       7A     -0.627317     8A     -0.575506     9A     -0.470854  
      10A     -0.423838    11A     -0.412301    12A     -0.411808  
      13A     -0.365556    14A     -0.352539    15A     -0.329327  
      16A     -0.328418    17A     -0.313693  

    Virtual:                                                              

      18A      0.061910    19A      0.083389    20A      0.098940  
      21A      0.105608    22A      0.139364    23A      0.148081  
      24A      0.152955    25A      0.159365    26A      0.169270  
      27A      0.176556    28A      0.225905    29A      0.226046  
      30A      0.241445    31A      0.406136    32A      0.409386  
      33A      0.411554    34A      0.430234    35A      0.448945  
      36A      0.503626    37A      0.507151    38A      0.582517  
      39A      0.607149    40A      0.645523    41A      0.654729  
      42A      0.658790    43A      0.665153    44A      0.675161  
      45A      0.675283    46A      0.676867    47A      0.690029  
      48A      0.708595    49A      0.714579    50A      0.729469  
      51A      0.746584    52A      0.749209    53A      0.892362  
      54A      0.905327    55A      0.965675    56A      1.085093  
      57A      1.211235    58A      1.227787    59A      1.229989  
      60A      1.232672    61A      1.308538    62A      1.330950  
      63A      1.428390    64A      1.429376    65A      1.457833  
      66A      1.494050    67A      1.569078    68A      1.615364  
      69A      1.617537    70A      1.625327    71A      1.630777  
      72A      1.651894    73A      1.655896    74A      1.672652  
      75A      1.711119    76A      1.712514    77A      1.713494  
      78A      1.717556    79A      1.724157    80A      1.761019  
      81A      1.763361    82A      1.769798    83A      1.880845  
      84A      1.938425    85A      1.958575    86A      1.967935  
      87A      1.979383    88A      2.094282    89A      2.100247  
      90A      2.168422    91A      2.222164    92A      2.230162  
      93A      2.254339    94A      2.319779    95A      2.330054  
      96A      2.347742    97A      2.440418    98A      2.458754  
      99A      2.468026   100A      2.472610   101A      2.529213  
     102A      2.536020   103A      2.609373   104A      2.630164  
     105A      2.723342   106A      2.724354  

    Final Occupation by Irrep:
              A 
    DOCC [    17 ]

  Energy converged.

  @DF-RKS Final Energy:  -158.45523637819574

   => Energetics <=

    Nuclear Repulsion Energy =            130.8401760172475008
    One-Electron Energy =                -470.1351268061046085
    Two-Electron Energy =                 201.4707748825433384
    DFT Exchange-Correlation Energy =     -20.6310604718819413
    Empirical Dispersion Energy =           0.0000000000000000
    PCM Polarization Energy =               0.0000000000000000
    EFP Energy =                            0.0000000000000000
    Total Energy =                       -158.4552363781957354


  Saving occupied orbitals to File 180.

*** tstop() called on lski1497 at Tue Feb 21 18:04:11 2017
Module time:
	user time   =     106.35 seconds =       1.77 minutes
	system time =       1.33 seconds =       0.02 minutes
	total time  =        121 seconds =       2.02 minutes
Total time:
	user time   =     249.87 seconds =       4.16 minutes
	system time =       3.19 seconds =       0.05 minutes
	total time  =        290 seconds =       4.83 minutes


Properties will be evaluated at   0.000000,   0.000000,   0.000000 Bohr

Properties computed using the SCF density matrix

  Nuclear Dipole Moment: (a.u.)
     X:     0.0011      Y:     0.0009      Z:    -0.0007

  Electronic Dipole Moment: (a.u.)
     X:    -0.0010      Y:    -0.0012      Z:     0.0006

  Dipole Moment: (a.u.)
     X:     0.0000      Y:    -0.0002      Z:    -0.0001     Total:     0.0003

  Dipole Moment: (Debye)
     X:     0.0001      Y:    -0.0006      Z:    -0.0003     Total:     0.0007


*** tstart() called on lski1497
*** at Tue Feb 21 18:04:11 2017


         ------------------------------------------------------------
                                   SCF GRAD                          
                          Rob Parrish, Justin Turney,                
                       Andy Simmonett, and Alex Sokolov              
         ------------------------------------------------------------

  ==> Geometry <==

    Molecular point group: c1
    Full point group: C1

    Geometry (in Angstrom), charge = 0, multiplicity = 1:

       Center              X                  Y                   Z               Mass       
    ------------   -----------------  -----------------  -----------------  -----------------
           H         -2.338991056033     0.059067632934     0.318720141182     1.007825032070
           H         -2.191675072682     1.705390151701    -0.307616942959     1.007825032070
           H         -1.894609721798     0.326066291044    -1.371344418516     1.007825032070
           C         -1.785585290752     0.700145701761    -0.359163632780    12.000000000000
           H          0.251315337590     1.356471867699    -0.647267219075     1.007825032070
           H         -0.192878435170     1.089947589034     1.047197381800     1.007825032070
           C         -0.294039165233     0.711525746486     0.034945469755    12.000000000000
           H         -0.251222215045    -1.356648211241     0.646459684136     1.007825032070
           H          0.194037192178    -1.089882881287    -1.047270726629     1.007825032070
           C          0.294307123565    -0.711533511282    -0.034940862126    12.000000000000
           H          2.191439561234    -1.704896544329     0.307649665952     1.007825032070
           H          1.894369930480    -0.325275176297     1.371278593432     1.007825032070
           H          2.339362386157    -0.059242499616    -0.318596227374     1.007825032070
           C          1.785220924977    -0.700221772860     0.359225379347    12.000000000000

  Nuclear repulsion =  130.840176017247501

  ==> Basis Set <==

  Basis Set: CC-PVDZ
    Number of shells: 54
    Number of basis function: 106
    Number of Cartesian functions: 110
    Spherical Harmonics?: true
    Max angular momentum: 2

  ==> DFJKGrad: Density-Fitted SCF Gradients <==

    Gradient:                    1
    J tasked:                  Yes
    K tasked:                  Yes
    wK tasked:                  No
    OpenMP threads:              1
    Integrals threads:           1
    Memory (MB):               715
    Schwarz Cutoff:          0E+00
    Fitting Condition:       1E-12

   => Auxiliary Basis Set <=

  Basis Set: 
    Number of shells: 186
    Number of basis function: 510
    Number of Cartesian functions: 574
    Spherical Harmonics?: true
    Max angular momentum: 3

  ==> DFT Potential <==

   => B3LYP Composite Functional <= 

    B3LYP Hybrid-GGA Exchange-Correlation Functional (VWN1-RPA)

    P.J. Stephens et. al., J. Phys. Chem., 98, 11623-11627, 1994

    Points   =           5000
    Deriv    =              1
    GGA      =           TRUE
    Meta     =          FALSE

    X_LRC        =          FALSE
    X_Hybrid     =           TRUE
    X_Alpha      =   2.000000E-01
    X_Omega      =   0.000000E+00
    C_LRC        =          FALSE
    C_Hybrid     =          FALSE
    C_Alpha      =   0.000000E+00
    C_Omega      =   0.000000E+00

   => Exchange Functionals <=

    0.8000    B3_X
    0.2000      HF 

   => Correlation Functionals <=

    0.1900 VWN3RPA_C
    0.8100   LYP_C

   => Molecular Quadrature <=

    Radial Scheme    =       TREUTLER
    Pruning Scheme   =           FLAT
    Nuclear Scheme   =       TREUTLER

    BS radius alpha  =              1
    Pruning alpha    =              1
    Radial Points    =             75
    Spherical Points =            302
    Total Points     =         312738
    Total Blocks     =            278
    Max Points       =           4828
    Max Functions    =            106


  -Total Gradient:
     Atom            X                  Y                   Z
    ------   -----------------  -----------------  -----------------
       1        0.008408077643     0.006490004699    -0.005785424205
       2        0.007396800851    -0.009108825640     0.000469702539
       3        0.004033235170     0.003978494485     0.010820855946
       4       -0.020073733050    -0.005662632616    -0.006342534321
       5       -0.007417198462    -0.008993332501     0.004822776663
       6       -0.003408959549    -0.006680404436    -0.010336866547
       7        0.018182896389     0.023364941963     0.008814226013
       8        0.007523994271     0.009111810221    -0.004982995405
       9        0.003475681825     0.006665858225     0.010379867712
      10       -0.018092685638    -0.023471349842    -0.008552765798
      11       -0.007503972289     0.009428021932    -0.000520036332
      12       -0.004027065651    -0.003874256287    -0.010730141734
      13       -0.008264890218    -0.006403072445     0.005710253583
      14        0.019767908091     0.005154784152     0.006233034770


*** tstop() called on lski1497 at Tue Feb 21 18:04:55 2017
Module time:
	user time   =      38.06 seconds =       0.63 minutes
	system time =       0.57 seconds =       0.01 minutes
	total time  =         44 seconds =       0.73 minutes
Total time:
	user time   =     287.95 seconds =       4.80 minutes
	system time =       3.76 seconds =       0.06 minutes
	total time  =        334 seconds =       5.57 minutes

			-----------------------------------------
			 OPTKING 2.0: for geometry optimizations 
			  - R.A. King,  Bethel University        
			-----------------------------------------

	Previous internal coordinate definitions found.
	---Fragment 1 Geometry and Gradient---
	 H          -4.4200525232        0.1116216496        0.6022937799
	 H          -4.1416656596        3.2227203364       -0.5813117760
	 H          -3.5802935029        0.6161759912       -2.5914653849
	 C          -3.3742671864        1.3230836294       -0.6787209028
	 H           0.4749171610        2.5633603369       -1.2231577788
	 H          -0.3644874194        2.0597024425        1.9789162587
	 C          -0.5556534946        1.3445887974        0.0660373674
	 H          -0.4747411849       -2.5636935779        1.2216317590
	 H           0.3666771528       -2.0595801626       -1.9790548603
	 C           0.5561598625       -1.3446034707       -0.0660286603
	 H           4.1412206075       -3.2217875537        0.5813736135
	 H           3.5798403630       -0.6146810010        2.5913409935
	 H           4.4207542354       -0.1119520997       -0.6020596167
	 C           3.3735786349       -1.3232273830        0.6788375869
	             0.0084080776        0.0064900047       -0.0057854242
	             0.0073968009       -0.0091088256        0.0004697025
	             0.0040332352        0.0039784945        0.0108208559
	            -0.0200737331       -0.0056626326       -0.0063425343
	            -0.0074171985       -0.0089933325        0.0048227767
	            -0.0034089595       -0.0066804044       -0.0103368665
	             0.0181828964        0.0233649420        0.0088142260
	             0.0075239943        0.0091118102       -0.0049829954
	             0.0034756818        0.0066658582        0.0103798677
	            -0.0180926856       -0.0234713498       -0.0085527658
	            -0.0075039723        0.0094280219       -0.0005200363
	            -0.0040270657       -0.0038742563       -0.0107301417
	            -0.0082648902       -0.0064030724        0.0057102536
	             0.0197679081        0.0051547842        0.0062330348

	---Fragment 1 Intrafragment Coordinates---
	 - Coordinate -           - BOHR/RAD -       - ANG/DEG -
	 R(1,4)           =         2.049953	       1.084788
	 R(2,4)           =         2.051099	       1.085395
	 R(3,4)           =         2.049575	       1.084588
	 R(4,7)           =         2.915426	       1.542777
	 R(5,7)           =         2.051708	       1.085717
	 R(6,7)           =         2.051106	       1.085399
	 R(7,10)          =         2.912958	       1.541471
	 R(8,10)          =         2.051099	       1.085395
	 R(9,10)          =         2.051040	       1.085364
	 R(10,14)         =         2.914298	       1.542180
	 R(11,14)         =         2.050196	       1.084917
	 R(12,14)         =         2.049939	       1.084781
	 R(13,14)         =         2.050479	       1.085067
	 B(1,4,2)         =         1.903697	     109.073788
	 B(1,4,3)         =         1.905058	     109.151767
	 B(1,4,7)         =         1.915520	     109.751190
	 B(2,4,3)         =         1.903021	     109.035064
	 B(2,4,7)         =         1.920642	     110.044663
	 B(3,4,7)         =         1.915723	     109.762846
	 B(4,7,5)         =         1.906555	     109.237555
	 B(4,7,6)         =         1.908072	     109.324447
	 B(4,7,10)        =         1.929022	     110.524795
	 B(5,7,6)         =         1.909310	     109.395380
	 B(5,7,10)        =         1.905185	     109.159052
	 B(6,7,10)        =         1.905590	     109.182283
	 B(7,10,8)        =         1.905411	     109.171984
	 B(7,10,9)        =         1.905871	     109.198392
	 B(7,10,14)       =         1.929041	     110.525926
	 B(8,10,9)        =         1.909140	     109.385637
	 B(8,10,14)       =         1.906892	     109.256847
	 B(9,10,14)       =         1.907377	     109.284634
	 B(10,14,11)      =         1.920941	     110.061828
	 B(10,14,12)      =         1.915867	     109.771108
	 B(10,14,13)      =         1.916003	     109.778903
	 B(11,14,12)      =         1.903665	     109.071998
	 B(11,14,13)      =         1.902995	     109.033608
	 B(12,14,13)      =         1.904172	     109.101007
	 D(1,4,7,5)       =        -3.139896	    -179.902811
	 D(1,4,7,6)       =        -1.051150	     -60.226468
	 D(1,4,7,10)      =         1.046802	      59.977360
	 D(2,4,7,5)       =        -1.044803	     -59.862778
	 D(2,4,7,6)       =         1.043944	      59.813565
	 D(2,4,7,10)      =        -3.141289	    -179.982607
	 D(3,4,7,5)       =         1.049585	      60.136771
	 D(3,4,7,6)       =         3.138331	     179.813115
	 D(3,4,7,10)      =        -1.046902	     -59.983058
	 D(4,7,10,8)      =        -1.043558	     -59.791478
	 D(4,7,10,9)      =         1.042976	      59.758129
	 D(4,7,10,14)     =        -3.141438	    -179.991116
	 D(5,7,10,8)      =        -3.140866	    -179.958380
	 D(5,7,10,9)      =        -1.054332	     -60.408774
	 D(5,7,10,14)     =         1.044440	      59.841981
	 D(6,7,10,8)      =         1.055881	      60.497508
	 D(6,7,10,9)      =        -3.140770	    -179.952886
	 D(6,7,10,14)     =        -1.041999	     -59.702131
	 D(7,10,14,11)    =         3.141431	     179.990736
	 D(7,10,14,12)    =         1.045969	      59.929625
	 D(7,10,14,13)    =        -1.047035	     -59.990666
	 D(8,10,14,11)    =         1.044439	      59.841968
	 D(8,10,14,12)    =        -1.051022	     -60.219143
	 D(8,10,14,13)    =         3.139159	     179.860565
	 D(9,10,14,11)    =        -1.043885	     -59.810179
	 D(9,10,14,12)    =        -3.139346	    -179.871289
	 D(9,10,14,13)    =         1.050835	      60.208419

	Current energy   :      -158.4552363782

	Energy change for the previous step:
		Projected    :        -0.0075604245
		Actual       :        -0.0058471841

	Performing BFGS update.
	Previous computed or guess Hessian on step 1.
	Steps to be used in Hessian update: 1
	Adding user-defined constraint: Fragment 1; Coordinate 49:
		Value =    -3.141438; Fixed value    =    -3.141580
		Force =    -0.000075; Force constant =     0.525000
	Removing off-diagonal coupling between coordinate 49 and others.
	Taking RFO optimization step.
	Going to follow RFO solution 1.
	Using RFO vector 1.

	Determining step-restricting scale parameter for RS-RFO.
	Maximum step size allowed    0.10000

	 Iter      |step|        alpha        rfo_root  
	------------------------------------------------
	    0     0.19313       1.00000           1
	    1     0.14419       8.05773           1
	    2     0.11637      19.46686           1
	    3     0.10346      29.70128           1
	    4     0.10021      33.13297           1
	    5     0.10000      33.36452           1
	------------------------------------------------
	Norm of target step-size    0.10000
	Projected energy change by RFO approximation:        -0.0043414945

	Back-transformation to cartesian coordinates...
	Could not converge backtransformation.
	Using first guess instead.

	--- Internal Coordinate Step in ANG or DEG, aJ/ANG or AJ/DEG ---
	 ---------------------------------------------------------------------------
	   Coordinate                Previous        Force       Change         New 
	   ----------                --------       ------       ------       ------
	    1 R(1,4)          =      1.084788     0.096722     0.012450     1.097238
	    2 R(2,4)          =      1.085395     0.092121     0.011524     1.096919
	    3 R(3,4)          =      1.084588     0.097843     0.012574     1.097162
	    4 R(4,7)          =      1.542777    -0.003903    -0.002798     1.539979
	    5 R(5,7)          =      1.085717     0.099675     0.012803     1.098520
	    6 R(6,7)          =      1.085399     0.101230     0.012979     1.098378
	    7 R(7,10)         =      1.541471    -0.004293    -0.002024     1.539447
	    8 R(8,10)         =      1.085395     0.101547     0.013011     1.098406
	    9 R(9,10)         =      1.085364     0.101552     0.013011     1.098375
	   10 R(10,14)        =      1.542180    -0.001499    -0.002418     1.539762
	   11 R(11,14)        =      1.084917     0.094876     0.011834     1.096751
	   12 R(12,14)        =      1.084781     0.096846     0.012460     1.097241
	   13 R(13,14)        =      1.085067     0.095325     0.012285     1.097352
	   14 B(1,4,2)        =    109.073788    -0.000251    -0.675746   108.398042
	   15 B(1,4,3)        =    109.151767    -0.000231    -0.702764   108.449003
	   16 B(1,4,7)        =    109.751190     0.000208     0.613950   110.365140
	   17 B(2,4,3)        =    109.035064    -0.000246    -0.661345   108.373719
	   18 B(2,4,7)        =    110.044663     0.000308     0.775903   110.820565
	   19 B(3,4,7)        =    109.762846     0.000202     0.598114   110.360960
	   20 B(4,7,5)        =    109.237555    -0.000103    -0.122398   109.115157
	   21 B(4,7,6)        =    109.324447    -0.000108    -0.145742   109.178705
	   22 B(4,7,10)       =    110.524795     0.000551     1.275517   111.800312
	   23 B(5,7,6)        =    109.395380    -0.000059    -0.547154   108.848226
	   24 B(5,7,10)       =    109.159052    -0.000143    -0.245185   108.913866
	   25 B(6,7,10)       =    109.182283    -0.000142    -0.245123   108.937160
	   26 B(7,10,8)       =    109.171984    -0.000143    -0.246407   108.925578
	   27 B(7,10,9)       =    109.198392    -0.000145    -0.254974   108.943418
	   28 B(7,10,14)      =    110.525926     0.000552     1.275970   111.801896
	   29 B(8,10,9)       =    109.385637    -0.000059    -0.545391   108.840245
	   30 B(8,10,14)      =    109.256847    -0.000103    -0.124875   109.131972
	   31 B(9,10,14)      =    109.284634    -0.000106    -0.134561   109.150074
	   32 B(10,14,11)     =    110.061828     0.000308     0.771525   110.833354
	   33 B(10,14,12)     =    109.771108     0.000204     0.600736   110.371844
	   34 B(10,14,13)     =    109.778903     0.000201     0.595789   110.374692
	   35 B(11,14,12)     =    109.071998    -0.000250    -0.671975   108.400023
	   36 B(11,14,13)     =    109.033608    -0.000246    -0.660967   108.372640
	   37 B(12,14,13)     =    109.101007    -0.000227    -0.687533   108.413474
	   38 D(1,4,7,5)      =   -179.902811     0.000020     0.363284  -179.539527
	   39 D(1,4,7,6)      =    -60.226468    -0.000026    -0.460768   -60.687236
	   40 D(1,4,7,10)     =     59.977360    -0.000003    -0.054874    59.922486
	   41 D(2,4,7,5)      =    -59.862778     0.000023     0.411952   -59.450827
	   42 D(2,4,7,6)      =     59.813565    -0.000023    -0.412100    59.401465
	   43 D(2,4,7,10)     =   -179.982607    -0.000000    -0.006206  -179.988813
	   44 D(3,4,7,5)      =     60.136771     0.000026     0.467930    60.604701
	   45 D(3,4,7,6)      =    179.813115    -0.000019    -0.356122   179.456993
	   46 D(3,4,7,10)     =    -59.983058     0.000003     0.049772   -59.933285
	   47 D(4,7,10,8)     =    -59.791478     0.000028     0.486152   -59.305326
	   48 D(4,7,10,9)     =     59.758129    -0.000028    -0.468354    59.289775
	   49 D(4,7,10,14)    =   -179.991116    -0.000000     0.000630  -179.990486
	   50 D(5,7,10,8)     =   -179.958380    -0.000000    -0.002241  -179.960622
	   51 D(5,7,10,9)     =    -60.408774    -0.000056    -0.956747   -61.365521
	   52 D(5,7,10,14)    =     59.841981    -0.000029    -0.487763    59.354218
	   53 D(6,7,10,8)     =     60.497508     0.000055     0.947536    61.445043
	   54 D(6,7,10,9)     =   -179.952886    -0.000000    -0.006970  -179.959856
	   55 D(6,7,10,14)    =    -59.702131     0.000027     0.462014   -59.240117
	   56 D(7,10,14,11)   =    179.990736     0.000000     0.002209   179.992945
	   57 D(7,10,14,12)   =     59.929625    -0.000003    -0.040558    59.889067
	   58 D(7,10,14,13)   =    -59.990666     0.000004     0.055077   -59.935589
	   59 D(8,10,14,11)   =     59.841968    -0.000023    -0.413938    59.428030
	   60 D(8,10,14,12)   =    -60.219143    -0.000026    -0.456705   -60.675848
	   61 D(8,10,14,13)   =    179.860565    -0.000020    -0.361069   179.499496
	   62 D(9,10,14,11)   =    -59.810179     0.000022     0.402509   -59.407669
	   63 D(9,10,14,12)   =   -179.871289     0.000019     0.359742  -179.511547
	   64 D(9,10,14,13)   =     60.208419     0.000026     0.455378    60.663797
	 ---------------------------------------------------------------------------
	 Forces used to impose fixed constraints are not included.
	  Forces zeroed: 49 

  ==> Convergence Check <==

  Measures of convergence in internal coordinates in au.
  Criteria marked as inactive (o), active & met (*), and active & unmet ( ).
  ---------------------------------------------------------------------------------------------
   Step     Total Energy     Delta E     MAX Force     RMS Force      MAX Disp      RMS Disp   
  ---------------------------------------------------------------------------------------------
    Convergence Criteria    1.00e-06 *    3.00e-04 *             o    1.20e-03 *             o
  ---------------------------------------------------------------------------------------------
      2    -158.45523638   -5.85e-03      1.23e-02      5.17e-03 o    2.46e-02      1.25e-02 o  ~
  ---------------------------------------------------------------------------------------------

	Writing optimization data to binary file.
	Structure for next step:
	Cartesian Geometry (in Angstrom)
	    H    -2.3664284221   0.0629160261   0.3186547364
	    H    -2.2092986371   1.7203938234  -0.3098216130
	    H    -1.9187528862   0.3316148517  -1.3834103718
	    C    -1.7930684006   0.7067565875  -0.3600641084
	    H     0.2487734098   1.3627193443  -0.6547330592
	    H    -0.1994068820   1.0940663993   1.0539932955
	    C    -0.3037129912   0.7065731641   0.0315440176
	    H    -0.2488893808  -1.3629167012   0.6540171828
	    H     0.2002530792  -1.0938047010  -1.0541918188
	    C     0.3038585018  -0.7064962782  -0.0316042502
	    H     2.2093219076  -1.7201522816   0.3099229318
	    H     1.9187795588  -0.3309547086   1.3833390286
	    H     2.3666773654  -0.0630435599  -0.3185389428
	    C     1.7929452769  -0.7067575821   0.3601692577
			--------------------------
			 OPTKING Finished Execution 
			--------------------------

    Structure for next step:
    Molecular point group: c1
    Full point group: C1

    Geometry (in Angstrom), charge = 0, multiplicity = 1:

    H           -2.366450905692     0.062885795322     0.318658793724
    H           -2.209321120725     1.720363592609    -0.309817555662
    H           -1.918775369833     0.331584620897    -1.383406314494
    C           -1.793090884162     0.706726356755    -0.360060051085
    H            0.248750926154     1.362689113542    -0.654729001878
    H           -0.199429365552     1.094036168567     1.053997352852
    C           -0.303735474810     0.706542933372     0.031548075001
    H           -0.248911864388    -1.362946931947     0.654021240126
    H            0.200230595638    -1.093834931712    -1.054187761473
    C            0.303836018208    -0.706526508969    -0.031600192820
    H            2.209299423984    -1.720182512373     0.309926989141
    H            1.918757075191    -0.330984939343     1.383343086001
    H            2.366654881839    -0.063073790684    -0.318534885441
    C            1.792922793254    -0.706787812869     0.360173315086

gradient() will perform analytic gradient computation.

*** tstart() called on lski1497
*** at Tue Feb 21 18:04:55 2017


         ---------------------------------------------------------
                                   SCF
            by Justin Turney, Rob Parrish, and Andy Simmonett
                              RKS Reference
                        1 Threads,   1000 MiB Core
         ---------------------------------------------------------

  ==> Geometry <==

    Molecular point group: c1
    Full point group: C1

    Geometry (in Angstrom), charge = 0, multiplicity = 1:

       Center              X                  Y                   Z               Mass       
    ------------   -----------------  -----------------  -----------------  -----------------
           H         -2.366450905692     0.062885795322     0.318658793724     1.007825032070
           H         -2.209321120725     1.720363592609    -0.309817555662     1.007825032070
           H         -1.918775369833     0.331584620897    -1.383406314494     1.007825032070
           C         -1.793090884162     0.706726356755    -0.360060051085    12.000000000000
           H          0.248750926154     1.362689113542    -0.654729001878     1.007825032070
           H         -0.199429365552     1.094036168567     1.053997352852     1.007825032070
           C         -0.303735474810     0.706542933372     0.031548075001    12.000000000000
           H         -0.248911864388    -1.362946931947     0.654021240126     1.007825032070
           H          0.200230595638    -1.093834931712    -1.054187761473     1.007825032070
           C          0.303836018208    -0.706526508969    -0.031600192820    12.000000000000
           H          2.209299423984    -1.720182512373     0.309926989141     1.007825032070
           H          1.918757075191    -0.330984939343     1.383343086001     1.007825032070
           H          2.366654881839    -0.063073790684    -0.318534885441     1.007825032070
           C          1.792922793254    -0.706787812869     0.360173315086    12.000000000000

  Running in c1 symmetry.

  Rotational constants: A =      0.76798  B =      0.12093  C =      0.11350 [cm^-1]
  Rotational constants: A =  23023.39348  B =   3625.40323  C =   3402.60293 [MHz]
  Nuclear repulsion =  130.152771774906256

  Charge       = 0
  Multiplicity = 1
  Electrons    = 34
  Nalpha       = 17
  Nbeta        = 17

  ==> Algorithm <==

  SCF Algorithm Type is DF.
  DIIS enabled.
  MOM disabled.
  Fractional occupation disabled.
  Guess Type is READ.
  Energy threshold   = 1.00e-08
  Density threshold  = 1.00e-08
  Integral threshold = 0.00e+00

  ==> Primary Basis <==

  Basis Set: CC-PVDZ
    Number of shells: 54
    Number of basis function: 106
    Number of Cartesian functions: 110
    Spherical Harmonics?: true
    Max angular momentum: 2

  ==> DFT Potential <==

   => B3LYP Composite Functional <= 

    B3LYP Hybrid-GGA Exchange-Correlation Functional (VWN1-RPA)

    P.J. Stephens et. al., J. Phys. Chem., 98, 11623-11627, 1994

    Points   =           5000
    Deriv    =              1
    GGA      =           TRUE
    Meta     =          FALSE

    X_LRC        =          FALSE
    X_Hybrid     =           TRUE
    X_Alpha      =   2.000000E-01
    X_Omega      =   0.000000E+00
    C_LRC        =          FALSE
    C_Hybrid     =          FALSE
    C_Alpha      =   0.000000E+00
    C_Omega      =   0.000000E+00

   => Exchange Functionals <=

    0.8000    B3_X
    0.2000      HF 

   => Correlation Functionals <=

    0.1900 VWN3RPA_C
    0.8100   LYP_C

   => Molecular Quadrature <=

    Radial Scheme    =       TREUTLER
    Pruning Scheme   =           FLAT
    Nuclear Scheme   =       TREUTLER

    BS radius alpha  =              1
    Pruning alpha    =              1
    Radial Points    =             75
    Spherical Points =            302
    Total Points     =         312750
    Total Blocks     =            278
    Max Points       =           4810
    Max Functions    =            106

  ==> Pre-Iterations <==

   -------------------------------------------------------
    Irrep   Nso     Nmo     Nalpha   Nbeta   Ndocc  Nsocc
   -------------------------------------------------------
     A        106     106       0       0       0       0
   -------------------------------------------------------
    Total     106     106      17      17      17       0
   -------------------------------------------------------

  ==> Integral Setup <==

  ==> DFJK: Density-Fitted J/K Matrices <==

    J tasked:                  Yes
    K tasked:                  Yes
    wK tasked:                  No
    OpenMP threads:              1
    Integrals threads:           1
    Memory (MB):               715
    Algorithm:                Core
    Integral Cache:           NONE
    Schwarz Cutoff:          1E-12
    Fitting Condition:       1E-12

   => Auxiliary Basis Set <=

  Basis Set: 
    Number of shells: 186
    Number of basis function: 510
    Number of Cartesian functions: 574
    Spherical Harmonics?: true
    Max angular momentum: 3

  Minimum eigenvalue in the overlap matrix is 3.8298793413E-03.
  Using Symmetric Orthogonalization.
  SCF Guess was Projection but file not found.
  Switching over to SAD guess.

  SCF Guess: Superposition of Atomic Densities via on-the-fly atomic UHF.

  ==> Iterations <==

                           Total Energy        Delta E     RMS |[F,P]|

   @DF-RKS iter   0:  -158.95493776802883   -1.58955e+02   3.27829e-02 
   @DF-RKS iter   1:  -158.33525931477283    6.19678e-01   4.30556e-03 
   @DF-RKS iter   2:  -158.29548638155879    3.97729e-02   5.07610e-03 DIIS
   @DF-RKS iter   3:  -158.45719893545248   -1.61713e-01   3.44429e-04 DIIS
   @DF-RKS iter   4:  -158.45784838193390   -6.49446e-04   1.22763e-04 DIIS
   @DF-RKS iter   5:  -158.45792414314369   -7.57612e-05   4.45062e-05 DIIS
   @DF-RKS iter   6:  -158.45793520436473   -1.10612e-05   3.42833e-06 DIIS
   @DF-RKS iter   7:  -158.45793527373507   -6.93703e-08   5.73989e-07 DIIS
   @DF-RKS iter   8:  -158.45793527584325   -2.10818e-09   7.03042e-08 DIIS
   @DF-RKS iter   9:  -158.45793527587807   -3.48166e-11   9.15260e-09 DIIS

  ==> Post-Iterations <==

    Orbital Energies (a.u.)
    -----------------------

    Doubly Occupied:                                                      

       1A    -10.178635     2A    -10.178472     3A    -10.173703  
       4A    -10.173684     5A     -0.790127     6A     -0.719717  
       7A     -0.626233     8A     -0.572074     9A     -0.467956  
      10A     -0.421908    11A     -0.413127    12A     -0.409147  
      13A     -0.364575    14A     -0.350084    15A     -0.327951  
      16A     -0.325697    17A     -0.317435  

    Virtual:                                                              

      18A      0.060761    19A      0.081321    20A      0.096574  
      21A      0.103394    22A      0.137473    23A      0.144023  
      24A      0.151452    25A      0.155464    26A      0.164597  
      27A      0.172736    28A      0.224493    29A      0.227490  
      30A      0.244211    31A      0.404924    32A      0.406285  
      33A      0.410428    34A      0.425996    35A      0.447624  
      36A      0.506983    37A      0.507079    38A      0.580633  
      39A      0.606164    40A      0.638630    41A      0.646963  
      42A      0.652475    43A      0.658140    44A      0.665849  
      45A      0.669261    46A      0.672386    47A      0.683888  
      48A      0.705517    49A      0.706874    50A      0.727721  
      51A      0.742219    52A      0.742369    53A      0.894686  
      54A      0.900864    55A      0.963061    56A      1.078980  
      57A      1.206395    58A      1.226036    59A      1.227767  
      60A      1.228633    61A      1.296882    62A      1.327502  
      63A      1.423767    64A      1.424742    65A      1.446296  
      66A      1.492668    67A      1.569918    68A      1.608174  
      69A      1.609235    70A      1.621031    71A      1.625305  
      72A      1.640279    73A      1.646373    74A      1.659993  
      75A      1.700412    76A      1.705859    77A      1.706805  
      78A      1.707129    79A      1.713441    80A      1.748441  
      81A      1.753462    82A      1.773152    83A      1.880085  
      84A      1.917979    85A      1.936627    86A      1.962894  
      87A      1.981173    88A      2.089697    89A      2.098540  
      90A      2.147668    91A      2.201336    92A      2.216879  
      93A      2.232382    94A      2.292108    95A      2.305198  
      96A      2.326578    97A      2.421878    98A      2.424870  
      99A      2.432659   100A      2.453137   101A      2.505538  
     102A      2.511143   103A      2.604319   104A      2.605035  
     105A      2.705167   106A      2.707016  

    Final Occupation by Irrep:
              A 
    DOCC [    17 ]

  Energy converged.

  @DF-RKS Final Energy:  -158.45793527587807

   => Energetics <=

    Nuclear Repulsion Energy =            130.1527717749062560
    One-Electron Energy =                -468.7932909029269126
    Two-Electron Energy =                 200.7788140020143430
    DFT Exchange-Correlation Energy =     -20.5962301498717864
    Empirical Dispersion Energy =           0.0000000000000000
    PCM Polarization Energy =               0.0000000000000000
    EFP Energy =                            0.0000000000000000
    Total Energy =                       -158.4579352758780715


  Saving occupied orbitals to File 180.

*** tstop() called on lski1497 at Tue Feb 21 18:06:48 2017
Module time:
	user time   =      96.88 seconds =       1.61 minutes
	system time =       1.20 seconds =       0.02 minutes
	total time  =        113 seconds =       1.88 minutes
Total time:
	user time   =     385.48 seconds =       6.42 minutes
	system time =       4.98 seconds =       0.08 minutes
	total time  =        447 seconds =       7.45 minutes


Properties will be evaluated at   0.000000,   0.000000,   0.000000 Bohr

Properties computed using the SCF density matrix

  Nuclear Dipole Moment: (a.u.)
     X:     0.0008      Y:     0.0005      Z:    -0.0007

  Electronic Dipole Moment: (a.u.)
     X:    -0.0007      Y:    -0.0005      Z:     0.0006

  Dipole Moment: (a.u.)
     X:     0.0000      Y:    -0.0000      Z:    -0.0001     Total:     0.0001

  Dipole Moment: (Debye)
     X:     0.0000      Y:    -0.0001      Z:    -0.0003     Total:     0.0003


*** tstart() called on lski1497
*** at Tue Feb 21 18:06:48 2017


         ------------------------------------------------------------
                                   SCF GRAD                          
                          Rob Parrish, Justin Turney,                
                       Andy Simmonett, and Alex Sokolov              
         ------------------------------------------------------------

  ==> Geometry <==

    Molecular point group: c1
    Full point group: C1

    Geometry (in Angstrom), charge = 0, multiplicity = 1:

       Center              X                  Y                   Z               Mass       
    ------------   -----------------  -----------------  -----------------  -----------------
           H         -2.366450905692     0.062885795322     0.318658793724     1.007825032070
           H         -2.209321120725     1.720363592609    -0.309817555662     1.007825032070
           H         -1.918775369833     0.331584620897    -1.383406314494     1.007825032070
           C         -1.793090884162     0.706726356755    -0.360060051085    12.000000000000
           H          0.248750926154     1.362689113542    -0.654729001878     1.007825032070
           H         -0.199429365552     1.094036168567     1.053997352852     1.007825032070
           C         -0.303735474810     0.706542933372     0.031548075001    12.000000000000
           H         -0.248911864388    -1.362946931947     0.654021240126     1.007825032070
           H          0.200230595638    -1.093834931712    -1.054187761473     1.007825032070
           C          0.303836018208    -0.706526508969    -0.031600192820    12.000000000000
           H          2.209299423984    -1.720182512373     0.309926989141     1.007825032070
           H          1.918757075191    -0.330984939343     1.383343086001     1.007825032070
           H          2.366654881839    -0.063073790684    -0.318534885441     1.007825032070
           C          1.792922793254    -0.706787812869     0.360173315086    12.000000000000

  Nuclear repulsion =  130.152771774906228

  ==> Basis Set <==

  Basis Set: CC-PVDZ
    Number of shells: 54
    Number of basis function: 106
    Number of Cartesian functions: 110
    Spherical Harmonics?: true
    Max angular momentum: 2

  ==> DFJKGrad: Density-Fitted SCF Gradients <==

    Gradient:                    1
    J tasked:                  Yes
    K tasked:                  Yes
    wK tasked:                  No
    OpenMP threads:              1
    Integrals threads:           1
    Memory (MB):               715
    Schwarz Cutoff:          0E+00
    Fitting Condition:       1E-12

   => Auxiliary Basis Set <=

  Basis Set: 
    Number of shells: 186
    Number of basis function: 510
    Number of Cartesian functions: 574
    Spherical Harmonics?: true
    Max angular momentum: 3

  ==> DFT Potential <==

   => B3LYP Composite Functional <= 

    B3LYP Hybrid-GGA Exchange-Correlation Functional (VWN1-RPA)

    P.J. Stephens et. al., J. Phys. Chem., 98, 11623-11627, 1994

    Points   =           5000
    Deriv    =              1
    GGA      =           TRUE
    Meta     =          FALSE

    X_LRC        =          FALSE
    X_Hybrid     =           TRUE
    X_Alpha      =   2.000000E-01
    X_Omega      =   0.000000E+00
    C_LRC        =          FALSE
    C_Hybrid     =          FALSE
    C_Alpha      =   0.000000E+00
    C_Omega      =   0.000000E+00

   => Exchange Functionals <=

    0.8000    B3_X
    0.2000      HF 

   => Correlation Functionals <=

    0.1900 VWN3RPA_C
    0.8100   LYP_C

   => Molecular Quadrature <=

    Radial Scheme    =       TREUTLER
    Pruning Scheme   =           FLAT
    Nuclear Scheme   =       TREUTLER

    BS radius alpha  =              1
    Pruning alpha    =              1
    Radial Points    =             75
    Spherical Points =            302
    Total Points     =         312750
    Total Blocks     =            278
    Max Points       =           4810
    Max Functions    =            106


  -Total Gradient:
     Atom            X                  Y                   Z
[...]

  Nuclear repulsion =  129.933055872054695

  ==> Basis Set <==

  Basis Set: CC-PVDZ
    Number of shells: 54
    Number of basis function: 106
    Number of Cartesian functions: 110
    Spherical Harmonics?: true
    Max angular momentum: 2

  ==> DFJKGrad: Density-Fitted SCF Gradients <==

    Gradient:                    1
    J tasked:                  Yes
    K tasked:                  Yes
    wK tasked:                  No
    OpenMP threads:              1
    Integrals threads:           1
    Memory (MB):               715
    Schwarz Cutoff:          0E+00
    Fitting Condition:       1E-12

   => Auxiliary Basis Set <=

  Basis Set: 
    Number of shells: 186
    Number of basis function: 510
    Number of Cartesian functions: 574
    Spherical Harmonics?: true
    Max angular momentum: 3

  ==> DFT Potential <==

   => B3LYP Composite Functional <= 

    B3LYP Hybrid-GGA Exchange-Correlation Functional (VWN1-RPA)

    P.J. Stephens et. al., J. Phys. Chem., 98, 11623-11627, 1994

    Points   =           5000
    Deriv    =              1
    GGA      =           TRUE
    Meta     =          FALSE

    X_LRC        =          FALSE
    X_Hybrid     =           TRUE
    X_Alpha      =   2.000000E-01
    X_Omega      =   0.000000E+00
    C_LRC        =          FALSE
    C_Hybrid     =          FALSE
    C_Alpha      =   0.000000E+00
    C_Omega      =   0.000000E+00

   => Exchange Functionals <=

    0.8000    B3_X
    0.2000      HF 

   => Correlation Functionals <=

    0.1900 VWN3RPA_C
    0.8100   LYP_C

   => Molecular Quadrature <=

    Radial Scheme    =       TREUTLER
    Pruning Scheme   =           FLAT
    Nuclear Scheme   =       TREUTLER

    BS radius alpha  =              1
    Pruning alpha    =              1
    Radial Points    =             75
    Spherical Points =            302
    Total Points     =         312774
    Total Blocks     =            278
    Max Points       =           4775
    Max Functions    =            106


  -Total Gradient:
     Atom            X                  Y                   Z
    ------   -----------------  -----------------  -----------------
       1       -0.000031774487    -0.000018718864     0.000022040111
       2       -0.000031834677     0.000046155374    -0.000001066803
       3       -0.000015717966    -0.000009912643    -0.000040599883
       4        0.000062075697    -0.000022183146     0.000013718472
       5        0.000004785965    -0.000020377142    -0.000013257125
       6        0.000000904475    -0.000023229382     0.000007293532
       7       -0.000008484584     0.000074367653     0.000011204904
       8       -0.000006334988     0.000020004372     0.000012888731
       9        0.000000483075     0.000023078352    -0.000008249505
      10        0.000007395506    -0.000074022045    -0.000009119403
      11        0.000032241945    -0.000048266637     0.000000960498
      12        0.000015025639     0.000009128881     0.000039151300
      13        0.000030591087     0.000018266623    -0.000021808767
      14       -0.000059356673     0.000025709496    -0.000013158782


*** tstop() called on lski1497 at Tue Feb 21 18:15:04 2017
Module time:
	user time   =      37.79 seconds =       0.63 minutes
	system time =       0.56 seconds =       0.01 minutes
	total time  =         40 seconds =       0.67 minutes
Total time:
	user time   =     831.22 seconds =      13.85 minutes
	system time =      10.99 seconds =       0.18 minutes
	total time  =        943 seconds =      15.72 minutes

			-----------------------------------------
			 OPTKING 2.0: for geometry optimizations 
			  - R.A. King,  Bethel University        
			-----------------------------------------

	Previous internal coordinate definitions found.
	---Fragment 1 Geometry and Gradient---
	 H          -4.5194242385        0.1189518611        0.5878392996
	 H          -4.2027859707        3.2522620381       -0.5922916965
	 H          -3.6747216803        0.6254170252       -2.6248935309
	 C          -3.3971959583        1.3336885809       -0.6829350352
	 H           0.4614014868        2.6009914283       -1.2129351494
	 H          -0.3769807153        2.0982384730        1.9759587292
	 C          -0.5997843914        1.3171987552        0.0499588665
	 H          -0.4614570671       -2.6010170273        1.2128083292
	 H           0.3770880141       -2.0981874222       -1.9760357676
	 C           0.5997941291       -1.3171939304       -0.0500029234
	 H           4.2027900136       -3.2522648191        0.5922777270
	 H           3.6746446168       -0.6255044706        2.6249732846
	 H           4.5194290021       -0.1188950683       -0.5877177966
	 C           3.3971876096       -1.3336927354        0.6829804838
	            -0.0000317745       -0.0000187189        0.0000220401
	            -0.0000318347        0.0000461554       -0.0000010668
	            -0.0000157180       -0.0000099126       -0.0000405999
	             0.0000620757       -0.0000221831        0.0000137185
	             0.0000047860       -0.0000203771       -0.0000132571
	             0.0000009045       -0.0000232294        0.0000072935
	            -0.0000084846        0.0000743677        0.0000112049
	            -0.0000063350        0.0000200044        0.0000128887
	             0.0000004831        0.0000230784       -0.0000082495
	             0.0000073955       -0.0000740220       -0.0000091194
	             0.0000322419       -0.0000482666        0.0000009605
	             0.0000150256        0.0000091289        0.0000391513
	             0.0000305911        0.0000182666       -0.0000218088
	            -0.0000593567        0.0000257095       -0.0000131588

	---Fragment 1 Intrafragment Coordinates---
	 - Coordinate -           - BOHR/RAD -       - ANG/DEG -
	 R(1,4)           =         2.085629	       1.103667
	 R(2,4)           =         2.082814	       1.102178
	 R(3,4)           =         2.085635	       1.103670
	 R(4,7)           =         2.891871	       1.530312
	 R(5,7)           =         2.090249	       1.106112
	 R(6,7)           =         2.090249	       1.106112
	 R(7,10)          =         2.896378	       1.532697
	 R(8,10)          =         2.090251	       1.106113
	 R(9,10)          =         2.090252	       1.106113
	 R(10,14)         =         2.891876	       1.530315
	 R(11,14)         =         2.082820	       1.102181
	 R(12,14)         =         2.085629	       1.103667
	 R(13,14)         =         2.085625	       1.103665
	 B(1,4,2)         =         1.877450	     107.569979
	 B(1,4,3)         =         1.873326	     107.333681
	 B(1,4,7)         =         1.942028	     111.270008
	 B(2,4,3)         =         1.877451	     107.570016
	 B(2,4,7)         =         1.948050	     111.615070
	 B(3,4,7)         =         1.942020	     111.269573
	 B(4,7,5)         =         1.911849	     109.540876
	 B(4,7,6)         =         1.911868	     109.541994
	 B(4,7,10)        =         1.979126	     113.395549
	 B(5,7,6)         =         1.847409	     105.848714
	 B(5,7,10)        =         1.904464	     109.117733
	 B(6,7,10)        =         1.904468	     109.117976
	 B(7,10,8)        =         1.904465	     109.117817
	 B(7,10,9)        =         1.904467	     109.117935
	 B(7,10,14)       =         1.979124	     113.395452
	 B(8,10,9)        =         1.847410	     105.848771
	 B(8,10,14)       =         1.911865	     109.541818
	 B(9,10,14)       =         1.911852	     109.541060
	 B(10,14,11)      =         1.948046	     111.614816
	 B(10,14,12)      =         1.942020	     111.269558
	 B(10,14,13)      =         1.942018	     111.269462
	 B(11,14,12)      =         1.877453	     107.570144
	 B(11,14,13)      =         1.877455	     107.570265
	 B(12,14,13)      =         1.873334	     107.334138
	 D(1,4,7,5)       =        -3.107059	    -178.021346
	 D(1,4,7,6)       =        -1.087912	     -62.332760
	 D(1,4,7,10)      =         1.044117	      59.823514
	 D(2,4,7,5)       =        -1.009561	     -57.843579
	 D(2,4,7,6)       =         1.009586	      57.845008
	 D(2,4,7,10)      =        -3.141570	    -179.998719
	 D(3,4,7,5)       =         1.087932	      62.333938
	 D(3,4,7,6)       =         3.107079	     178.022525
	 D(3,4,7,10)      =        -1.044077	     -59.821201
	 D(4,7,10,8)      =        -1.005426	     -57.606644
	 D(4,7,10,9)      =         1.005510	      57.611482
	 D(4,7,10,14)     =        -3.141558	    -179.998025
	 D(5,7,10,8)      =        -3.141537	    -179.996818
	 D(5,7,10,9)      =        -1.130601	     -64.778693
	 D(5,7,10,14)     =         1.005516	      57.611800
	 D(6,7,10,8)      =         1.130714	      64.785148
	 D(6,7,10,9)      =        -3.141536	    -179.996726
	 D(6,7,10,14)     =        -1.005418	     -57.606234
	 D(7,10,14,11)    =         3.141593	     180.000000
	 D(7,10,14,12)    =         1.044107	      59.822936
	 D(7,10,14,13)    =        -1.044091	     -59.821983
	 D(8,10,14,11)    =         1.009578	      57.844560
	 D(8,10,14,12)    =        -1.087915	     -62.332936
	 D(8,10,14,13)    =         3.107073	     178.022145
	 D(9,10,14,11)    =        -1.009570	     -57.844100
	 D(9,10,14,12)    =        -3.107063	    -178.021596
	 D(9,10,14,13)    =         1.087925	      62.333486

	Current energy   :      -158.4588880255

	Energy change for the previous step:
		Projected    :        -0.0000030255
		Actual       :        -0.0000037793

	Performing BFGS update.
	Previous computed or guess Hessian on step 1.
	Steps to be used in Hessian update: 5 4
	Adding user-defined constraint: Fragment 1; Coordinate 49:
		Value =    -3.141558; Fixed value    =    -3.141580
		Force =    -0.000014; Force constant =     0.625000
	Removing off-diagonal coupling between coordinate 49 and others.
	Taking RFO optimization step.
	Going to follow RFO solution 1.
	Using RFO vector 1.
	Norm of target step-size    0.00102
	Projected energy change by RFO approximation:        -0.0000001152

	Back-transformation to cartesian coordinates...
	Could not converge backtransformation.
	Using first guess instead.

	--- Internal Coordinate Step in ANG or DEG, aJ/ANG or AJ/DEG ---
	 ---------------------------------------------------------------------------
	   Coordinate                Previous        Force       Change         New 
	   ----------                --------       ------       ------       ------
	    1 R(1,4)          =      1.103667    -0.000344    -0.000065     1.103603
	    2 R(2,4)          =      1.102178    -0.000448    -0.000083     1.102094
	    3 R(3,4)          =      1.103670    -0.000359    -0.000067     1.103603
	    4 R(4,7)          =      1.530312    -0.000155    -0.000034     1.530278
	    5 R(5,7)          =      1.106112     0.000018     0.000005     1.106117
	    6 R(6,7)          =      1.106112     0.000016     0.000005     1.106117
	    7 R(7,10)         =      1.532697    -0.000252    -0.000067     1.532630
	    8 R(8,10)         =      1.106113     0.000011     0.000004     1.106117
	    9 R(9,10)         =      1.106113     0.000010     0.000004     1.106117
	   10 R(10,14)        =      1.530315    -0.000164    -0.000036     1.530279
	   11 R(11,14)        =      1.102181    -0.000466    -0.000086     1.102095
	   12 R(12,14)        =      1.103667    -0.000345    -0.000065     1.103602
	   13 R(13,14)        =      1.103665    -0.000335    -0.000063     1.103602
	   14 B(1,4,2)        =    107.569979     0.000001     0.005427   107.575406
	   15 B(1,4,3)        =    107.333681     0.000001     0.002316   107.335996
	   16 B(1,4,7)        =    111.270008    -0.000001    -0.004551   111.265457
	   17 B(2,4,3)        =    107.570016     0.000001     0.005366   107.575382
	   18 B(2,4,7)        =    111.615070    -0.000001    -0.003427   111.611643
	   19 B(3,4,7)        =    111.269573    -0.000001    -0.004313   111.265260
	   20 B(4,7,5)        =    109.540876    -0.000000    -0.003041   109.537835
	   21 B(4,7,6)        =    109.541994    -0.000000    -0.003850   109.538144
	   22 B(4,7,10)       =    113.395549    -0.000000     0.003657   113.399206
	   23 B(5,7,6)        =    105.848714    -0.000001    -0.015722   105.832992
	   24 B(5,7,10)       =    109.117733     0.000001     0.009018   109.126751
	   25 B(6,7,10)       =    109.117976     0.000001     0.008642   109.126618
	   26 B(7,10,8)       =    109.117817     0.000001     0.008862   109.126679
	   27 B(7,10,9)       =    109.117935     0.000001     0.008765   109.126701
	   28 B(7,10,14)      =    113.395452    -0.000000     0.003714   113.399165
	   29 B(8,10,9)       =    105.848771    -0.000001    -0.015763   105.833008
	   30 B(8,10,14)      =    109.541818    -0.000000    -0.003663   109.538155
	   31 B(9,10,14)      =    109.541060    -0.000000    -0.003217   109.537843
	   32 B(10,14,11)     =    111.614816    -0.000001    -0.003266   111.611550
	   33 B(10,14,12)     =    111.269558    -0.000001    -0.004191   111.265367
	   34 B(10,14,13)     =    111.269462    -0.000001    -0.004201   111.265261
	   35 B(11,14,12)     =    107.570144     0.000001     0.005243   107.575387
	   36 B(11,14,13)     =    107.570265     0.000001     0.005182   107.575448
	   37 B(12,14,13)     =    107.334138     0.000001     0.002006   107.336144
	   38 D(1,4,7,5)      =   -178.021346     0.000000     0.009358  -178.011988
	   39 D(1,4,7,6)      =    -62.332760    -0.000000    -0.013428   -62.346187
	   40 D(1,4,7,10)     =     59.823514    -0.000000    -0.002574    59.820940
	   41 D(2,4,7,5)      =    -57.843579     0.000000     0.010818   -57.832761
	   42 D(2,4,7,6)      =     57.845008    -0.000000    -0.011968    57.833039
	   43 D(2,4,7,10)     =   -179.998719     0.000000    -0.001281  -180.000000
	   44 D(3,4,7,5)      =     62.333938     0.000000     0.012363    62.346301
	   45 D(3,4,7,6)      =    178.022525    -0.000000    -0.010423   178.012102
	   46 D(3,4,7,10)     =    -59.821201     0.000000     0.000430   -59.820771
	   47 D(4,7,10,8)     =    -57.606644    -0.000000     0.003619   -57.603025
	   48 D(4,7,10,9)     =     57.611482    -0.000000    -0.005525    57.605957
	   49 D(4,7,10,14)    =   -179.998025    -0.000000    -0.000702  -179.998727
	   50 D(5,7,10,8)     =   -179.996818    -0.000000    -0.001578  -179.998396
	   51 D(5,7,10,9)     =    -64.778693    -0.000000    -0.010722   -64.789414
	   52 D(5,7,10,14)    =     57.611800    -0.000000    -0.005899    57.605901
	   53 D(6,7,10,8)     =     64.785148     0.000000     0.007499    64.792647
	   54 D(6,7,10,9)     =   -179.996726    -0.000000    -0.001645  -179.998371
	   55 D(6,7,10,14)    =    -57.606234    -0.000000     0.003178   -57.603055
	   56 D(7,10,14,11)   =    180.000000     0.000000     0.000000   180.000000
	   57 D(7,10,14,12)   =     59.822936    -0.000000    -0.001712    59.821224
	   58 D(7,10,14,13)   =    -59.821983     0.000000     0.001368   -59.820615
	   59 D(8,10,14,11)   =     57.844560    -0.000000    -0.011443    57.833117
	   60 D(8,10,14,12)   =    -62.332936    -0.000000    -0.013025   -62.345961
	   61 D(8,10,14,13)   =    178.022145    -0.000000    -0.009945   178.012200
	   62 D(9,10,14,11)   =    -57.844100     0.000000     0.011386   -57.832714
	   63 D(9,10,14,12)   =   -178.021596     0.000000     0.009804  -178.011792
	   64 D(9,10,14,13)   =     62.333486     0.000000     0.012884    62.346369
	 ---------------------------------------------------------------------------
	 Forces used to impose fixed constraints are not included.
	  Forces zeroed: 49 

  ==> Convergence Check <==

  Measures of convergence in internal coordinates in au.
  Criteria marked as inactive (o), active & met (*), and active & unmet ( ).
  ---------------------------------------------------------------------------------------------
   Step     Total Energy     Delta E     MAX Force     RMS Force      MAX Disp      RMS Disp   
  ---------------------------------------------------------------------------------------------
    Convergence Criteria    1.00e-06 *    3.00e-04 *             o    1.20e-03 *             o
  ---------------------------------------------------------------------------------------------
      6    -158.45888803   -3.78e-06      5.65e-05 *    1.70e-05 o    2.75e-04 *    1.27e-04 o  ~
  ---------------------------------------------------------------------------------------------


  **** Optimization is complete! (in 6 steps) ****

  ==> Optimization Summary <==

  Measures of convergence in internal coordinates in au.
  --------------------------------------------------------------------------------------------------------------- ~
   Step         Total Energy             Delta E       MAX Force       RMS Force        MAX Disp        RMS Disp  ~
  --------------------------------------------------------------------------------------------------------------- ~
      1    -158.449389194070   -158.449389194070      0.02363097      0.00958192      0.02966343      0.01250274  ~
      2    -158.455236378196     -0.005847184125      0.01232621      0.00517137      0.02458771      0.01250728  ~
      3    -158.457935275878     -0.002698897682      0.00393026      0.00190819      0.03097848      0.01251337  ~
      4    -158.458737796085     -0.000802520207      0.00151227      0.00055305      0.02424860      0.00883399  ~
      5    -158.458884246134     -0.000146450048      0.00047193      0.00011971      0.00434400      0.00148624  ~
      6    -158.458888025482     -0.000003779349      0.00005653      0.00001699      0.00027512      0.00012743  ~
  --------------------------------------------------------------------------------------------------------------- ~

	Writing optimization data to binary file.
	Final energy is   -158.4588880254823
	Final (previous) structure:
	Cartesian Geometry (in Angstrom)
	    H    -2.3915763030   0.0629466138   0.3110711597
	    H    -2.2240185483   1.7210229469  -0.3134272666
	    H    -1.9445789611   0.3309564356  -1.3890338315
	    C    -1.7977186742   0.7057576004  -0.3613936556
	    H     0.2441631508   1.3763853836  -0.6418576366
	    H    -0.1994896026   1.1103399781   1.0456323246
	    C    -0.3173922300   0.6970315604   0.0264370935
	    H    -0.2441925626  -1.3763989300   0.6417905262
	    H     0.1995463827  -1.1103129632  -1.0456730916
	    C     0.3173973829  -0.6970290072  -0.0264604074
	    H     2.2240206877  -1.7210244186   0.3134198743
	    H     1.9445381809  -0.3310027097   1.3890760354
	    H     2.3915788237  -0.0629165604  -0.3110068631
	    C     1.7977142563  -0.7057597988   0.3614177059
	Saving final (previous) structure.
			--------------------------
			 OPTKING Finished Execution 
			--------------------------

    Final optimized geometry and variables:
    Molecular point group: c1
    Full point group: C1

    Geometry (in Angstrom), charge = 0, multiplicity = 1:

    H           -2.391576302973     0.062946613823     0.311071159664
    H           -2.224018548302     1.721022946946    -0.313427266601
    H           -1.944578961101     0.330956435601    -1.389033831510
    C           -1.797718674232     0.705757600358    -0.361393655571
    H            0.244163150815     1.376385383596    -0.641857636570
    H           -0.199489602632     1.110339978080     1.045632324629
    C           -0.317392229990     0.697031560446     0.026437093545
    H           -0.244192562647    -1.376398930016     0.641790526185
    H            0.199546382679    -1.110312963168    -1.045673091590
    C            0.317397382949    -0.697029007241    -0.026460407434
    H            2.224020687704    -1.721024418580     0.313419874272
    H            1.944538180854    -0.331002709733     1.389076035373
    H            2.391578823740    -0.062916560380    -0.311006863065
    C            1.797714256302    -0.705759798822     0.361417705946

	Cleaning optimization helper files.

*** Psi4 exiting successfully. Buy a developer a beer!
