    -----------------------------------------------------------------------
          Psi4: An Open-Source Ab Initio Electronic Structure Package
                              Psi4 1.0.0 Driver

                          Git: Rev {master} 6a9a71b 

    J. M. Turney, A. C. Simmonett, R. M. Parrish, E. G. Hohenstein,
    F. A. Evangelista, J. T. Fermann, B. J. Mintz, L. A. Burns, J. J. Wilke,
    M. L. Abrams, N. J. Russ, M. L. Leininger, C. L. Janssen, E. T. Seidl,
    W. D. Allen, H. F. Schaefer, R. A. King, E. F. Valeev, C. D. Sherrill,
    and T. D. Crawford, WIREs Comput. Mol. Sci. 2, 556-565 (2012)
    (doi: 10.1002/wcms.93)

                         Additional Contributions by
    A. E. DePrince, U. Bozkaya, A. Yu. Sokolov, D. G. A. Smith, R. Di Remigio,
    R. M. Richard, J. F. Gonthier, H. R. McAlexander, M. Saitow, and
    B. P. Pritchard
    -----------------------------------------------------------------------


    Psi4 started on: Tue Feb 21 19:57:49 2017

    Process ID:  50788
    PSI4DATADIR: /Users/sternc1/anaconda/share/psi4
    Memory level set to 256.000 MB

  ==> Input File <==

--------------------------------------------------------------------------

memory 1000 mb

molecule butane {
  symmetry C1
  0 1 
  H      1.604   0.760   -8.260
  H      1.745   2.388   -8.880
  H      2.043   1.024   -9.930
  C      2.142   1.395   -8.932
  H      4.169   2.051   -9.210
  H      3.731   1.788   -7.539
  C      3.631   1.416   -8.537
  H      5.267   0.025   -8.509
  H      3.789   -0.604   -7.823
  C      4.203   -0.012   -8.612
  H      4.237   -1.632   -10.021
  H      4.253   -0.049   -10.759
  H      2.775   -0.678   -10.073
  C      3.840   -0.641   -9.970
  units Angstrom
}

dih_string = "4 7 10 14 50"
set optking fixed_dihedral = $dih_string

optimize('B3LYP/cc-PVDZ')
--------------------------------------------------------------------------

  Memory set to 1000.000 MiB by Python script.
gradient() will perform analytic gradient computation.

*** tstart() called on lski1497
*** at Tue Feb 21 19:57:51 2017


         ---------------------------------------------------------
                                   SCF
            by Justin Turney, Rob Parrish, and Andy Simmonett
                              RKS Reference
                        1 Threads,   1000 MiB Core
         ---------------------------------------------------------

  ==> Geometry <==

    Molecular point group: c1
    Full point group: C1

    Geometry (in Angstrom), charge = 0, multiplicity = 1:

       Center              X                  Y                   Z               Mass       
    ------------   -----------------  -----------------  -----------------  -----------------
           H         -1.833913878266     0.226087628046     0.767959801186     1.007825032070
           H         -1.692913878266     1.854087628046     0.147959801186     1.007825032070
           H         -1.394913878266     0.490087628046    -0.902040198814     1.007825032070
           C         -1.295913878266     0.861087628046     0.095959801186    12.000000000000
           H          0.731086121734     1.517087628046    -0.182040198814     1.007825032070
           H          0.293086121734     1.254087628046     1.488959801186     1.007825032070
           C          0.193086121734     0.882087628046     0.490959801186    12.000000000000
           H          1.829086121734    -0.508912371954     0.518959801186     1.007825032070
           H          0.351086121734    -1.137912371954     1.204959801186     1.007825032070
           C          0.765086121734    -0.545912371954     0.415959801186    12.000000000000
           H          0.799086121734    -2.165912371954    -0.993040198814     1.007825032070
           H          0.815086121734    -0.582912371954    -1.731040198814     1.007825032070
           H         -0.662913878266    -1.211912371954    -1.045040198814     1.007825032070
           C          0.402086121734    -1.174912371954    -0.942040198814    12.000000000000

  Running in c1 symmetry.

  Rotational constants: A =      0.40463  B =      0.18449  C =      0.14633 [cm^-1]
  Rotational constants: A =  12130.49596  B =   5530.95799  C =   4386.94107 [MHz]
  Nuclear repulsion =  135.184071845277401

  Charge       = 0
  Multiplicity = 1
  Electrons    = 34
  Nalpha       = 17
  Nbeta        = 17

  ==> Algorithm <==

  SCF Algorithm Type is DF.
  DIIS enabled.
  MOM disabled.
  Fractional occupation disabled.
  Guess Type is SAD.
  Energy threshold   = 1.00e-08
  Density threshold  = 1.00e-08
  Integral threshold = 0.00e+00

  ==> Primary Basis <==

  Basis Set: CC-PVDZ
    Number of shells: 54
    Number of basis function: 106
    Number of Cartesian functions: 110
    Spherical Harmonics?: true
    Max angular momentum: 2

  ==> DFT Potential <==

   => B3LYP Composite Functional <= 

    B3LYP Hybrid-GGA Exchange-Correlation Functional (VWN1-RPA)

    P.J. Stephens et. al., J. Phys. Chem., 98, 11623-11627, 1994

    Points   =           5000
    Deriv    =              1
    GGA      =           TRUE
    Meta     =          FALSE

    X_LRC        =          FALSE
    X_Hybrid     =           TRUE
    X_Alpha      =   2.000000E-01
    X_Omega      =   0.000000E+00
    C_LRC        =          FALSE
    C_Hybrid     =          FALSE
    C_Alpha      =   0.000000E+00
    C_Omega      =   0.000000E+00

   => Exchange Functionals <=

    0.8000    B3_X
    0.2000      HF 

   => Correlation Functionals <=

    0.1900 VWN3RPA_C
    0.8100   LYP_C

   => Molecular Quadrature <=

    Radial Scheme    =       TREUTLER
    Pruning Scheme   =           FLAT
    Nuclear Scheme   =       TREUTLER

    BS radius alpha  =              1
    Pruning alpha    =              1
    Radial Points    =             75
    Spherical Points =            302
    Total Points     =         312726
    Total Blocks     =            272
    Max Points       =           4922
    Max Functions    =            106

  ==> Pre-Iterations <==

   -------------------------------------------------------
    Irrep   Nso     Nmo     Nalpha   Nbeta   Ndocc  Nsocc
   -------------------------------------------------------
     A        106     106       0       0       0       0
   -------------------------------------------------------
    Total     106     106      17      17      17       0
   -------------------------------------------------------

  ==> Integral Setup <==

  ==> DFJK: Density-Fitted J/K Matrices <==

    J tasked:                  Yes
    K tasked:                  Yes
    wK tasked:                  No
    OpenMP threads:              1
    Integrals threads:           1
    Memory (MB):               715
    Algorithm:                Core
    Integral Cache:           NONE
    Schwarz Cutoff:          1E-12
    Fitting Condition:       1E-12

   => Auxiliary Basis Set <=

  Basis Set: 
    Number of shells: 186
    Number of basis function: 510
    Number of Cartesian functions: 574
    Spherical Harmonics?: true
    Max angular momentum: 3

  Minimum eigenvalue in the overlap matrix is 4.5687667078E-03.
  Using Symmetric Orthogonalization.
  SCF Guess: Superposition of Atomic Densities via on-the-fly atomic UHF.

  ==> Iterations <==

                           Total Energy        Delta E     RMS |[F,P]|

   @DF-RKS iter   0:  -159.06015084356662   -1.59060e+02   3.39337e-02 
   @DF-RKS iter   1:  -158.28764430628109    7.72507e-01   4.92815e-03 
   @DF-RKS iter   2:  -158.23022596150227    5.74183e-02   5.89895e-03 DIIS
   @DF-RKS iter   3:  -158.44306162288424   -2.12836e-01   3.88697e-04 DIIS
   @DF-RKS iter   4:  -158.44391142657889   -8.49804e-04   1.02785e-04 DIIS
   @DF-RKS iter   5:  -158.44396204421301   -5.06176e-05   4.35510e-05 DIIS
   @DF-RKS iter   6:  -158.44397224563008   -1.02014e-05   6.95456e-06 DIIS
   @DF-RKS iter   7:  -158.44397254258334   -2.96953e-07   9.60728e-07 DIIS
   @DF-RKS iter   8:  -158.44397254891149   -6.32815e-09   1.10951e-07 DIIS
   @DF-RKS iter   9:  -158.44397254898402   -7.25322e-11   4.81471e-08 DIIS
   @DF-RKS iter  10:  -158.44397254899562   -1.15961e-11   1.59062e-08 DIIS
   @DF-RKS iter  11:  -158.44397254899701   -1.39266e-12   1.38095e-09 DIIS

  ==> Post-Iterations <==

    Orbital Energies (a.u.)
    -----------------------

    Doubly Occupied:                                                      

       1A    -10.170289     2A    -10.170087     3A    -10.162952  
       4A    -10.162821     5A     -0.797756     6A     -0.715801  
       7A     -0.645771     8A     -0.566711     9A     -0.464032  
      10A     -0.459538    11A     -0.416526    12A     -0.387202  
      13A     -0.375997    14A     -0.357888    15A     -0.328292  
      16A     -0.318654    17A     -0.318453  

    Virtual:                                                              

      18A      0.064210    19A      0.098760    20A      0.102250  
      21A      0.109347    22A      0.136606    23A      0.142404  
      24A      0.161117    25A      0.167831    26A      0.171555  
      27A      0.178088    28A      0.216793    29A      0.234439  
      30A      0.256697    31A      0.417175    32A      0.425802  
      33A      0.435474    34A      0.439826    35A      0.448174  
      36A      0.474466    37A      0.516798    38A      0.593910  
      39A      0.602241    40A      0.623485    41A      0.634930  
      42A      0.648231    43A      0.665955    44A      0.680268  
      45A      0.683540    46A      0.687461    47A      0.695326  
      48A      0.709973    49A      0.730228    50A      0.738167  
      51A      0.776295    52A      0.829204    53A      0.891408  
      54A      0.920697    55A      0.969809    56A      1.090386  
      57A      1.138265    58A      1.188928    59A      1.221976  
      60A      1.305995    61A      1.319256    62A      1.388515  
      63A      1.401174    64A      1.437561    65A      1.482217  
      66A      1.533866    67A      1.577735    68A      1.599258  
      69A      1.603546    70A      1.627738    71A      1.656659  
      72A      1.670871    73A      1.687159    74A      1.695367  
      75A      1.703498    76A      1.707171    77A      1.716683  
      78A      1.737331    79A      1.765922    80A      1.774907  
      81A      1.814235    82A      1.823062    83A      1.894781  
      84A      1.901784    85A      1.992560    86A      2.005473  
      87A      2.037468    88A      2.067739    89A      2.128101  
      90A      2.139551    91A      2.229781    92A      2.280483  
      93A      2.288713    94A      2.327058    95A      2.350392  
      96A      2.376621    97A      2.505464    98A      2.506431  
      99A      2.516778   100A      2.545935   101A      2.547309  
     102A      2.580172   103A      2.656451   104A      2.684639  
     105A      2.752397   106A      2.768655  

    Final Occupation by Irrep:
              A 
    DOCC [    17 ]

  Energy converged.

  @DF-RKS Final Energy:  -158.44397254899701

   => Energetics <=

    Nuclear Repulsion Energy =            135.1840718452774013
    One-Electron Energy =                -478.7494229621191835
    Two-Electron Energy =                 205.8076792426348050
    DFT Exchange-Correlation Energy =     -20.6863006747900293
    Empirical Dispersion Energy =           0.0000000000000000
    PCM Polarization Energy =               0.0000000000000000
    EFP Energy =                            0.0000000000000000
    Total Energy =                       -158.4439725489970101


  Saving occupied orbitals to File 180.

*** tstop() called on lski1497 at Tue Feb 21 20:00:04 2017
Module time:
	user time   =     120.08 seconds =       2.00 minutes
	system time =       1.65 seconds =       0.03 minutes
	total time  =        133 seconds =       2.22 minutes
Total time:
	user time   =     120.08 seconds =       2.00 minutes
	system time =       1.65 seconds =       0.03 minutes
	total time  =        133 seconds =       2.22 minutes


Properties will be evaluated at   0.000000,   0.000000,   0.000000 Bohr

Properties computed using the SCF density matrix

  Nuclear Dipole Moment: (a.u.)
     X:    -0.7182      Y:    -0.2495      Z:    -0.6791

  Electronic Dipole Moment: (a.u.)
     X:     0.7337      Y:     0.2542      Z:     0.6933

  Dipole Moment: (a.u.)
     X:     0.0155      Y:     0.0047      Z:     0.0142     Total:     0.0216

  Dipole Moment: (Debye)
     X:     0.0394      Y:     0.0120      Z:     0.0362     Total:     0.0548


*** tstart() called on lski1497
*** at Tue Feb 21 20:00:04 2017


         ------------------------------------------------------------
                                   SCF GRAD                          
                          Rob Parrish, Justin Turney,                
                       Andy Simmonett, and Alex Sokolov              
         ------------------------------------------------------------

  ==> Geometry <==

    Molecular point group: c1
    Full point group: C1

    Geometry (in Angstrom), charge = 0, multiplicity = 1:

       Center              X                  Y                   Z               Mass       
    ------------   -----------------  -----------------  -----------------  -----------------
           H         -1.833913878266     0.226087628046     0.767959801186     1.007825032070
           H         -1.692913878266     1.854087628046     0.147959801186     1.007825032070
           H         -1.394913878266     0.490087628046    -0.902040198814     1.007825032070
           C         -1.295913878266     0.861087628046     0.095959801186    12.000000000000
           H          0.731086121734     1.517087628046    -0.182040198814     1.007825032070
           H          0.293086121734     1.254087628046     1.488959801186     1.007825032070
           C          0.193086121734     0.882087628046     0.490959801186    12.000000000000
           H          1.829086121734    -0.508912371954     0.518959801186     1.007825032070
           H          0.351086121734    -1.137912371954     1.204959801186     1.007825032070
           C          0.765086121734    -0.545912371954     0.415959801186    12.000000000000
           H          0.799086121734    -2.165912371954    -0.993040198814     1.007825032070
           H          0.815086121734    -0.582912371954    -1.731040198814     1.007825032070
           H         -0.662913878266    -1.211912371954    -1.045040198814     1.007825032070
           C          0.402086121734    -1.174912371954    -0.942040198814    12.000000000000

  Nuclear repulsion =  135.184071845277401

  ==> Basis Set <==

  Basis Set: CC-PVDZ
    Number of shells: 54
    Number of basis function: 106
    Number of Cartesian functions: 110
    Spherical Harmonics?: true
    Max angular momentum: 2

  ==> DFJKGrad: Density-Fitted SCF Gradients <==

    Gradient:                    1
    J tasked:                  Yes
    K tasked:                  Yes
    wK tasked:                  No
    OpenMP threads:              1
    Integrals threads:           1
    Memory (MB):               715
    Schwarz Cutoff:          0E+00
    Fitting Condition:       1E-12

   => Auxiliary Basis Set <=

  Basis Set: 
    Number of shells: 186
    Number of basis function: 510
    Number of Cartesian functions: 574
    Spherical Harmonics?: true
    Max angular momentum: 3

  ==> DFT Potential <==

   => B3LYP Composite Functional <= 

    B3LYP Hybrid-GGA Exchange-Correlation Functional (VWN1-RPA)

    P.J. Stephens et. al., J. Phys. Chem., 98, 11623-11627, 1994

    Points   =           5000
    Deriv    =              1
    GGA      =           TRUE
    Meta     =          FALSE

    X_LRC        =          FALSE
    X_Hybrid     =           TRUE
    X_Alpha      =   2.000000E-01
    X_Omega      =   0.000000E+00
    C_LRC        =          FALSE
    C_Hybrid     =          FALSE
    C_Alpha      =   0.000000E+00
    C_Omega      =   0.000000E+00

   => Exchange Functionals <=

    0.8000    B3_X
    0.2000      HF 

   => Correlation Functionals <=

    0.1900 VWN3RPA_C
    0.8100   LYP_C

   => Molecular Quadrature <=

    Radial Scheme    =       TREUTLER
    Pruning Scheme   =           FLAT
    Nuclear Scheme   =       TREUTLER

    BS radius alpha  =              1
    Pruning alpha    =              1
    Radial Points    =             75
    Spherical Points =            302
    Total Points     =         312726
    Total Blocks     =            272
    Max Points       =           4922
    Max Functions    =            106


  -Total Gradient:
     Atom            X                  Y                   Z
    ------   -----------------  -----------------  -----------------
       1        0.014631876380     0.013310180899    -0.012858556388
       2        0.011959871624    -0.018846530681    -0.000565282653
       3        0.007593766992     0.002824748516     0.017976418799
       4       -0.027631911866    -0.011595629614    -0.009047326456
       5       -0.012497288108    -0.015335305691     0.012745463835
       6       -0.004190947203    -0.011277274334    -0.020257058264
       7        0.019959053014     0.029722634513     0.005796934643
       8       -0.023017466362     0.001752670260    -0.005408731609
       9        0.006929311750     0.013531205239    -0.018511409447
      10        0.015356064380    -0.017619921290     0.027909303961
      11       -0.007731377023     0.021839573031     0.005211489709
      12       -0.007737887568    -0.010949576905     0.019715389047
      13        0.016833827619     0.006099070836     0.005891959232
      14       -0.010463450339    -0.003457672165    -0.028604468985


*** tstop() called on lski1497 at Tue Feb 21 20:00:59 2017
Module time:
	user time   =      47.84 seconds =       0.80 minutes
	system time =       0.77 seconds =       0.01 minutes
	total time  =         55 seconds =       0.92 minutes
Total time:
	user time   =     167.95 seconds =       2.80 minutes
	system time =       2.42 seconds =       0.04 minutes
	total time  =        188 seconds =       3.13 minutes

			-----------------------------------------
			 OPTKING 2.0: for geometry optimizations 
			  - R.A. King,  Bethel University        
			-----------------------------------------

	Internal coordinates to be generated automatically.
	Detected frag 1 with atoms:  1 2 3 4 5 6 7 8 9 10 11 12 13 14
	---Fragment 1 Bond Connectivity---
	 1 : 4
	 2 : 4
	 3 : 4
	 4 : 1 2 3 7
	 5 : 7
	 6 : 7
	 7 : 4 5 6 10
	 8 : 10
	 9 : 10
	 10 : 7 8 9 14
	 11 : 14
	 12 : 14
	 13 : 14
	 14 : 10 11 12 13

	Assuming in current code that numbering for constraints corresponds to unified fragment.
	Fixed dihedral atom list: 
	     4     7    10    14
	---Fragment 1 Geometry and Gradient---
	 H          -3.4655949812        0.4272436990        1.4512337053
	 H          -3.1991435965        3.5037178434        0.2796035029
	 H          -2.6360052089        0.9261313981       -1.7046089366
	 C          -2.4489223217        1.6272197934        0.1813377440
	 H           1.3815525496        2.8668801366       -0.3440061209
	 H           0.5538525034        2.3698821636        2.8137262471
	 C           0.3648798901        1.6669040422        0.9277795665
	 H           3.4564718435       -0.9617050086        0.9806918982
	 H           0.6634566191       -2.1503427462        2.2770440254
	 C           1.4458032381       -1.0316248755        0.7860501065
	 H           1.5100539267       -4.0929812108       -1.8765740147
	 H           1.5402895448       -1.1015447425       -3.2711919008
	 H          -1.2527256796       -2.2901824800       -1.9748397736
	 C           0.7598326519       -2.2202626131       -1.7801979819
	             0.0146318764        0.0133101809       -0.0128585564
	             0.0119598716       -0.0188465307       -0.0005652827
	             0.0075937670        0.0028247485        0.0179764188
	            -0.0276319119       -0.0115956296       -0.0090473265
	            -0.0124972881       -0.0153353057        0.0127454638
	            -0.0041909472       -0.0112772743       -0.0202570583
	             0.0199590530        0.0297226345        0.0057969346
	            -0.0230174664        0.0017526703       -0.0054087316
	             0.0069293118        0.0135312052       -0.0185114094
	             0.0153560644       -0.0176199213        0.0279093040
	            -0.0077313770        0.0218395730        0.0052114897
	            -0.0077378876       -0.0109495769        0.0197153890
	             0.0168338276        0.0060990708        0.0058919592
	            -0.0104634503       -0.0034576722       -0.0286044690

	Previous optimization step data not found.  Starting new optimization.

	---Fragment 1 Intrafragment Coordinates---
	 - Coordinate -           - BOHR/RAD -       - ANG/DEG -
	 R(1,4)           =         2.021436	       1.069698
	 R(2,4)           =         2.023298	       1.070683
	 R(3,4)           =         2.020723	       1.069320
	 R(4,7)           =         2.911397	       1.540645
	 R(5,7)           =         2.022623	       1.070326
	 R(6,7)           =         2.021555	       1.069761
	 R(7,10)          =         2.910419	       1.540128
	 R(8,10)          =         2.021277	       1.069614
	 R(9,10)          =         2.021549	       1.069757
	 R(10,14)         =         2.910162	       1.539992
	 R(11,14)         =         2.019702	       1.068780
	 R(12,14)         =         2.020818	       1.069371
	 R(13,14)         =         2.023157	       1.070609
	 B(1,4,2)         =         1.910870	     109.484805
	 B(1,4,3)         =         1.911121	     109.499161
	 B(1,4,7)         =         1.910399	     109.457783
	 B(2,4,3)         =         1.910042	     109.437340
	 B(2,4,7)         =         1.910564	     109.467262
	 B(3,4,7)         =         1.910803	     109.480971
	 B(4,7,5)         =         1.909937	     109.431343
	 B(4,7,6)         =         1.911630	     109.528316
	 B(4,7,10)        =         1.911154	     109.501062
	 B(5,7,6)         =         1.910605	     109.469614
	 B(5,7,10)        =         1.910047	     109.437654
	 B(6,7,10)        =         1.910425	     109.459295
	 B(7,10,8)        =         1.909946	     109.431864
	 B(7,10,9)        =         1.910765	     109.478795
	 B(7,10,14)       =         1.911452	     109.518155
	 B(8,10,9)        =         1.910377	     109.456554
	 B(8,10,14)       =         1.910835	     109.482788
	 B(9,10,14)       =         1.910423	     109.459153
	 B(10,14,11)      =         1.910536	     109.465628
	 B(10,14,12)      =         1.910784	     109.479867
	 B(10,14,13)      =         1.910740	     109.477335
	 B(11,14,12)      =         1.912024	     109.550886
	 B(11,14,13)      =         1.910142	     109.443069
	 B(12,14,13)      =         1.909574	     109.410512
	 D(1,4,7,5)       =         3.140997	     179.965873
	 D(1,4,7,6)       =        -1.047644	     -60.025575
	 D(1,4,7,10)      =         1.047427	      60.013132
	 D(2,4,7,5)       =        -1.047689	     -60.028143
	 D(2,4,7,6)       =         1.046856	      59.980409
	 D(2,4,7,10)      =        -3.141259	    -179.980883
	 D(3,4,7,5)       =         1.046044	      59.933911
	 D(3,4,7,6)       =         3.140588	     179.942463
	 D(3,4,7,10)      =        -1.047526	     -60.018830
	 D(4,7,10,8)      =         2.967527	     170.026763
	 D(4,7,10,9)      =        -1.221916	     -70.010648
	 D(4,7,10,14)     =         0.872804	      50.007975
	 D(5,7,10,8)      =         0.874024	      50.077888
	 D(5,7,10,9)      =         2.967766	     170.040476
	 D(5,7,10,14)     =        -1.220699	     -69.940901
	 D(6,7,10,8)      =        -1.219851	     -69.892311
	 D(6,7,10,9)      =         0.873891	      50.070277
	 D(6,7,10,14)     =         2.968611	     170.088900
	 D(7,10,14,11)    =        -3.141222	    -179.978742
	 D(7,10,14,12)    =         1.045833	      59.921790
	 D(7,10,14,13)    =        -1.047423	     -60.012899
	 D(8,10,14,11)    =         1.047784	      60.033625
	 D(8,10,14,12)    =        -1.048347	     -60.065842
	 D(8,10,14,13)    =         3.141593	     180.000000
	 D(9,10,14,11)    =        -1.046292	     -59.948104
	 D(9,10,14,12)    =         3.140762	     179.952428
	 D(9,10,14,13)    =         1.047507	      60.017739

	Current energy   :      -158.4439725490

	Generating empirical Hessian (Schlegel '84) for each fragment.
	Adding user-defined constraint: Fragment 1; Coordinate 49:
		Value =     0.872804; Fixed value    =     0.872665
		Force =    -0.000070; Force constant =     0.500000
	Removing off-diagonal coupling between coordinate 49 and others.
	Taking RFO optimization step.
	Going to follow RFO solution 1.
	Using RFO vector 1.

	Determining step-restricting scale parameter for RS-RFO.
	Maximum step size allowed    0.10000

	 Iter      |step|        alpha        rfo_root  
	------------------------------------------------
	    0     0.36860       1.00000           1
	    1     0.26117       4.25238           1
	    2     0.18211      14.08502           1
	    3     0.13413      32.98371           1
	    4     0.10972      54.98966           1
	    5     0.10119      67.03878           1
	    6     0.10002      68.95824           1
	    7     0.10000      68.99507           1
	------------------------------------------------
	Norm of target step-size    0.10000
	Projected energy change by RFO approximation:        -0.0089844417

	Back-transformation to cartesian coordinates...
	Could not converge backtransformation.
	Using first guess instead.

	--- Internal Coordinate Step in ANG or DEG, aJ/ANG or AJ/DEG ---
	 ---------------------------------------------------------------------------
	   Coordinate                Previous        Force       Change         New 
	   ----------                --------       ------       ------       ------
	    1 R(1,4)          =      1.069698     0.192267     0.012372     1.082070
	    2 R(2,4)          =      1.070683     0.180773     0.012082     1.082765
	    3 R(3,4)          =      1.069320     0.152099     0.010474     1.079795
	    4 R(4,7)          =      1.540645     0.041091     0.003672     1.544317
	    5 R(5,7)          =      1.070326     0.192742     0.012334     1.082660
	    6 R(6,7)          =      1.069761     0.191226     0.012398     1.082158
	    7 R(7,10)         =      1.540128     0.118108     0.008422     1.548550
	    8 R(8,10)         =      1.069614     0.192423     0.012472     1.082086
	    9 R(9,10)         =      1.069757     0.196275     0.012550     1.082308
	   10 R(10,14)        =      1.539992     0.043960     0.003869     1.543861
	   11 R(11,14)        =      1.068780     0.192549     0.012801     1.081581
	   12 R(12,14)        =      1.069371     0.194394     0.012503     1.081874
	   13 R(13,14)        =      1.070609     0.144378     0.009998     1.080607
	   14 B(1,4,2)        =    109.484805    -0.000298    -0.271960   109.212845
	   15 B(1,4,3)        =    109.499161    -0.000310    -0.320457   109.178704
	   16 B(1,4,7)        =    109.457783     0.000226     0.194096   109.651879
	   17 B(2,4,3)        =    109.437340    -0.000446    -0.415389   109.021952
	   18 B(2,4,7)        =    109.467262     0.000256     0.253738   109.721000
	   19 B(3,4,7)        =    109.480971     0.000573     0.553969   110.034940
	   20 B(4,7,5)        =    109.431343    -0.000595    -0.539104   108.892239
	   21 B(4,7,6)        =    109.528316    -0.000758    -0.638788   108.889528
	   22 B(4,7,10)       =    109.501062     0.002436     2.170953   111.672016
	   23 B(5,7,6)        =    109.469614     0.000248     0.134319   109.603932
	   24 B(5,7,10)       =    109.437654    -0.000621    -0.519634   108.918020
	   25 B(6,7,10)       =    109.459295    -0.000710    -0.614764   108.844531
	   26 B(7,10,8)       =    109.431864    -0.000709    -0.613488   108.818376
	   27 B(7,10,9)       =    109.478795    -0.000624    -0.522875   108.955920
	   28 B(7,10,14)      =    109.518155     0.002434     2.169156   111.687312
	   29 B(8,10,9)       =    109.456554     0.000249     0.134529   109.591083
	   30 B(8,10,14)      =    109.482788    -0.000753    -0.633796   108.848992
	   31 B(9,10,14)      =    109.459153    -0.000597    -0.541173   108.917980
	   32 B(10,14,11)     =    109.465628     0.000261     0.259251   109.724880
	   33 B(10,14,12)     =    109.479867     0.000222     0.190122   109.669990
	   34 B(10,14,13)     =    109.477335     0.000573     0.555006   110.032341
	   35 B(11,14,12)     =    109.550886    -0.000302    -0.275913   109.274973
	   36 B(11,14,13)     =    109.443069    -0.000449    -0.419925   109.023144
	   37 B(12,14,13)     =    109.410512    -0.000305    -0.314544   109.095968
	   38 D(1,4,7,5)      =    179.965873     0.000067     0.266818   180.232691
	   39 D(1,4,7,6)      =    -60.025575    -0.000053    -0.275854   -60.301429
	   40 D(1,4,7,10)     =     60.013132    -0.000017    -0.094178    59.918954
	   41 D(2,4,7,5)      =    -60.028143     0.000051     0.208810   -59.819333
	   42 D(2,4,7,6)      =     59.980409    -0.000069    -0.333862    59.646547
	   43 D(2,4,7,10)     =   -179.980883    -0.000033    -0.152186  -180.133069
	   44 D(3,4,7,5)      =     59.933911     0.000042     0.197768    60.131678
	   45 D(3,4,7,6)      =    179.942463    -0.000078    -0.344904   179.597559
	   46 D(3,4,7,10)     =    -60.018830    -0.000042    -0.163229   -60.182058
	   47 D(4,7,10,8)     =    170.026763     0.000086     0.337813   170.364576
	   48 D(4,7,10,9)     =    -70.010648    -0.000031    -0.178859   -70.189507
	   49 D(4,7,10,14)    =     50.007975     0.000055     0.167952    50.175927
	   50 D(5,7,10,8)     =     50.077888    -0.000002    -0.011942    50.065945
	   51 D(5,7,10,9)     =    170.040476    -0.000119    -0.528614   169.511862
	   52 D(5,7,10,14)    =    -69.940901    -0.000032    -0.181803   -70.122704
	   53 D(6,7,10,8)     =    -69.892311     0.000115     0.503655   -69.388656
	   54 D(6,7,10,9)     =     50.070277    -0.000002    -0.013017    50.057261
	   55 D(6,7,10,14)    =    170.088900     0.000085     0.333794   170.422695
	   56 D(7,10,14,11)   =   -179.978742    -0.000033    -0.151189  -180.129931
	   57 D(7,10,14,12)   =     59.921790    -0.000016    -0.089734    59.832057
	   58 D(7,10,14,13)   =    -60.012899    -0.000042    -0.163737   -60.176636
	   59 D(8,10,14,11)   =     60.033625    -0.000070    -0.334249    59.699377
	   60 D(8,10,14,12)   =    -60.065842    -0.000053    -0.272794   -60.338636
	   61 D(8,10,14,13)   =    180.000000    -0.000079    -0.347328   179.652672
	   62 D(9,10,14,11)   =    -59.948104     0.000050     0.205815   -59.742290
	   63 D(9,10,14,12)   =    179.952428     0.000067     0.267270   180.219698
	   64 D(9,10,14,13)   =     60.017739     0.000041     0.193267    60.211005
	 ---------------------------------------------------------------------------
	 Forces used to impose fixed constraints are not included.
	  Forces zeroed: 49 

  ==> Convergence Check <==

  Measures of convergence in internal coordinates in au.
  Criteria marked as inactive (o), active & met (*), and active & unmet ( ).
  --------------------------------------------------------------------------------------------- ~
   Step     Total Energy     Delta E     MAX Force     RMS Force      MAX Disp      RMS Disp    ~
  --------------------------------------------------------------------------------------------- ~
    Convergence Criteria    1.00e-06 *    3.00e-04 *             o    1.20e-03 *             o  ~
  --------------------------------------------------------------------------------------------- ~
      1    -158.44397255   -1.58e+02      3.20e-02      1.15e-02 o    3.79e-02      1.27e-02 o  ~
  ---------------------------------------------------------------------------------------------

	Writing optimization data to binary file.
	Structure for next step:
	Cartesian Geometry (in Angstrom)
	    H    -1.8765320299   0.2641871268   0.7834571095
	    H    -1.6993539163   1.9168213961   0.1903492445
	    H    -1.4506794270   0.5574998453  -0.9009221106
	    C    -1.3200457338   0.9056363871   0.1128294220
	    H     0.7207080832   1.5282315173  -0.1829716382
	    H     0.2869657810   1.2384745068   1.5073883119
	    C     0.1767028665   0.8799909670   0.4923027859
	    H     1.8409958901  -0.4911003237   0.5060853231
	    H     0.3540319052  -1.1515268166   1.1992379960
	    C     0.7657086927  -0.5491777991   0.3998080998
	    H     0.8607104351  -2.2099154661  -0.9834434973
	    H     0.8431609590  -0.6259865385  -1.7603973708
	    H    -0.6376062832  -1.2901023788  -1.0752896805
	    C     0.4334384818  -1.2168056310  -0.9519967786
			--------------------------
			 OPTKING Finished Execution 
			--------------------------

    Structure for next step:
    Molecular point group: c1
    Full point group: C1

    Geometry (in Angstrom), charge = 0, multiplicity = 1:

    H           -1.874915673521     0.264699389010     0.784951483835
    H           -1.697737559941     1.917333658271     0.191843618869
    H           -1.449063070630     0.558012107437    -0.899427736258
    C           -1.318429377432     0.906148649232     0.114323796353
    H            0.722324439594     1.528743779494    -0.181477263853
    H            0.288582137416     1.238986768932     1.508882686274
    C            0.178319222864     0.880503229221     0.493797160227
    H            1.842612246525    -0.490588061477     0.507579697432
    H            0.355648261580    -1.151014554430     1.200732370370
    C            0.767325049064    -0.548665536951     0.401302474151
    H            0.862326791504    -2.209403203885    -0.981949122909
    H            0.844777315354    -0.625474276272    -1.758902996387
    H           -0.635989926777    -1.289590116635    -1.073795306182
    C            0.435054838158    -1.216293368803    -0.950502404197

gradient() will perform analytic gradient computation.

*** tstart() called on lski1497
*** at Tue Feb 21 20:01:02 2017


         ---------------------------------------------------------
                                   SCF
            by Justin Turney, Rob Parrish, and Andy Simmonett
                              RKS Reference
                        1 Threads,   1000 MiB Core
         ---------------------------------------------------------

  ==> Geometry <==

    Molecular point group: c1
    Full point group: C1

    Geometry (in Angstrom), charge = 0, multiplicity = 1:

       Center              X                  Y                   Z               Mass       
    ------------   -----------------  -----------------  -----------------  -----------------
           H         -1.874915673521     0.264699389010     0.784951483835     1.007825032070
           H         -1.697737559941     1.917333658271     0.191843618869     1.007825032070
           H         -1.449063070630     0.558012107437    -0.899427736258     1.007825032070
           C         -1.318429377432     0.906148649232     0.114323796353    12.000000000000
           H          0.722324439594     1.528743779494    -0.181477263853     1.007825032070
           H          0.288582137416     1.238986768932     1.508882686274     1.007825032070
           C          0.178319222864     0.880503229221     0.493797160227    12.000000000000
           H          1.842612246525    -0.490588061477     0.507579697432     1.007825032070
           H          0.355648261580    -1.151014554430     1.200732370370     1.007825032070
           C          0.767325049064    -0.548665536951     0.401302474151    12.000000000000
           H          0.862326791504    -2.209403203885    -0.981949122909     1.007825032070
           H          0.844777315354    -0.625474276272    -1.758902996387     1.007825032070
           H         -0.635989926777    -1.289590116635    -1.073795306182     1.007825032070
           C          0.435054838158    -1.216293368803    -0.950502404197    12.000000000000

  Running in c1 symmetry.

  Rotational constants: A =      0.40957  B =      0.17454  C =      0.14046 [cm^-1]
  Rotational constants: A =  12278.61134  B =   5232.67704  C =   4210.80394 [MHz]
  Nuclear repulsion =  133.550172398162857

  Charge       = 0
  Multiplicity = 1
  Electrons    = 34
  Nalpha       = 17
  Nbeta        = 17

  ==> Algorithm <==

  SCF Algorithm Type is DF.
  DIIS enabled.
  MOM disabled.
  Fractional occupation disabled.
  Guess Type is READ.
  Energy threshold   = 1.00e-08
  Density threshold  = 1.00e-08
  Integral threshold = 0.00e+00

  ==> Primary Basis <==

  Basis Set: CC-PVDZ
    Number of shells: 54
    Number of basis function: 106
    Number of Cartesian functions: 110
    Spherical Harmonics?: true
    Max angular momentum: 2

  ==> DFT Potential <==

   => B3LYP Composite Functional <= 

    B3LYP Hybrid-GGA Exchange-Correlation Functional (VWN1-RPA)

    P.J. Stephens et. al., J. Phys. Chem., 98, 11623-11627, 1994

    Points   =           5000
    Deriv    =              1
    GGA      =           TRUE
    Meta     =          FALSE

    X_LRC        =          FALSE
    X_Hybrid     =           TRUE
    X_Alpha      =   2.000000E-01
    X_Omega      =   0.000000E+00
    C_LRC        =          FALSE
    C_Hybrid     =          FALSE
    C_Alpha      =   0.000000E+00
    C_Omega      =   0.000000E+00

   => Exchange Functionals <=

    0.8000    B3_X
    0.2000      HF 

   => Correlation Functionals <=

    0.1900 VWN3RPA_C
    0.8100   LYP_C

   => Molecular Quadrature <=

    Radial Scheme    =       TREUTLER
    Pruning Scheme   =           FLAT
    Nuclear Scheme   =       TREUTLER

    BS radius alpha  =              1
    Pruning alpha    =              1
    Radial Points    =             75
    Spherical Points =            302
    Total Points     =         312748
    Total Blocks     =            271
    Max Points       =           4878
    Max Functions    =            106

  ==> Pre-Iterations <==

   -------------------------------------------------------
    Irrep   Nso     Nmo     Nalpha   Nbeta   Ndocc  Nsocc
   -------------------------------------------------------
     A        106     106       0       0       0       0
   -------------------------------------------------------
    Total     106     106      17      17      17       0
   -------------------------------------------------------

  ==> Integral Setup <==

  ==> DFJK: Density-Fitted J/K Matrices <==

    J tasked:                  Yes
    K tasked:                  Yes
    wK tasked:                  No
    OpenMP threads:              1
    Integrals threads:           1
    Memory (MB):               715
    Algorithm:                Core
    Integral Cache:           NONE
    Schwarz Cutoff:          1E-12
    Fitting Condition:       1E-12

   => Auxiliary Basis Set <=

  Basis Set: 
    Number of shells: 186
    Number of basis function: 510
    Number of Cartesian functions: 574
    Spherical Harmonics?: true
    Max angular momentum: 3

  Minimum eigenvalue in the overlap matrix is 4.6879300270E-03.
  Using Symmetric Orthogonalization.
  SCF Guess was Projection but file not found.
  Switching over to SAD guess.

  SCF Guess: Superposition of Atomic Densities via on-the-fly atomic UHF.

  ==> Iterations <==

                           Total Energy        Delta E     RMS |[F,P]|

   @DF-RKS iter   0:  -158.98170951112178   -1.58982e+02   3.31044e-02 
   @DF-RKS iter   1:  -158.29917672212483    6.82533e-01   4.83869e-03 
   @DF-RKS iter   2:  -158.24105117767471    5.81255e-02   5.82113e-03 DIIS
   @DF-RKS iter   3:  -158.45027186670626   -2.09221e-01   3.78138e-04 DIIS
   @DF-RKS iter   4:  -158.45108654647731   -8.14680e-04   1.03522e-04 DIIS
   @DF-RKS iter   5:  -158.45113799182147   -5.14453e-05   4.46835e-05 DIIS
   @DF-RKS iter   6:  -158.45114880245058   -1.08106e-05   6.87521e-06 DIIS
   @DF-RKS iter   7:  -158.45114909438371   -2.91933e-07   9.43851e-07 DIIS
   @DF-RKS iter   8:  -158.45114910051237   -6.12866e-09   1.16280e-07 DIIS
   @DF-RKS iter   9:  -158.45114910059024   -7.78755e-11   5.36776e-08 DIIS
   @DF-RKS iter  10:  -158.45114910060539   -1.51488e-11   1.62240e-08 DIIS
   @DF-RKS iter  11:  -158.45114910060656   -1.16529e-12   1.52293e-09 DIIS

  ==> Post-Iterations <==

    Orbital Energies (a.u.)
    -----------------------

    Doubly Occupied:                                                      

       1A    -10.174579     2A    -10.174405     3A    -10.167958  
       4A    -10.167878     5A     -0.792342     6A     -0.715566  
       7A     -0.642115     8A     -0.563412     9A     -0.461502  
      10A     -0.453664    11A     -0.415090    12A     -0.383361  
      13A     -0.377016    14A     -0.358206    15A     -0.325808  
      16A     -0.319513    17A     -0.318434  

    Virtual:                                                              

      18A      0.060871    19A      0.097222    20A      0.100855  
      21A      0.107290    22A      0.134785    23A      0.140068  
      24A      0.156854    25A      0.162364    26A      0.169156  
      27A      0.174327    28A      0.213713    29A      0.227795  
      30A      0.260033    31A      0.411338    32A      0.417233  
      33A      0.436017    34A      0.440804    35A      0.446887  
      36A      0.479423    37A      0.517397    38A      0.587032  
      39A      0.599587    40A      0.622588    41A      0.624969  
      42A      0.645840    43A      0.659289    44A      0.673357  
      45A      0.678223    46A      0.681553    47A      0.683143  
      48A      0.704422    49A      0.714894    50A      0.726085  
      51A      0.767160    52A      0.819960    53A      0.893370  
      54A      0.909475    55A      0.968749    56A      1.090611  
      57A      1.138872    58A      1.187289    59A      1.214714  
      60A      1.280504    61A      1.314900    62A      1.386975  
      63A      1.396467    64A      1.431323    65A      1.459117  
      66A      1.521550    67A      1.573276    68A      1.590801  
      69A      1.592672    70A      1.628696    71A      1.647312  
      72A      1.650826    73A      1.673284    74A      1.686876  
      75A      1.692982    76A      1.698595    77A      1.703622  
      78A      1.732018    79A      1.749905    80A      1.755629  
      81A      1.794209    82A      1.810198    83A      1.874853  
      84A      1.892282    85A      1.979329    86A      1.982731  
      87A      2.028584    88A      2.059708    89A      2.111268  
      90A      2.127229    91A      2.214117    92A      2.263383  
      93A      2.266559    94A      2.294605    95A      2.328036  
      96A      2.339362    97A      2.466692    98A      2.475934  
      99A      2.495092   100A      2.515478   101A      2.517614  
     102A      2.549000   103A      2.632616   104A      2.656309  
     105A      2.729326   106A      2.731146  

    Final Occupation by Irrep:
              A 
    DOCC [    17 ]

  Energy converged.

  @DF-RKS Final Energy:  -158.45114910060656

   => Energetics <=

    Nuclear Repulsion Energy =            133.5501723981628572
    One-Electron Energy =                -475.5423644559322156
    Two-Electron Energy =                 204.1829914747263501
    DFT Exchange-Correlation Energy =     -20.6419485175635842
    Empirical Dispersion Energy =           0.0000000000000000
    PCM Polarization Energy =               0.0000000000000000
    EFP Energy =                            0.0000000000000000
    Total Energy =                       -158.4511491006065569


  Saving occupied orbitals to File 180.

*** tstop() called on lski1497 at Tue Feb 21 20:05:58 2017
Module time:
	user time   =     245.58 seconds =       4.09 minutes
	system time =       3.51 seconds =       0.06 minutes
	total time  =        296 seconds =       4.93 minutes
Total time:
	user time   =     415.26 seconds =       6.92 minutes
	system time =       6.00 seconds =       0.10 minutes
	total time  =        487 seconds =       8.12 minutes


Properties will be evaluated at   0.000000,   0.000000,   0.000000 Bohr

Properties computed using the SCF density matrix

  Nuclear Dipole Moment: (a.u.)
     X:    -0.6951      Y:    -0.2421      Z:    -0.6577

  Electronic Dipole Moment: (a.u.)
     X:     0.7097      Y:     0.2469      Z:     0.6713

  Dipole Moment: (a.u.)
     X:     0.0146      Y:     0.0047      Z:     0.0136     Total:     0.0205

  Dipole Moment: (Debye)
     X:     0.0372      Y:     0.0120      Z:     0.0346     Total:     0.0522


*** tstart() called on lski1497
*** at Tue Feb 21 20:05:58 2017


         ------------------------------------------------------------
                                   SCF GRAD                          
                          Rob Parrish, Justin Turney,                
                       Andy Simmonett, and Alex Sokolov              
         ------------------------------------------------------------

  ==> Geometry <==

    Molecular point group: c1
    Full point group: C1

    Geometry (in Angstrom), charge = 0, multiplicity = 1:

       Center              X                  Y                   Z               Mass       
    ------------   -----------------  -----------------  -----------------  -----------------
           H         -1.874915673521     0.264699389010     0.784951483835     1.007825032070
           H         -1.697737559941     1.917333658271     0.191843618869     1.007825032070
           H         -1.449063070630     0.558012107437    -0.899427736258     1.007825032070
           C         -1.318429377432     0.906148649232     0.114323796353    12.000000000000
           H          0.722324439594     1.528743779494    -0.181477263853     1.007825032070
           H          0.288582137416     1.238986768932     1.508882686274     1.007825032070
           C          0.178319222864     0.880503229221     0.493797160227    12.000000000000
           H          1.842612246525    -0.490588061477     0.507579697432     1.007825032070
           H          0.355648261580    -1.151014554430     1.200732370370     1.007825032070
           C          0.767325049064    -0.548665536951     0.401302474151    12.000000000000
           H          0.862326791504    -2.209403203885    -0.981949122909     1.007825032070
           H          0.844777315354    -0.625474276272    -1.758902996387     1.007825032070
           H         -0.635989926777    -1.289590116635    -1.073795306182     1.007825032070
           C          0.435054838158    -1.216293368803    -0.950502404197    12.000000000000

  Nuclear repulsion =  133.550172398162857

  ==> Basis Set <==

  Basis Set: CC-PVDZ
    Number of shells: 54
    Number of basis function: 106
    Number of Cartesian functions: 110
    Spherical Harmonics?: true
    Max angular momentum: 2

  ==> DFJKGrad: Density-Fitted SCF Gradients <==

    Gradient:                    1
    J tasked:                  Yes
    K tasked:                  Yes
    wK tasked:                  No
    OpenMP threads:              1
    Integrals threads:           1
    Memory (MB):               715
    Schwarz Cutoff:          0E+00
    Fitting Condition:       1E-12

   => Auxiliary Basis Set <=

  Basis Set: 
    Number of shells: 186
    Number of basis function: 510
    Number of Cartesian functions: 574
    Spherical Harmonics?: true
    Max angular momentum: 3

  ==> DFT Potential <==

   => B3LYP Composite Functional <= 

    B3LYP Hybrid-GGA Exchange-Correlation Functional (VWN1-RPA)

    P.J. Stephens et. al., J. Phys. Chem., 98, 11623-11627, 1994

    Points   =           5000
    Deriv    =              1
    GGA      =           TRUE
    Meta     =          FALSE

    X_LRC        =          FALSE
    X_Hybrid     =           TRUE
    X_Alpha      =   2.000000E-01
    X_Omega      =   0.000000E+00
    C_LRC        =          FALSE
    C_Hybrid     =          FALSE
    C_Alpha      =   0.000000E+00
    C_Omega      =   0.000000E+00

   => Exchange Functionals <=

    0.8000    B3_X
    0.2000      HF 

   => Correlation Functionals <=

    0.1900 VWN3RPA_C
    0.8100   LYP_C

   => Molecular Quadrature <=

    Radial Scheme    =       TREUTLER
    Pruning Scheme   =           FLAT
    Nuclear Scheme   =       TREUTLER

    BS radius alpha  =              1
    Pruning alpha    =              1
    Radial Points    =             75
    Spherical Points =            302
    Total Points     =         312748
    Total Blocks     =            271
    Max Points       =           4878
    Max Functions    =            106


  -Total Gradient:
     Atom            X                  Y                   Z
    ------   -----------------  -----------------  -----------------
       1        0.010032384929     0.007823806006    -0.007268992843
       2        0.007394893753    -0.010910369798    -0.000605867072
       3        0.005629928135     0.002038281419     0.012101437863
       4       -0.022205803673    -0.005383794283    -0.007792688230
       5       -0.008269662170    -0.010586290064     0.006430699340
       6       -0.004334424817    -0.007964145675    -0.011645314529
       7        0.014635650189     0.022780407854     0.006577432033
       8       -0.013726144122     0.001639629978    -0.005416818785
       9        0.002552693744     0.008654236310    -0.012133411541
      10        0.013741533184    -0.012978323870     0.020487342873
      11       -0.004775247473     0.012693591334     0.003489311366
      12       -0.004332820117    -0.005822538775     0.012884845216
      13        0.011464332309     0.004162900492     0.004475962693
      14       -0.007820259991    -0.006151668469    -0.021596056608


*** tstop() called on lski1497 at Tue Feb 21 20:07:37 2017
Module time:
	user time   =      82.58 seconds =       1.38 minutes
	system time =       1.29 seconds =       0.02 minutes
	total time  =         99 seconds =       1.65 minutes
Total time:
	user time   =     497.90 seconds =       8.30 minutes
	system time =       7.29 seconds =       0.12 minutes
	total time  =        586 seconds =       9.77 minutes

			-----------------------------------------
			 OPTKING 2.0: for geometry optimizations 
			  - R.A. King,  Bethel University        
			-----------------------------------------

	Previous internal coordinate definitions found.
	---Fragment 1 Geometry and Gradient---
	 H          -3.5430771452        0.5002093528        1.4833433321
	 H          -3.2082590338        3.6232355195        0.3625319000
	 H          -2.7383323528        1.0544900619       -1.6996720978
	 C          -2.4914704489        1.7123727827        0.2160406656
	 H           1.3649953699        2.8889070706       -0.3429423280
	 H           0.5453412066        2.3413456756        2.8513750437
	 C           0.3369744954        1.6639099623        0.9331413980
	 H           3.4820325150       -0.9270770803        0.9591866188
	 H           0.6720778140       -2.1751022828        2.2690553389
	 C           1.4500341976       -1.0368276034        0.7583517726
	 H           1.6295614730       -4.1751669725       -1.8556149187
	 H           1.5963977693       -1.1819750853       -3.3238449575
	 H          -1.2018467849       -2.4369721441       -2.0291790515
	 C           0.8221344969       -2.2984613643       -1.7961892326
	             0.0100323849        0.0078238060       -0.0072689928
	             0.0073948938       -0.0109103698       -0.0006058671
	             0.0056299281        0.0020382814        0.0121014379
	            -0.0222058037       -0.0053837943       -0.0077926882
	            -0.0082696622       -0.0105862901        0.0064306993
	            -0.0043344248       -0.0079641457       -0.0116453145
	             0.0146356502        0.0227804079        0.0065774320
	            -0.0137261441        0.0016396300       -0.0054168188
	             0.0025526937        0.0086542363       -0.0121334115
	             0.0137415332       -0.0129783239        0.0204873429
	            -0.0047752475        0.0126935913        0.0034893114
	            -0.0043328201       -0.0058225388        0.0128848452
	             0.0114643323        0.0041629005        0.0044759627
	            -0.0078202600       -0.0061516685       -0.0215960566

	---Fragment 1 Intrafragment Coordinates---
	 - Coordinate -           - BOHR/RAD -       - ANG/DEG -
	 R(1,4)           =         2.044816	       1.082070
	 R(2,4)           =         2.046129	       1.082765
	 R(3,4)           =         2.040516	       1.079795
	 R(4,7)           =         2.918336	       1.544317
	 R(5,7)           =         2.045931	       1.082660
	 R(6,7)           =         2.044983	       1.082158
	 R(7,10)          =         2.926335	       1.548550
	 R(8,10)          =         2.044846	       1.082086
	 R(9,10)          =         2.045265	       1.082308
	 R(10,14)         =         2.917475	       1.543861
	 R(11,14)         =         2.043892	       1.081581
	 R(12,14)         =         2.044445	       1.081874
	 R(13,14)         =         2.042050	       1.080607
	 B(1,4,2)         =         1.906124	     109.212845
	 B(1,4,3)         =         1.905528	     109.178704
	 B(1,4,7)         =         1.913786	     109.651879
	 B(2,4,3)         =         1.902792	     109.021952
	 B(2,4,7)         =         1.914993	     109.721000
	 B(3,4,7)         =         1.920472	     110.034940
	 B(4,7,5)         =         1.900528	     108.892239
	 B(4,7,6)         =         1.900481	     108.889528
	 B(4,7,10)        =         1.949044	     111.672016
	 B(5,7,6)         =         1.912949	     109.603932
	 B(5,7,10)        =         1.900978	     108.918020
	 B(6,7,10)        =         1.899695	     108.844531
	 B(7,10,8)        =         1.899239	     108.818376
	 B(7,10,9)        =         1.901640	     108.955920
	 B(7,10,14)       =         1.949311	     111.687312
	 B(8,10,9)        =         1.912725	     109.591083
	 B(8,10,14)       =         1.899773	     108.848992
	 B(9,10,14)       =         1.900977	     108.917980
	 B(10,14,11)      =         1.915060	     109.724880
	 B(10,14,12)      =         1.914102	     109.669990
	 B(10,14,13)      =         1.920427	     110.032341
	 B(11,14,12)      =         1.907208	     109.274973
	 B(11,14,13)      =         1.902813	     109.023144
	 B(12,14,13)      =         1.904084	     109.095968
	 D(1,4,7,5)       =        -3.137531	    -179.767309
	 D(1,4,7,6)       =        -1.052458	     -60.301429
	 D(1,4,7,10)      =         1.045783	      59.918954
	 D(2,4,7,5)       =        -1.044044	     -59.819333
	 D(2,4,7,6)       =         1.041029	      59.646547
	 D(2,4,7,10)      =         3.139270	     179.866931
	 D(3,4,7,5)       =         1.049496	      60.131678
	 D(3,4,7,6)       =         3.134569	     179.597559
	 D(3,4,7,10)      =        -1.050375	     -60.182058
	 D(4,7,10,8)      =         2.973423	     170.364576
	 D(4,7,10,9)      =        -1.225038	     -70.189507
	 D(4,7,10,14)     =         0.875735	      50.175927
	 D(5,7,10,8)      =         0.873816	      50.065945
	 D(5,7,10,9)      =         2.958540	     169.511862
	 D(5,7,10,14)     =        -1.223872	     -70.122704
	 D(6,7,10,8)      =        -1.211061	     -69.388656
	 D(6,7,10,9)      =         0.873664	      50.057261
	 D(6,7,10,14)     =         2.974437	     170.422695
	 D(7,10,14,11)    =         3.139325	     179.870069
	 D(7,10,14,12)    =         1.044266	      59.832057
	 D(7,10,14,13)    =        -1.050280	     -60.176636
	 D(8,10,14,11)    =         1.041951	      59.699377
	 D(8,10,14,12)    =        -1.053108	     -60.338636
	 D(8,10,14,13)    =         3.135531	     179.652672
	 D(9,10,14,11)    =        -1.042700	     -59.742290
	 D(9,10,14,12)    =        -3.137758	    -179.780302
	 D(9,10,14,13)    =         1.050880	      60.211005

	Current energy   :      -158.4511491006

	Energy change for the previous step:
		Projected    :        -0.0089844417
		Actual       :        -0.0071765516

	Performing BFGS update.
	Previous computed or guess Hessian on step 1.
	Steps to be used in Hessian update: 1
	Adding user-defined constraint: Fragment 1; Coordinate 49:
		Value =     0.875735; Fixed value    =     0.872660
		Force =    -0.001614; Force constant =     0.525000
	Removing off-diagonal coupling between coordinate 49 and others.
	Taking RFO optimization step.
	Going to follow RFO solution 1.
	Using RFO vector 1.

	Determining step-restricting scale parameter for RS-RFO.
	Maximum step size allowed    0.10000

	 Iter      |step|        alpha        rfo_root  
	------------------------------------------------
	    0     0.19901       1.00000           1
	    1     0.15265       7.31148           1
	    2     0.12099      20.33830           1
	    3     0.10499      33.83445           1
	    4     0.10039      39.27167           1
	    5     0.10000      39.77007           1
	------------------------------------------------
	Norm of target step-size    0.10000
	Projected energy change by RFO approximation:        -0.0047841743

	Back-transformation to cartesian coordinates...
	Could not converge backtransformation.
	Using first guess instead.

	--- Internal Coordinate Step in ANG or DEG, aJ/ANG or AJ/DEG ---
	 ---------------------------------------------------------------------------
	   Coordinate                Previous        Force       Change         New 
	   ----------                --------       ------       ------       ------
	    1 R(1,4)          =      1.082070     0.117828     0.014067     1.096138
	    2 R(2,4)          =      1.082765     0.105648     0.012459     1.095224
	    3 R(3,4)          =      1.079795     0.104639     0.014152     1.093947
	    4 R(4,7)          =      1.544317     0.000490    -0.001935     1.542382
	    5 R(5,7)          =      1.082660     0.119503     0.014232     1.096892
	    6 R(6,7)          =      1.082158     0.115360     0.013616     1.095775
	    7 R(7,10)         =      1.548550     0.026874    -0.001445     1.547105
	    8 R(8,10)         =      1.082086     0.116023     0.013687     1.095773
	    9 R(9,10)         =      1.082308     0.121520     0.014447     1.096755
	   10 R(10,14)        =      1.543861     0.002356    -0.001683     1.542178
	   11 R(11,14)        =      1.081581     0.112404     0.013190     1.094771
	   12 R(12,14)        =      1.081874     0.119032     0.014195     1.096069
	   13 R(13,14)        =      1.080607     0.100160     0.013665     1.094272
	   14 B(1,4,2)        =    109.212845    -0.000250    -0.536858   108.675986
	   15 B(1,4,3)        =    109.178704    -0.000262    -0.610867   108.567838
	   16 B(1,4,7)        =    109.651879     0.000236     0.571572   110.223451
	   17 B(2,4,3)        =    109.021952    -0.000307    -0.563684   108.458267
	   18 B(2,4,7)        =    109.721000     0.000193     0.411198   110.132199
	   19 B(3,4,7)        =    110.034940     0.000381     0.691218   110.726158
	   20 B(4,7,5)        =    108.892239    -0.000264    -0.197602   108.694637
	   21 B(4,7,6)        =    108.889528    -0.000303    -0.208861   108.680667
	   22 B(4,7,10)       =    111.672016     0.001145     1.271829   112.943844
	   23 B(5,7,6)        =    109.603932     0.000009    -0.329567   109.274365
	   24 B(5,7,10)       =    108.918020    -0.000265    -0.216897   108.701122
	   25 B(6,7,10)       =    108.844531    -0.000331    -0.348967   108.495563
	   26 B(7,10,8)       =    108.818376    -0.000329    -0.345040   108.473336
	   27 B(7,10,9)       =    108.955920    -0.000267    -0.222110   108.733809
	   28 B(7,10,14)      =    111.687312     0.001142     1.264975   112.952286
	   29 B(8,10,9)       =    109.591083     0.000009    -0.329223   109.261860
	   30 B(8,10,14)      =    108.848992    -0.000299    -0.198604   108.650388
	   31 B(9,10,14)      =    108.917980    -0.000265    -0.200369   108.717611
	   32 B(10,14,11)     =    109.724880     0.000196     0.416596   110.141476
	   33 B(10,14,12)     =    109.669990     0.000232     0.563445   110.233435
	   34 B(10,14,13)     =    110.032341     0.000380     0.690805   110.723146
	   35 B(11,14,12)     =    109.274973    -0.000254    -0.547393   108.727580
	   36 B(11,14,13)     =    109.023144    -0.000309    -0.566903   108.456241
	   37 B(12,14,13)     =    109.095968    -0.000256    -0.594089   108.501880
	   38 D(1,4,7,5)      =   -179.767309     0.000041     0.322300  -179.445009
	   39 D(1,4,7,6)      =    -60.301429    -0.000033    -0.310207   -60.611636
	   40 D(1,4,7,10)     =     59.918954    -0.000009    -0.081820    59.837134
	   41 D(2,4,7,5)      =    -59.819333     0.000031     0.275686   -59.543646
	   42 D(2,4,7,6)      =     59.646547    -0.000043    -0.356820    59.289727
	   43 D(2,4,7,10)     =    179.866931    -0.000018    -0.128433   179.738497
	   44 D(3,4,7,5)      =     60.131678     0.000026     0.275983    60.407662
	   45 D(3,4,7,6)      =    179.597559    -0.000048    -0.356523   179.241035
	   46 D(3,4,7,10)     =    -60.182058    -0.000023    -0.128136   -60.310195
	   47 D(4,7,10,8)     =    170.364576     0.000052     0.498122   170.862698
	   48 D(4,7,10,9)     =    -70.189507    -0.000025    -0.225519   -70.415026
	   49 D(4,7,10,14)    =     50.175927     0.000023     0.180383    50.356310
	   50 D(5,7,10,8)     =     50.065945     0.000003     0.082591    50.148536
	   51 D(5,7,10,9)     =    169.511862    -0.000075    -0.641050   168.870812
	   52 D(5,7,10,14)    =    -70.122704    -0.000026    -0.235148   -70.357853
	   53 D(6,7,10,8)     =    -69.388656     0.000080     0.805799   -68.582857
	   54 D(6,7,10,9)     =     50.057261     0.000003     0.082158    50.139419
	   55 D(6,7,10,14)    =    170.422695     0.000052     0.488060   170.910755
	   56 D(7,10,14,11)   =    179.870069    -0.000018    -0.126982   179.743087
	   57 D(7,10,14,12)   =     59.832057    -0.000008    -0.066595    59.765462
	   58 D(7,10,14,13)   =    -60.176636    -0.000023    -0.127415   -60.304051
	   59 D(8,10,14,11)   =     59.699377    -0.000043    -0.361568    59.337808
	   60 D(8,10,14,12)   =    -60.338636    -0.000033    -0.301182   -60.639817
	   61 D(8,10,14,13)   =    179.652672    -0.000048    -0.362002   179.290670
	   62 D(9,10,14,11)   =    -59.742290     0.000030     0.265932   -59.476357
	   63 D(9,10,14,12)   =   -179.780302     0.000041     0.326319  -179.453983
	   64 D(9,10,14,13)   =     60.211005     0.000026     0.265499    60.476504
	 ---------------------------------------------------------------------------
	 Forces used to impose fixed constraints are not included.
	  Forces zeroed: 49 

  ==> Convergence Check <==

  Measures of convergence in internal coordinates in au.
  Criteria marked as inactive (o), active & met (*), and active & unmet ( ).
  ---------------------------------------------------------------------------------------------
   Step     Total Energy     Delta E     MAX Force     RMS Force      MAX Disp      RMS Disp   
  ---------------------------------------------------------------------------------------------
    Convergence Criteria    1.00e-06 *    3.00e-04 *             o    1.20e-03 *             o
  ---------------------------------------------------------------------------------------------
      2    -158.45114910   -7.18e-03      1.50e-02      6.57e-03 o    2.73e-02      1.26e-02 o  ~
  ---------------------------------------------------------------------------------------------

	Writing optimization data to binary file.
	Structure for next step:
	Cartesian Geometry (in Angstrom)
	    H    -1.9056441321   0.2830603838   0.7957692628
	    H    -1.7020343630   1.9543687964   0.2168459031
	    H    -1.4853507681   0.5935240164  -0.9038971315
	    C    -1.3274733060   0.9292725958   0.1252129107
	    H     0.7219292741   1.5376998221  -0.1853062481
	    H     0.2906035889   1.2311199616   1.5227238194
	    C     0.1694403243   0.8761572620   0.4931399664
	    H     1.8528865313  -0.4782617113   0.5054584952
	    H     0.3550259665  -1.1601640240   1.2039740391
	    C     0.7652704848  -0.5480005021   0.3916765898
	    H     0.8986992360  -2.2358283205  -0.9768954610
	    H     0.8615690485  -0.6486468119  -1.7830570251
	    H    -0.6272491857  -1.3347926087  -1.0955651396
	    C     0.4531619943  -1.2361103965  -0.9527215237
			--------------------------
			 OPTKING Finished Execution 
			--------------------------

    Structure for next step:
    Molecular point group: c1
    Full point group: C1

    Geometry (in Angstrom), charge = 0, multiplicity = 1:

    H           -1.905290162159     0.283131171464     0.796074562874
    H           -1.701680393108     1.954439584058     0.217151203213
    H           -1.484996798167     0.593594804091    -0.903591831469
    C           -1.327119336052     0.929343383475     0.125518210751
    H            0.722283243966     1.537770609795    -0.185000947994
    H            0.290957558848     1.231190749252     1.523029119431
    C            0.169794294214     0.876228049617     0.493445266513
    H            1.853240501201    -0.478190923610     0.505763795285
    H            0.355379936398    -1.160093236316     1.204279339212
    C            0.765624454705    -0.547929714489     0.391981889849
    H            0.899053205889    -2.235757532880    -0.976590160905
    H            0.861923018429    -0.648576024270    -1.782751725034
    H           -0.626895215795    -1.334721821065    -1.095259839486
    C            0.453515964178    -1.236039608896    -0.952416223595

gradient() will perform analytic gradient computation.

*** tstart() called on lski1497
*** at Tue Feb 21 20:07:39 2017


         ---------------------------------------------------------
                                   SCF
            by Justin Turney, Rob Parrish, and Andy Simmonett
                              RKS Reference
                        1 Threads,   1000 MiB Core
         ---------------------------------------------------------

  ==> Geometry <==

    Molecular point group: c1
    Full point group: C1

    Geometry (in Angstrom), charge = 0, multiplicity = 1:

       Center              X                  Y                   Z               Mass       
    ------------   -----------------  -----------------  -----------------  -----------------
           H         -1.905290162159     0.283131171464     0.796074562874     1.007825032070
           H         -1.701680393108     1.954439584058     0.217151203213     1.007825032070
           H         -1.484996798167     0.593594804091    -0.903591831469     1.007825032070
           C         -1.327119336052     0.929343383475     0.125518210751    12.000000000000
           H          0.722283243966     1.537770609795    -0.185000947994     1.007825032070
           H          0.290957558848     1.231190749252     1.523029119431     1.007825032070
           C          0.169794294214     0.876228049617     0.493445266513    12.000000000000
           H          1.853240501201    -0.478190923610     0.505763795285     1.007825032070
           H          0.355379936398    -1.160093236316     1.204279339212     1.007825032070
           C          0.765624454705    -0.547929714489     0.391981889849    12.000000000000
           H          0.899053205889    -2.235757532880    -0.976590160905     1.007825032070
           H          0.861923018429    -0.648576024270    -1.782751725034     1.007825032070
           H         -0.626895215795    -1.334721821065    -1.095259839486     1.007825032070
           C          0.453515964178    -1.236039608896    -0.952416223595    12.000000000000

  Running in c1 symmetry.

  Rotational constants: A =      0.41227  B =      0.16975  C =      0.13770 [cm^-1]
  Rotational constants: A =  12359.51407  B =   5089.07031  C =   4128.13705 [MHz]
  Nuclear repulsion =  132.586008226482306

  Charge       = 0
  Multiplicity = 1
  Electrons    = 34
  Nalpha       = 17
  Nbeta        = 17

  ==> Algorithm <==

  SCF Algorithm Type is DF.
  DIIS enabled.
  MOM disabled.
  Fractional occupation disabled.
  Guess Type is READ.
  Energy threshold   = 1.00e-08
  Density threshold  = 1.00e-08
  Integral threshold = 0.00e+00

  ==> Primary Basis <==

  Basis Set: CC-PVDZ
    Number of shells: 54
    Number of basis function: 106
    Number of Cartesian functions: 110
    Spherical Harmonics?: true
    Max angular momentum: 2

  ==> DFT Potential <==

   => B3LYP Composite Functional <= 

    B3LYP Hybrid-GGA Exchange-Correlation Functional (VWN1-RPA)

    P.J. Stephens et. al., J. Phys. Chem., 98, 11623-11627, 1994

    Points   =           5000
    Deriv    =              1
    GGA      =           TRUE
    Meta     =          FALSE

    X_LRC        =          FALSE
    X_Hybrid     =           TRUE
    X_Alpha      =   2.000000E-01
    X_Omega      =   0.000000E+00
    C_LRC        =          FALSE
    C_Hybrid     =          FALSE
    C_Alpha      =   0.000000E+00
    C_Omega      =   0.000000E+00

   => Exchange Functionals <=

    0.8000    B3_X
    0.2000      HF 

   => Correlation Functionals <=

    0.1900 VWN3RPA_C
    0.8100   LYP_C

   => Molecular Quadrature <=

    Radial Scheme    =       TREUTLER
    Pruning Scheme   =           FLAT
    Nuclear Scheme   =       TREUTLER

    BS radius alpha  =              1
    Pruning alpha    =              1
    Radial Points    =             75
    Spherical Points =            302
    Total Points     =         312778
    Total Blocks     =            270
    Max Points       =           4896
    Max Functions    =            106

  ==> Pre-Iterations <==

   -------------------------------------------------------
    Irrep   Nso     Nmo     Nalpha   Nbeta   Ndocc  Nsocc
   -------------------------------------------------------
     A        106     106       0       0       0       0
   -------------------------------------------------------
    Total     106     106      17      17      17       0
   -------------------------------------------------------

  ==> Integral Setup <==

  ==> DFJK: Density-Fitted J/K Matrices <==

    J tasked:                  Yes
    K tasked:                  Yes
    wK tasked:                  No
    OpenMP threads:              1
    Integrals threads:           1
    Memory (MB):               715
    Algorithm:                Core
    Integral Cache:           NONE
    Schwarz Cutoff:          1E-12
    Fitting Condition:       1E-12

   => Auxiliary Basis Set <=

  Basis Set: 
    Number of shells: 186
    Number of basis function: 510
    Number of Cartesian functions: 574
    Spherical Harmonics?: true
    Max angular momentum: 3

  Minimum eigenvalue in the overlap matrix is 4.6991096134E-03.
  Using Symmetric Orthogonalization.
  SCF Guess was Projection but file not found.
  Switching over to SAD guess.

  SCF Guess: Superposition of Atomic Densities via on-the-fly atomic UHF.

  ==> Iterations <==

                           Total Energy        Delta E     RMS |[F,P]|

   @DF-RKS iter   0:  -158.92321407112701   -1.58923e+02   3.24693e-02 
   @DF-RKS iter   1:  -158.30557697140554    6.17637e-01   4.78016e-03 
   @DF-RKS iter   2:  -158.24219755449298    6.33794e-02   5.83376e-03 DIIS
   @DF-RKS iter   3:  -158.45393755464306   -2.11740e-01   3.73003e-04 DIIS
   @DF-RKS iter   4:  -158.45474158512926   -8.04030e-04   1.02086e-04 DIIS
   @DF-RKS iter   5:  -158.45479210731753   -5.05222e-05   4.44047e-05 DIIS
   @DF-RKS iter   6:  -158.45480279426135   -1.06869e-05   7.00714e-06 DIIS
   @DF-RKS iter   7:  -158.45480309708535   -3.02824e-07   9.50959e-07 DIIS
   @DF-RKS iter   8:  -158.45480310333534   -6.24999e-09   1.24643e-07 DIIS
   @DF-RKS iter   9:  -158.45480310342137   -8.60325e-11   6.14102e-08 DIIS
   @DF-RKS iter  10:  -158.45480310344149   -2.01226e-11   1.64904e-08 DIIS
   @DF-RKS iter  11:  -158.45480310344323   -1.73372e-12   1.69215e-09 DIIS

  ==> Post-Iterations <==

    Orbital Energies (a.u.)
    -----------------------

    Doubly Occupied:                                                      

       1A    -10.178441     2A    -10.178279     3A    -10.172663  
       4A    -10.172632     5A     -0.790160     6A     -0.714369  
       7A     -0.639365     8A     -0.559977     9A     -0.459003  
      10A     -0.450326    11A     -0.412920    12A     -0.382660  
      13A     -0.375896    14A     -0.356745    15A     -0.323644  
      16A     -0.320142    17A     -0.318269  

    Virtual:                                                              

      18A      0.058146    19A      0.094467    20A      0.098377  
      21A      0.105060    22A      0.133033    23A      0.137785  
      24A      0.151943    25A      0.157535    26A      0.166945  
      27A      0.171158    28A      0.213404    29A      0.224714  
      30A      0.263696    31A      0.405947    32A      0.411040  
      33A      0.436807    34A      0.441270    35A      0.444498  
      36A      0.483798    37A      0.518979    38A      0.584536  
      39A      0.597604    40A      0.615829    41A      0.623541  
      42A      0.641272    43A      0.650651    44A      0.665641  
      45A      0.671807    46A      0.671856    47A      0.677830  
      48A      0.697406    49A      0.702809    50A      0.714884  
      51A      0.761545    52A      0.813925    53A      0.894001  
      54A      0.904391    55A      0.967781    56A      1.090094  
      57A      1.136945    58A      1.183980    59A      1.207750  
      60A      1.266740    61A      1.311617    62A      1.383086  
      63A      1.392504    64A      1.426145    65A      1.443916  
      66A      1.513931    67A      1.571591    68A      1.584472  
      69A      1.587691    70A      1.625702    71A      1.637713  
      72A      1.638968    73A      1.662771    74A      1.679075  
      75A      1.683222    76A      1.687066    77A      1.690956  
      78A      1.721282    79A      1.731951    80A      1.745822  
      81A      1.778528    82A      1.798690    83A      1.860097  
      84A      1.882533    85A      1.960726    86A      1.976838  
      87A      2.024862    88A      2.054815    89A      2.098473  
      90A      2.112820    91A      2.195682    92A      2.242117  
      93A      2.246654    94A      2.264902    95A      2.301576  
      96A      2.308119    97A      2.428303    98A      2.437731  
      99A      2.469986   100A      2.492417   101A      2.493052  
     102A      2.525009   103A      2.615335   104A      2.631079  
     105A      2.702792   106A      2.707360  

    Final Occupation by Irrep:
              A 
    DOCC [    17 ]

  Energy converged.

  @DF-RKS Final Energy:  -158.45480310344323

   => Energetics <=

    Nuclear Repulsion Energy =            132.5860082264823063
    One-Electron Energy =                -473.6598007811563775
    Two-Electron Energy =                 203.2209710499707285
    DFT Exchange-Correlation Energy =     -20.6019815987398758
    Empirical Dispersion Energy =           0.0000000000000000
    PCM Polarization Energy =               0.0000000000000000
    EFP Energy =                            0.0000000000000000
    Total Energy =                       -158.4548031034432256


  Saving occupied orbitals to File 180.

*** tstop() called on lski1497 at Tue Feb 21 20:12:23 2017
Module time:
	user time   =     238.36 seconds =       3.97 minutes
	system time =       2.99 seconds =       0.05 minutes
	total time  =        284 seconds =       4.73 minutes
Total time:
	user time   =     737.96 seconds =      12.30 minutes
	system time =      10.33 seconds =       0.17 minutes
	total time  =        872 seconds =      14.53 minutes


Properties will be evaluated at   0.000000,   0.000000,   0.000000 Bohr

Properties computed using the SCF density matrix

  Nuclear Dipole Moment: (a.u.)
     X:    -0.6900      Y:    -0.2411      Z:    -0.6533

  Electronic Dipole Moment: (a.u.)
     X:     0.7039      Y:     0.2459      Z:     0.6664

  Dipole Moment: (a.u.)
     X:     0.0139      Y:     0.0048      Z:     0.0131     Total:     0.0197

  Dipole Moment: (Debye)
     X:     0.0353      Y:     0.0121      Z:     0.0333     Total:     0.0500


*** tstart() called on lski1497
*** at Tue Feb 21 20:12:23 2017


         ------------------------------------------------------------
                                   SCF GRAD                          
                          Rob Parrish, Justin Turney,                
                       Andy Simmonett, and Alex Sokolov              
         ------------------------------------------------------------

  ==> Geometry <==

    Molecular point group: c1
    Full point group: C1

    Geometry (in Angstrom), charge = 0, multiplicity = 1:

       Center              X                  Y                   Z               Mass       
    ------------   -----------------  -----------------  -----------------  -----------------
           H         -1.905290162159     0.283131171464     0.796074562874     1.007825032070
           H         -1.701680393108     1.954439584058     0.217151203213     1.007825032070
           H         -1.484996798167     0.593594804091    -0.903591831469     1.007825032070
           C         -1.327119336052     0.929343383475     0.125518210751    12.000000000000
           H          0.722283243966     1.537770609795    -0.185000947994     1.007825032070
           H          0.290957558848     1.231190749252     1.523029119431     1.007825032070
           C          0.169794294214     0.876228049617     0.493445266513    12.000000000000
           H          1.853240501201    -0.478190923610     0.505763795285     1.007825032070
           H          0.355379936398    -1.160093236316     1.204279339212     1.007825032070
           C          0.765624454705    -0.547929714489     0.391981889849    12.000000000000
           H          0.899053205889    -2.235757532880    -0.976590160905     1.007825032070
           H          0.861923018429    -0.648576024270    -1.782751725034     1.007825032070
           H         -0.626895215795    -1.334721821065    -1.095259839486     1.007825032070
           C          0.453515964178    -1.236039608896    -0.952416223595    12.000000000000

  Nuclear repulsion =  132.586008226482306

  ==> Basis Set <==

  Basis Set: CC-PVDZ
    Number of shells: 54
    Number of basis function: 106
    Number of Cartesian functions: 110
    Spherical Harmonics?: true
    Max angular momentum: 2

  ==> DFJKGrad: Density-Fitted SCF Gradients <==

    Gradient:                    1
    J tasked:                  Yes
    K tasked:                  Yes
    wK tasked:                  No
    OpenMP threads:              1
    Integrals threads:           1
    Memory (MB):               715
    Schwarz Cutoff:          0E+00
    Fitting Condition:       1E-12

   => Auxiliary Basis Set <=

  Basis Set: 
    Number of shells: 186
    Number of basis function: 510
    Number of Cartesian functions: 574
    Spherical Harmonics?: true
    Max angular momentum: 3

  ==> DFT Potential <==

   => B3LYP Composite Functional <= 

    B3LYP Hybrid-GGA Exchange-Correlation Functional (VWN1-RPA)

    P.J. Stephens et. al., J. Phys. Chem., 98, 11623-11627, 1994

    Points   =           5000
    Deriv    =              1
    GGA      =           TRUE
    Meta     =          FALSE

    X_LRC        =          FALSE
    X_Hybrid     =           TRUE
    X_Alpha      =   2.000000E-01
    X_Omega      =   0.000000E+00
    C_LRC        =          FALSE
    C_Hybrid     =          FALSE
    C_Alpha      =   0.000000E+00
    C_Omega      =   0.000000E+00

   => Exchange Functionals <=

    0.8000    B3_X
    0.2000      HF 

   => Correlation Functionals <=

    0.1900 VWN3RPA_C
    0.8100   LYP_C

   => Molecular Quadrature <=

    Radial Scheme    =       TREUTLER
    Pruning Scheme   =           FLAT
    Nuclear Scheme   =       TREUTLER

    BS radius alpha  =              1
[...]
    Number of Cartesian functions: 110
    Spherical Harmonics?: true
    Max angular momentum: 2

  ==> DFJKGrad: Density-Fitted SCF Gradients <==

    Gradient:                    1
    J tasked:                  Yes
    K tasked:                  Yes
    wK tasked:                  No
    OpenMP threads:              1
    Integrals threads:           1
    Memory (MB):               715
    Schwarz Cutoff:          0E+00
    Fitting Condition:       1E-12

   => Auxiliary Basis Set <=

  Basis Set: 
    Number of shells: 186
    Number of basis function: 510
    Number of Cartesian functions: 574
    Spherical Harmonics?: true
    Max angular momentum: 3

  ==> DFT Potential <==

   => B3LYP Composite Functional <= 

    B3LYP Hybrid-GGA Exchange-Correlation Functional (VWN1-RPA)

    P.J. Stephens et. al., J. Phys. Chem., 98, 11623-11627, 1994

    Points   =           5000
    Deriv    =              1
    GGA      =           TRUE
    Meta     =          FALSE

    X_LRC        =          FALSE
    X_Hybrid     =           TRUE
    X_Alpha      =   2.000000E-01
    X_Omega      =   0.000000E+00
    C_LRC        =          FALSE
    C_Hybrid     =          FALSE
    C_Alpha      =   0.000000E+00
    C_Omega      =   0.000000E+00

   => Exchange Functionals <=

    0.8000    B3_X
    0.2000      HF 

   => Correlation Functionals <=

    0.1900 VWN3RPA_C
    0.8100   LYP_C

   => Molecular Quadrature <=

    Radial Scheme    =       TREUTLER
    Pruning Scheme   =           FLAT
    Nuclear Scheme   =       TREUTLER

    BS radius alpha  =              1
    Pruning alpha    =              1
    Radial Points    =             75
    Spherical Points =            302
    Total Points     =         312786
    Total Blocks     =            272
    Max Points       =           4976
    Max Functions    =            106


  -Total Gradient:
     Atom            X                  Y                   Z
    ------   -----------------  -----------------  -----------------
       1        0.000005038223     0.000004919507    -0.000004726548
       2        0.000004272756     0.000009830880    -0.000006115489
       3       -0.000003721781     0.000000001494    -0.000013792162
       4        0.000524111015     0.000383092371    -0.002126965948
       5       -0.000014735893    -0.000012535758     0.000016556404
       6        0.000008863073    -0.000003236628     0.000000670245
       7       -0.001538110376    -0.000924935386     0.003389965314
       8       -0.000000808054     0.000006279506     0.000007031505
       9        0.000011361688     0.000011775478    -0.000020334463
      10        0.002870425061     0.001392060973    -0.002128746995
      11       -0.000003045458    -0.000008152355     0.000008014231
      12       -0.000003069528    -0.000004145064     0.000006907486
      13       -0.000014031887    -0.000005918922    -0.000002125439
      14       -0.001863306676    -0.000854919280     0.000857804586


*** tstop() called on lski1497 at Tue Feb 21 20:34:52 2017
Module time:
	user time   =      34.79 seconds =       0.58 minutes
	system time =       0.42 seconds =       0.01 minutes
	total time  =         34 seconds =       0.57 minutes
Total time:
	user time   =    1933.03 seconds =      32.22 minutes
	system time =      25.38 seconds =       0.42 minutes
	total time  =       2221 seconds =      37.02 minutes

			-----------------------------------------
			 OPTKING 2.0: for geometry optimizations 
			  - R.A. King,  Bethel University        
			-----------------------------------------

	Previous internal coordinate definitions found.
	---Fragment 1 Geometry and Gradient---
	 H          -3.6684735329        0.5312455057        1.4272264190
	 H          -3.2311703576        3.7572618944        0.5896309195
	 H          -2.8826860353        1.3624325235       -1.7339971799
	 C          -2.5194352830        1.8272124315        0.2626268466
	 H           1.3585951072        2.9288352016       -0.3289546261
	 H           0.6040058913        2.3400688080        2.8627234119
	 C           0.2926453224        1.6362708550        0.9228970142
	 H           3.4922114508       -0.9020029668        1.0132970874
	 H           0.6978021655       -2.2068897001        2.2748078508
	 C           1.4316726195       -1.0309126172        0.7087276475
	 H           1.8894904126       -4.2282852999       -1.8591786022
	 H           1.5566767560       -1.2726376981       -3.4255003449
	 H          -1.1251473735       -2.7694610653       -2.0583867600
	 C           0.9050286828       -2.3939850132       -1.7902496908
	             0.0000050382        0.0000049195       -0.0000047265
	             0.0000042728        0.0000098309       -0.0000061155
	            -0.0000037218        0.0000000015       -0.0000137922
	             0.0005241110        0.0003830924       -0.0021269659
	            -0.0000147359       -0.0000125358        0.0000165564
	             0.0000088631       -0.0000032366        0.0000006702
	            -0.0015381104       -0.0009249354        0.0033899653
	            -0.0000008081        0.0000062795        0.0000070315
	             0.0000113617        0.0000117755       -0.0000203345
	             0.0028704251        0.0013920610       -0.0021287470
	            -0.0000030455       -0.0000081524        0.0000080142
	            -0.0000030695       -0.0000041451        0.0000069075
	            -0.0000140319       -0.0000059189       -0.0000021254
	            -0.0018633067       -0.0008549193        0.0008578046

	---Fragment 1 Intrafragment Coordinates---
	 - Coordinate -           - BOHR/RAD -       - ANG/DEG -
	 R(1,4)           =         2.087130	       1.104462
	 R(2,4)           =         2.082928	       1.102238
	 R(3,4)           =         2.081941	       1.101716
	 R(4,7)           =         2.894860	       1.531894
	 R(5,7)           =         2.091436	       1.106740
	 R(6,7)           =         2.086912	       1.104346
	 R(7,10)          =         2.908113	       1.538907
	 R(8,10)          =         2.086912	       1.104346
	 R(9,10)          =         2.091434	       1.106739
	 R(10,14)         =         2.894859	       1.531893
	 R(11,14)         =         2.082924	       1.102236
	 R(12,14)         =         2.087130	       1.104461
	 R(13,14)         =         2.081945	       1.101718
	 B(1,4,2)         =         1.875112	     107.436026
	 B(1,4,3)         =         1.875961	     107.484622
	 B(1,4,7)         =         1.946114	     111.504101
	 B(2,4,3)         =         1.873182	     107.325436
	 B(2,4,7)         =         1.936106	     110.930708
	 B(3,4,7)         =         1.953575	     111.931618
	 B(4,7,5)         =         1.894218	     108.530724
	 B(4,7,6)         =         1.912077	     109.553963
	 B(4,7,10)        =         2.008841	     115.098099
	 B(5,7,6)         =         1.846170	     105.777761
	 B(5,7,10)        =         1.899820	     108.851653
	 B(6,7,10)        =         1.895811	     108.621965
	 B(7,10,8)        =         1.895810	     108.621905
	 B(7,10,9)        =         1.899818	     108.851570
	 B(7,10,14)       =         2.008841	     115.098134
	 B(8,10,9)        =         1.846172	     105.777881
	 B(8,10,14)       =         1.912077	     109.553969
	 B(9,10,14)       =         1.894218	     108.530714
	 B(10,14,11)      =         1.936107	     110.930785
	 B(10,14,12)      =         1.946115	     111.504177
	 B(10,14,13)      =         1.953574	     111.931517
	 B(11,14,12)      =         1.875115	     107.436179
	 B(11,14,13)      =         1.873182	     107.325413
	 B(12,14,13)      =         1.875957	     107.484441
	 D(1,4,7,5)       =         3.114836	     178.466965
	 D(1,4,7,6)       =        -1.160380	     -66.484895
	 D(1,4,7,10)      =         0.981519	      56.236894
	 D(2,4,7,5)       =        -1.079136	     -61.829963
	 D(2,4,7,6)       =         0.928832	      53.218177
	 D(2,4,7,10)      =         3.070732	     175.939966
	 D(3,4,7,5)       =         1.012619	      58.018792
	 D(3,4,7,6)       =         3.020588	     173.066932
	 D(3,4,7,10)      =        -1.120698	     -64.211279
	 D(4,7,10,8)      =         3.030637	     173.642728
	 D(4,7,10,9)      =        -1.250240	     -71.633476
	 D(4,7,10,14)     =         0.880061	      50.423754
	 D(5,7,10,8)      =         0.900336	      51.585446
	 D(5,7,10,9)      =         2.902644	     166.309242
	 D(5,7,10,14)     =        -1.250241	     -71.633528
	 D(6,7,10,8)      =        -1.101971	     -63.138285
	 D(6,7,10,9)      =         0.900337	      51.585512
	 D(6,7,10,14)     =         3.030638	     173.642741
	 D(7,10,14,11)    =         3.070735	     175.940174
	 D(7,10,14,12)    =         0.981517	      56.236807
	 D(7,10,14,13)    =        -1.120695	     -64.211116
	 D(8,10,14,11)    =         0.928837	      53.218433
	 D(8,10,14,12)    =        -1.160381	     -66.484933
	 D(8,10,14,13)    =         3.020591	     173.067144
	 D(9,10,14,11)    =        -1.079134	     -61.829847
	 D(9,10,14,12)    =         3.114833	     178.466786
	 D(9,10,14,13)    =         1.012620	      58.018863

	Current energy   :      -158.4566951941

	Energy change for the previous step:
		Projected    :        -0.0000147717
		Actual       :        -0.0000009056

	Performing BFGS update.
	Previous computed or guess Hessian on step 1.
	Steps to be used in Hessian update: 7 6
	Adding user-defined constraint: Fragment 1; Coordinate 49:
		Value =     0.880061; Fixed value    =     0.872660
		Force =    -0.004995; Force constant =     0.675000
	Removing off-diagonal coupling between coordinate 49 and others.
	Taking RFO optimization step.
	Going to follow RFO solution 1.
	Using RFO vector 1.
	Norm of target step-size    0.00633
	Projected energy change by RFO approximation:        -0.0000014735

	Back-transformation to cartesian coordinates...
	Successfully converged to displaced geometry.

	--- Internal Coordinate Step in ANG or DEG, aJ/ANG or AJ/DEG ---
	 ---------------------------------------------------------------------------
	   Coordinate                Previous        Force       Change         New 
	   ----------                --------       ------       ------       ------
	    1 R(1,4)          =      1.104462     0.000063     0.000018     1.104480
	    2 R(2,4)          =      1.102238    -0.000053     0.000006     1.102244
	    3 R(3,4)          =      1.101716    -0.000099     0.000005     1.101721
	    4 R(4,7)          =      1.531894     0.000019    -0.000105     1.531788
	    5 R(5,7)          =      1.106740     0.000210    -0.000017     1.106723
	    6 R(6,7)          =      1.104346    -0.000021    -0.000040     1.104306
	    7 R(7,10)         =      1.538907     0.000082     0.000022     1.538929
	    8 R(8,10)         =      1.104346    -0.000019    -0.000040     1.104306
	    9 R(9,10)         =      1.106739     0.000216    -0.000017     1.106722
	   10 R(10,14)        =      1.531893     0.000020    -0.000106     1.531787
	   11 R(11,14)        =      1.102236    -0.000043     0.000004     1.102240
	   12 R(12,14)        =      1.104461     0.000064     0.000018     1.104479
	   13 R(13,14)        =      1.101718    -0.000108     0.000007     1.101725
	   14 B(1,4,2)        =    107.436026    -0.000000    -0.000349   107.435677
	   15 B(1,4,3)        =    107.484622    -0.000000     0.002173   107.486795
	   16 B(1,4,7)        =    111.504101     0.000000     0.004963   111.509064
	   17 B(2,4,3)        =    107.325436     0.000000    -0.001005   107.324430
	   18 B(2,4,7)        =    110.930708     0.000001    -0.007140   110.923569
	   19 B(3,4,7)        =    111.931618    -0.000000     0.001348   111.932966
	   20 B(4,7,5)        =    108.530724    -0.000011    -0.011278   108.519446
	   21 B(4,7,6)        =    109.553963     0.000011     0.001972   109.555935
	   22 B(4,7,10)       =    115.098099    -0.000001     0.012455   115.110554
	   23 B(5,7,6)        =    105.777761     0.000000    -0.004176   105.773585
	   24 B(5,7,10)       =    108.851653     0.000000     0.010290   108.861943
	   25 B(6,7,10)       =    108.621965     0.000000    -0.010494   108.611471
	   26 B(7,10,8)       =    108.621905     0.000000    -0.010390   108.611515
	   27 B(7,10,9)       =    108.851570     0.000000     0.010395   108.861965
	   28 B(7,10,14)      =    115.098134    -0.000001     0.012300   115.110434
	   29 B(8,10,9)       =    105.777881     0.000000    -0.004228   105.773653
	   30 B(8,10,14)      =    109.553969     0.000011     0.001989   109.555958
	   31 B(9,10,14)      =    108.530714    -0.000011    -0.011289   108.519425
	   32 B(10,14,11)     =    110.930785     0.000001    -0.007260   110.923525
	   33 B(10,14,12)     =    111.504177     0.000000     0.004865   111.509042
	   34 B(10,14,13)     =    111.931517    -0.000000     0.001418   111.932935
	   35 B(11,14,12)     =    107.436179    -0.000000    -0.000465   107.435714
	   36 B(11,14,13)     =    107.325413     0.000000    -0.000928   107.324484
	   37 B(12,14,13)     =    107.484441    -0.000000     0.002368   107.486809
	   38 D(1,4,7,5)      =    178.466965    -0.000001     0.089846   178.556811
	   39 D(1,4,7,6)      =    -66.484895    -0.000001     0.079752   -66.405144
	   40 D(1,4,7,10)     =     56.236894     0.000001     0.076455    56.313349
	   41 D(2,4,7,5)      =    -61.829963    -0.000001     0.087909   -61.742054
	   42 D(2,4,7,6)      =     53.218177    -0.000001     0.077815    53.295991
	   43 D(2,4,7,10)     =    175.939966     0.000001     0.074518   176.014484
	   44 D(3,4,7,5)      =     58.018792    -0.000001     0.082657    58.101449
	   45 D(3,4,7,6)      =    173.066932    -0.000001     0.072562   173.139494
	   46 D(3,4,7,10)     =    -64.211279     0.000001     0.069266   -64.142013
	   47 D(4,7,10,8)     =    173.642728    -0.000003    -0.039714   173.603013
	   48 D(4,7,10,9)     =    -71.633476    -0.000003    -0.044738   -71.678213
	   49 D(4,7,10,14)    =     50.423754    -0.000007    -0.042941    50.380813
	   50 D(5,7,10,8)     =     51.585446     0.000000    -0.041553    51.543892
	   51 D(5,7,10,9)     =    166.309242     0.000000    -0.046577   166.262666
	   52 D(5,7,10,14)    =    -71.633528    -0.000003    -0.044780   -71.678308
	   53 D(6,7,10,8)     =    -63.138285    -0.000000    -0.036481   -63.174766
	   54 D(6,7,10,9)     =     51.585512     0.000000    -0.041505    51.544007
	   55 D(6,7,10,14)    =    173.642741    -0.000003    -0.039708   173.603034
	   56 D(7,10,14,11)   =    175.940174     0.000001     0.075089   176.015264
	   57 D(7,10,14,12)   =     56.236807     0.000001     0.077319    56.314126
	   58 D(7,10,14,13)   =    -64.211116     0.000001     0.069899   -64.141216
	   59 D(8,10,14,11)   =     53.218433    -0.000001     0.078348    53.296781
	   60 D(8,10,14,12)   =    -66.484933    -0.000001     0.080577   -66.404356
	   61 D(8,10,14,13)   =    173.067144    -0.000001     0.073158   173.140301
	   62 D(9,10,14,11)   =    -61.829847    -0.000001     0.088502   -61.741345
	   63 D(9,10,14,12)   =    178.466786    -0.000001     0.090731   178.557517
	   64 D(9,10,14,13)   =     58.018863    -0.000001     0.083312    58.102175
	 ---------------------------------------------------------------------------
	 Forces used to impose fixed constraints are not included.
	  Forces zeroed: 49 

  ==> Convergence Check <==

  Measures of convergence in internal coordinates in au.
  Criteria marked as inactive (o), active & met (*), and active & unmet ( ).
  ---------------------------------------------------------------------------------------------
   Step     Total Energy     Delta E     MAX Force     RMS Force      MAX Disp      RMS Disp   
  ---------------------------------------------------------------------------------------------
    Convergence Criteria    1.00e-06 *    3.00e-04 *             o    1.20e-03 *             o
  ---------------------------------------------------------------------------------------------
      8    -158.45669519   -9.06e-07 *    1.92e-04 *    6.67e-05 o    1.58e-03      7.91e-04 o  ~
  ---------------------------------------------------------------------------------------------


  **** Optimization is complete! (in 8 steps) ****

  ==> Optimization Summary <==

  Measures of convergence in internal coordinates in au.
  --------------------------------------------------------------------------------------------------------------- ~
   Step         Total Energy             Delta E       MAX Force       RMS Force        MAX Disp        RMS Disp  ~
  --------------------------------------------------------------------------------------------------------------- ~
      1    -158.443972548997   -158.443972548997      0.03201274      0.01155280      0.03789028      0.01266324  ~
      2    -158.451149100607     -0.007176551610      0.01504416      0.00656749      0.02730147      0.01256725  ~
      3    -158.454803103443     -0.003654002837      0.00841602      0.00288054      0.03199506      0.01252999  ~
      4    -158.456157274457     -0.001354171013      0.00260269      0.00102611      0.03526011      0.01251726  ~
      5    -158.456575067338     -0.000417792882      0.00074604      0.00030709      0.02862371      0.01249800  ~
      6    -158.456665977438     -0.000090910099      0.00033961      0.00011996      0.02556325      0.01250047  ~
      7    -158.456694288509     -0.000028311071      0.00040506      0.00009768      0.00946359      0.00466945  ~
      8    -158.456695194061     -0.000000905552      0.00038179      0.00008198      0.00158356      0.00079108  ~
  --------------------------------------------------------------------------------------------------------------- ~

	Writing optimization data to binary file.
	Final energy is   -158.4566951940611
	Final (previous) structure:
	Cartesian Geometry (in Angstrom)
	    H    -1.9412725839   0.2811230138   0.7552556925
	    H    -1.7098617103   1.9882573612   0.3120192441
	    H    -1.5254517494   0.7209682397  -0.9175917874
	    C    -1.3332277303   0.9669191740   0.1389761416
	    H     0.7189375664   1.5498728364  -0.1740752908
	    H     0.3196261515   1.2383110797   1.5148879841
	    C     0.1548612348   0.8658772435   0.4883760658
	    H     1.8479987073  -0.4773194121   0.5362137242
	    H     0.3692610021  -1.1678357311   1.2037764686
	    C     0.7576085204  -0.5455354611   0.3750425182
	    H     0.9998752622  -2.2375122121  -0.9838349430
	    H     0.8237578604  -0.6734508646  -1.8126967105
	    H    -0.5954023464  -1.4655356758  -1.0892513599
	    C     0.4789205521  -1.2668423067  -0.9473593340
	Saving final (previous) structure.
			--------------------------
			 OPTKING Finished Execution 
			--------------------------

    Final optimized geometry and variables:
    Molecular point group: c1
    Full point group: C1

    Geometry (in Angstrom), charge = 0, multiplicity = 1:

    H           -1.941272583925     0.281123013797     0.755255692451
    H           -1.709861710319     1.988257361210     0.312019244065
    H           -1.525451749408     0.720968239683    -0.917591787374
    C           -1.333227730277     0.966919173990     0.138976141601
    H            0.718937566442     1.549872836423    -0.174075290784
    H            0.319626151526     1.238311079722     1.514887984068
    C            0.154861234808     0.865877243545     0.488376065765
    H            1.847998707340    -0.477319412103     0.536213724176
    H            0.369261002094    -1.167835731145     1.203776468572
    C            0.757608520386    -0.545535461075     0.375042518181
    H            0.999875262206    -2.237512212149    -0.983834942991
    H            0.823757860433    -0.673450864636    -1.812696710538
    H           -0.595402346379    -1.465535675839    -1.089251359855
    C            0.478920552069    -1.266842306667    -0.947359334040

	Cleaning optimization helper files.

*** Psi4 exiting successfully. Buy a developer a beer!
