    -----------------------------------------------------------------------
          Psi4: An Open-Source Ab Initio Electronic Structure Package
                              Psi4 1.0.0 Driver

                          Git: Rev {master} 6a9a71b 

    J. M. Turney, A. C. Simmonett, R. M. Parrish, E. G. Hohenstein,
    F. A. Evangelista, J. T. Fermann, B. J. Mintz, L. A. Burns, J. J. Wilke,
    M. L. Abrams, N. J. Russ, M. L. Leininger, C. L. Janssen, E. T. Seidl,
    W. D. Allen, H. F. Schaefer, R. A. King, E. F. Valeev, C. D. Sherrill,
    and T. D. Crawford, WIREs Comput. Mol. Sci. 2, 556-565 (2012)
    (doi: 10.1002/wcms.93)

                         Additional Contributions by
    A. E. DePrince, U. Bozkaya, A. Yu. Sokolov, D. G. A. Smith, R. Di Remigio,
    R. M. Richard, J. F. Gonthier, H. R. McAlexander, M. Saitow, and
    B. P. Pritchard
    -----------------------------------------------------------------------


    Psi4 started on: Mon Feb 20 17:30:15 2017

    Process ID:  28168
    PSI4DATADIR: /Users/sternc1/anaconda/share/psi4
    Memory level set to 256.000 MB

  ==> Input File <==

--------------------------------------------------------------------------

memory 1000 mb

molecule butane {
  symmetry C1
  0 1 
  H      1.604   0.760   -8.260
  H      1.745   2.388   -8.880
  H      2.043   1.024   -9.930
  C      2.142   1.395   -8.932
  H      4.169   2.051   -9.210
  H      3.731   1.788   -7.539
  C      3.631   1.416   -8.537
  H      4.742   -0.132   -9.528
  H      4.863   -0.176   -7.786
  C      4.203   -0.012   -8.612
  H      3.448   -2.023   -8.609
  H      2.390   -0.868   -9.382
  H      2.511   -0.911   -7.640
  C      3.050   -1.031   -8.557
  units Angstrom
}

dih_string = "4 7 10 14 340"
set optking fixed_dihedral = $dih_string

optimize('MP2/6-31G(d)')
--------------------------------------------------------------------------

  Memory set to 1000.000 MiB by Python script.
gradient() will perform analytic gradient computation.
    SCF Algorithm Type (re)set to DF.

*** tstart() called on lski1497
*** at Mon Feb 20 17:30:16 2017


         ---------------------------------------------------------
                                   SCF
            by Justin Turney, Rob Parrish, and Andy Simmonett
                              RHF Reference
                        1 Threads,   1000 MiB Core
         ---------------------------------------------------------

  ==> Geometry <==

    Molecular point group: c1
    Full point group: C1

    Geometry (in Angstrom), charge = 0, multiplicity = 1:

       Center              X                  Y                   Z               Mass       
    ------------   -----------------  -----------------  -----------------  -----------------
           H         -1.629611548472     0.327006145825     0.402432637080     1.007825032070
           H         -1.488611548472     1.955006145825    -0.217567362920     1.007825032070
           H         -1.190611548472     0.591006145825    -1.267567362920     1.007825032070
           C         -1.091611548472     0.962006145825    -0.269567362920    12.000000000000
           H          0.935388451528     1.618006145825    -0.547567362920     1.007825032070
           H          0.497388451528     1.355006145825     1.123432637080     1.007825032070
           C          0.397388451528     0.983006145825     0.125432637080    12.000000000000
           H          1.508388451528    -0.564993854175    -0.865567362920     1.007825032070
           H          1.629388451528    -0.608993854175     0.876432637080     1.007825032070
           C          0.969388451528    -0.444993854175     0.050432637080    12.000000000000
           H          0.214388451528    -2.455993854175     0.053432637080     1.007825032070
           H         -0.843611548472    -1.300993854175    -0.719567362920     1.007825032070
           H         -0.722611548472    -1.343993854175     1.022432637080     1.007825032070
           C         -0.183611548472    -1.463993854175     0.105432637080    12.000000000000

  Running in c1 symmetry.

  Rotational constants: A =      0.38125  B =      0.20636  C =      0.14975 [cm^-1]
  Rotational constants: A =  11429.52863  B =   6186.60287  C =   4489.45331 [MHz]
  Nuclear repulsion =  136.317034095238625

  Charge       = 0
  Multiplicity = 1
  Electrons    = 34
  Nalpha       = 17
  Nbeta        = 17

  ==> Algorithm <==

  SCF Algorithm Type is DF.
  DIIS enabled.
  MOM disabled.
  Fractional occupation disabled.
  Guess Type is SAD.
  Energy threshold   = 1.00e-10
  Density threshold  = 1.00e-10
  Integral threshold = 0.00e+00

  ==> Primary Basis <==

  Basis Set: 6-31G(D)
    Number of shells: 44
    Number of basis function: 80
    Number of Cartesian functions: 80
    Spherical Harmonics?: false
    Max angular momentum: 2

  ==> Pre-Iterations <==

   -------------------------------------------------------
    Irrep   Nso     Nmo     Nalpha   Nbeta   Ndocc  Nsocc
   -------------------------------------------------------
     A         80      80       0       0       0       0
   -------------------------------------------------------
    Total      80      80      17      17      17       0
   -------------------------------------------------------

  ==> Integral Setup <==

  ==> DFJK: Density-Fitted J/K Matrices <==

    J tasked:                  Yes
    K tasked:                  Yes
    wK tasked:                  No
    OpenMP threads:              1
    Integrals threads:           1
    Memory (MB):               715
    Algorithm:                Core
    Integral Cache:           NONE
    Schwarz Cutoff:          1E-12
    Fitting Condition:       1E-12

   => Auxiliary Basis Set <=

  Basis Set: 
    Number of shells: 186
    Number of basis function: 574
    Number of Cartesian functions: 574
    Spherical Harmonics?: false
    Max angular momentum: 3

  Minimum eigenvalue in the overlap matrix is 3.8236954555E-03.
  Using Symmetric Orthogonalization.
  SCF Guess: Superposition of Atomic Densities via on-the-fly atomic UHF.

  ==> Iterations <==

                           Total Energy        Delta E     RMS |[F,P]|

   @DF-RHF iter   0:  -158.87742118108974   -1.58877e+02   4.64281e-02 
   @DF-RHF iter   1:  -157.16335874146097    1.71406e+00   4.75062e-03 
   @DF-RHF iter   2:  -157.26380959009322   -1.00451e-01   1.59130e-03 DIIS
   @DF-RHF iter   3:  -157.27490617981107   -1.10966e-02   6.12387e-04 DIIS
   @DF-RHF iter   4:  -157.27680079546968   -1.89462e-03   8.69222e-05 DIIS
   @DF-RHF iter   5:  -157.27685739557307   -5.66001e-05   1.97747e-05 DIIS
   @DF-RHF iter   6:  -157.27686009623841   -2.70067e-06   5.40386e-06 DIIS
   @DF-RHF iter   7:  -157.27686025729753   -1.61059e-07   1.31736e-06 DIIS
   @DF-RHF iter   8:  -157.27686026993916   -1.26416e-08   3.19834e-07 DIIS
   @DF-RHF iter   9:  -157.27686027077590   -8.36735e-10   8.33610e-08 DIIS
   @DF-RHF iter  10:  -157.27686027082603   -5.01359e-11   2.46025e-08 DIIS
   @DF-RHF iter  11:  -157.27686027082945   -3.41061e-12   5.39225e-09 DIIS
   @DF-RHF iter  12:  -157.27686027082967   -2.27374e-13   1.13916e-09 DIIS
   @DF-RHF iter  13:  -157.27686027082945    2.27374e-13   2.04605e-10 DIIS
   @DF-RHF iter  14:  -157.27686027082933    1.13687e-13   6.39809e-11 DIIS

  ==> Post-Iterations <==

    Orbital Energies (a.u.)
    -----------------------

    Doubly Occupied:                                                      

       1A    -11.206963     2A    -11.206383     3A    -11.198254  
       4A    -11.198155     5A     -1.077432     6A     -0.966996  
       7A     -0.888498     8A     -0.771297     9A     -0.647979  
      10A     -0.627727    11A     -0.566601    12A     -0.539912  
      13A     -0.530887    14A     -0.511136    15A     -0.458381  
      16A     -0.454862    17A     -0.451705  

    Virtual:                                                              

      18A      0.230984    19A      0.276654    20A      0.284310  
      21A      0.306499    22A      0.309220    23A      0.316403  
      24A      0.357808    25A      0.361929    26A      0.372484  
      27A      0.378814    28A      0.423564    29A      0.428874  
      30A      0.474323    31A      0.711097    32A      0.734957  
      33A      0.759642    34A      0.779952    35A      0.787389  
      36A      0.812385    37A      0.854766    38A      0.931312  
      39A      0.939438    40A      1.004314    41A      1.127215  
      42A      1.152029    43A      1.166890    44A      1.188800  
      45A      1.198192    46A      1.208343    47A      1.214155  
      48A      1.217860    49A      1.230717    50A      1.271771  
      51A      1.276725    52A      1.295735    53A      1.334043  
      54A      1.643657    55A      1.648105    56A      1.716186  
      57A      1.755576    58A      1.941898    59A      2.079376  
      60A      2.101667    61A      2.170334    62A      2.297450  
      63A      2.300114    64A      2.324957    65A      2.369913  
      66A      2.438702    67A      2.531119    68A      2.589399  
      69A      2.658186    70A      2.698423    71A      2.736756  
      72A      2.753344    73A      2.823023    74A      2.918543  
      75A      2.973104    76A      3.100533    77A      4.593218  
      78A      4.703493    79A      4.786150    80A      4.999937  

    Final Occupation by Irrep:
              A 
    DOCC [    17 ]

  Energy converged.

  @DF-RHF Final Energy:  -157.27686027082933

   => Energetics <=

    Nuclear Repulsion Energy =            136.3170340952386255
    One-Electron Energy =                -480.5814520692670158
    Two-Electron Energy =                 186.9875577031988314
    DFT Exchange-Correlation Energy =       0.0000000000000000
    Empirical Dispersion Energy =           0.0000000000000000
    PCM Polarization Energy =               0.0000000000000000
    EFP Energy =                            0.0000000000000000
    Total Energy =                       -157.2768602708295589


  Saving occupied orbitals to File 180.

*** tstop() called on lski1497 at Mon Feb 20 17:30:23 2017
Module time:
	user time   =       4.88 seconds =       0.08 minutes
	system time =       0.16 seconds =       0.00 minutes
	total time  =          7 seconds =       0.12 minutes
Total time:
	user time   =       4.88 seconds =       0.08 minutes
	system time =       0.16 seconds =       0.00 minutes
	total time  =          7 seconds =       0.12 minutes


Properties will be evaluated at   0.000000,   0.000000,   0.000000 Bohr

Properties computed using the SCF density matrix

  Nuclear Dipole Moment: (a.u.)
     X:    -1.0219      Y:    -0.4021      Z:    -0.1309

  Electronic Dipole Moment: (a.u.)
     X:     1.0532      Y:     0.4140      Z:     0.1345

  Dipole Moment: (a.u.)
     X:     0.0312      Y:     0.0118      Z:     0.0035     Total:     0.0336

  Dipole Moment: (Debye)
     X:     0.0794      Y:     0.0301      Z:     0.0089     Total:     0.0854


  //>>>>>>>>>>>>>>>>>>>>>>>>>>>>>>>>>>>//
  //               DFMP2               //
  //<<<<<<<<<<<<<<<<<<<<<<<<<<<<<<<<<<<//


*** tstart() called on lski1497
*** at Mon Feb 20 17:30:23 2017


*** tstop() called on lski1497 at Mon Feb 20 17:30:24 2017
Module time:
	user time   =       0.52 seconds =       0.01 minutes
	system time =       0.00 seconds =       0.00 minutes
	total time  =          1 seconds =       0.02 minutes
Total time:
	user time   =       5.42 seconds =       0.09 minutes
	system time =       0.16 seconds =       0.00 minutes
	total time  =          8 seconds =       0.13 minutes
	 --------------------------------------------------------
	                          DF-MP2                         
	      2nd-Order Density-Fitted Moller-Plesset Theory     
	              RMP2 Wavefunction,   1 Threads             
	                                                         
	        Rob Parrish, Justin Turney, Andy Simmonett,      
	           Ed Hohenstein, and C. David Sherrill          
	 --------------------------------------------------------

   => Auxiliary Basis Set <=

  Basis Set: 
    Number of shells: 132
    Number of basis function: 364
    Number of Cartesian functions: 414
    Spherical Harmonics?: true
    Max angular momentum: 3

	 --------------------------------------------------------
	                 NBF =    80, NAUX =   364
	 --------------------------------------------------------
	   CLASS    FOCC     OCC    AOCC    AVIR     VIR    FVIR
	   PAIRS       0      17      17      63      63       0
	 --------------------------------------------------------

DGAS Warning! /src/lib/libfock/apps.cc:80 is not currently checking restricted

         ------------------------------------------------------------
                                     CPHF                           
                                  Rob Parrish                       
         ------------------------------------------------------------

  ==> Geometry <==

    Molecular point group: c1
    Full point group: C1

    Geometry (in Angstrom), charge = 0, multiplicity = 1:

       Center              X                  Y                   Z               Mass       
    ------------   -----------------  -----------------  -----------------  -----------------
           H         -1.629611548472     0.327006145825     0.402432637080     1.007825032070
           H         -1.488611548472     1.955006145825    -0.217567362920     1.007825032070
           H         -1.190611548472     0.591006145825    -1.267567362920     1.007825032070
           C         -1.091611548472     0.962006145825    -0.269567362920    12.000000000000
           H          0.935388451528     1.618006145825    -0.547567362920     1.007825032070
           H          0.497388451528     1.355006145825     1.123432637080     1.007825032070
           C          0.397388451528     0.983006145825     0.125432637080    12.000000000000
           H          1.508388451528    -0.564993854175    -0.865567362920     1.007825032070
           H          1.629388451528    -0.608993854175     0.876432637080     1.007825032070
           C          0.969388451528    -0.444993854175     0.050432637080    12.000000000000
           H          0.214388451528    -2.455993854175     0.053432637080     1.007825032070
           H         -0.843611548472    -1.300993854175    -0.719567362920     1.007825032070
           H         -0.722611548472    -1.343993854175     1.022432637080     1.007825032070
           C         -0.183611548472    -1.463993854175     0.105432637080    12.000000000000

  Nuclear repulsion =  136.317034095238625
  Reference energy  = -157.276860270829332

  ==> Basis Set <==

  Basis Set: 6-31G(D)
    Number of shells: 44
    Number of basis function: 80
    Number of Cartesian functions: 80
    Spherical Harmonics?: false
    Max angular momentum: 2

  ==> CGRSolver (by Rob Parrish) <==

   Number of roots    =         1
   Preconditioning    =    JACOBI
   Convergence cutoff =     1E-06
   Maximum iterations =       100

  ==> CPHFRHamiltonian (by Rob Parrish) <== 

  ==> DFJK: Density-Fitted J/K Matrices <==

    J tasked:                  Yes
    K tasked:                  Yes
    wK tasked:                  No
    OpenMP threads:              1
    Integrals threads:           1
    Memory (MB):               715
    Algorithm:                Core
    Integral Cache:           NONE
    Schwarz Cutoff:          1E-12
    Fitting Condition:       1E-12

   => Auxiliary Basis Set <=

  Basis Set: 
    Number of shells: 186
    Number of basis function: 574
    Number of Cartesian functions: 574
    Spherical Harmonics?: false
    Max angular momentum: 3

  ==> CPHF Iterations <==

  => Iterations <=

             Iter  Converged  Remaining    Residual
  CGR           1          0          1   7.613E-02
  CGR           2          0          1   8.722E-03
  CGR           3          0          1   2.168E-03
  CGR           4          0          1   4.268E-04
  CGR           5          0          1   7.865E-05
  CGR           6          0          1   1.439E-05
  CGR           7          0          1   2.071E-06
  CGR           8          1          0   5.320E-07

    CGRSolver converged.

  ==> DFCorrGrad: Density-Fitted Correlated Gradients <==

    OpenMP threads:              1
    Integrals threads:           1
    Memory (MB):               715
    Schwarz Cutoff:          0E+00
    Fitting Condition:       1E-12

   => Auxiliary Basis Set <=

  Basis Set: 
    Number of shells: 186
    Number of basis function: 510
    Number of Cartesian functions: 574
    Spherical Harmonics?: true
    Max angular momentum: 3

	-----------------------------------------------------------
	 ==================> DF-MP2 Energies <==================== 
	-----------------------------------------------------------
	 Reference Energy          =    -157.2768602708293315 [Eh]
	 Singles Energy            =      -0.0000000000000000 [Eh]
	 Same-Spin Energy          =      -0.1254345681756867 [Eh]
	 Opposite-Spin Energy      =      -0.4216306925658476 [Eh]
	 Correlation Energy        =      -0.5470652607415343 [Eh]
	 Total Energy              =    -157.8239255315708647 [Eh]
	-----------------------------------------------------------
	 ================> DF-SCS-MP2 Energies <================== 
	-----------------------------------------------------------
	 SCS Same-Spin Scale       =       0.3333333333333333 [-]
	 SCS Opposite-Spin Scale   =       1.2000000000000000 [-]
	 SCS Same-Spin Energy      =      -0.0418115227252289 [Eh]
	 SCS Opposite-Spin Energy  =      -0.5059568310790170 [Eh]
	 SCS Correlation Energy    =      -0.5477683538042459 [Eh]
	 SCS Total Energy          =    -157.8246286246335899 [Eh]
	-----------------------------------------------------------


  -Total Gradient:
     Atom            X                  Y                   Z
    ------   -----------------  -----------------  -----------------
       1        0.011691413020     0.001791491634    -0.005866922479
       2        0.008748855532    -0.014631563277     0.000612741393
       3        0.005789624556     0.002078556221     0.015364984189
       4       -0.023850178141    -0.016893554948    -0.007719571881
       5       -0.008887309836    -0.013712146508     0.006367842091
       6       -0.001452112985    -0.009221932938    -0.014936031611
       7        0.018546761371     0.022459347829     0.009436670472
       8       -0.010612591128     0.004489548143     0.013535420542
       9       -0.014256397571     0.004634190836    -0.009573691249
      10        0.030341071994    -0.003495513488    -0.002928220798
      11       -0.003646156149     0.017110535733     0.000049557115
      12        0.008476777077     0.005913250336     0.008847411539
      13        0.008425256680     0.003829202173    -0.012796228033
      14       -0.029315014419    -0.004351411746    -0.000393961288


			-----------------------------------------
			 OPTKING 2.0: for geometry optimizations 
			  - R.A. King,  Bethel University        
			-----------------------------------------

	Internal coordinates to be generated automatically.
	Detected frag 1 with atoms:  1 2 3 4 5 6 7 8 9 10 11 12 13 14
	---Fragment 1 Bond Connectivity---
	 1 : 4
	 2 : 4
	 3 : 4
	 4 : 1 2 3 7
	 5 : 7
	 6 : 7
	 7 : 4 5 6 10
	 8 : 10
	 9 : 10
	 10 : 7 8 9 14
	 11 : 14
	 12 : 14
	 13 : 14
	 14 : 10 11 12 13

	Assuming in current code that numbering for constraints corresponds to unified fragment.
	Fixed dihedral atom list: 
	     4     7    10    14
	---Fragment 1 Geometry and Gradient---
	 H          -3.0795195296        0.6179520594        0.7604874710
	 H          -2.8130681449        3.6944262037       -0.4111427314
	 H          -2.2499297573        1.1168397585       -2.3953551709
	 C          -2.0628468701        1.8179281538       -0.5094084903
	 H           1.7676280013        3.0575884969       -1.0347523552
	 H           0.9399279550        2.5605905240        2.1229800128
	 C           0.7509553418        1.8576124026        0.2370333322
	 H           2.8504410754       -1.0676836512       -1.6356852655
	 H           3.0790979375       -1.1508316010        1.6562176580
	 C           1.8318786898       -0.8409165152        0.0953038722
	 H           0.4051354594       -4.6411557684        0.1009730506
	 H          -1.5941947892       -2.4585220850       -1.3597852501
	 H          -1.3655379271       -2.5397803087        1.9321176734
	 C          -0.3469755414       -2.7665474446        0.1992388095
	             0.0116914130        0.0017914916       -0.0058669225
	             0.0087488555       -0.0146315633        0.0006127414
	             0.0057896246        0.0020785562        0.0153649842
	            -0.0238501781       -0.0168935549       -0.0077195719
	            -0.0088873098       -0.0137121465        0.0063678421
	            -0.0014521130       -0.0092219329       -0.0149360316
	             0.0185467614        0.0224593478        0.0094366705
	            -0.0106125911        0.0044895481        0.0135354205
	            -0.0142563976        0.0046341908       -0.0095736912
	             0.0303410720       -0.0034955135       -0.0029282208
	            -0.0036461561        0.0171105357        0.0000495571
	             0.0084767771        0.0059132503        0.0088474115
	             0.0084252567        0.0038292022       -0.0127962280
	            -0.0293150144       -0.0043514117       -0.0003939613

	Previous optimization step data not found.  Starting new optimization.

	---Fragment 1 Intrafragment Coordinates---
	 - Coordinate -           - BOHR/RAD -       - ANG/DEG -
	 R(1,4)           =         2.021436	       1.069698
	 R(2,4)           =         2.023298	       1.070683
	 R(3,4)           =         2.020723	       1.069320
	 R(4,7)           =         2.911397	       1.540645
	 R(5,7)           =         2.022623	       1.070326
	 R(6,7)           =         2.021555	       1.069761
	 R(7,10)          =         2.910419	       1.540128
	 R(8,10)          =         2.021192	       1.069569
	 R(9,10)          =         2.021894	       1.069940
	 R(10,14)         =         2.909684	       1.539739
	 R(11,14)         =         2.022247	       1.070127
	 R(12,14)         =         2.020146	       1.069015
	 R(13,14)         =         2.022810	       1.070425
	 B(1,4,2)         =         1.910870	     109.484805
	 B(1,4,3)         =         1.911121	     109.499161
	 B(1,4,7)         =         1.910399	     109.457783
	 B(2,4,3)         =         1.910042	     109.437340
	 B(2,4,7)         =         1.910564	     109.467262
	 B(3,4,7)         =         1.910803	     109.480971
	 B(4,7,5)         =         1.909937	     109.431343
	 B(4,7,6)         =         1.911630	     109.528316
	 B(4,7,10)        =         1.911154	     109.501062
	 B(5,7,6)         =         1.910605	     109.469614
	 B(5,7,10)        =         1.910047	     109.437654
	 B(6,7,10)        =         1.910425	     109.459295
	 B(7,10,8)        =         1.910168	     109.444561
	 B(7,10,9)        =         1.910943	     109.488943
	 B(7,10,14)       =         1.911092	     109.497525
	 B(8,10,9)        =         1.910390	     109.457300
	 B(8,10,14)       =         1.911029	     109.493916
	 B(9,10,14)       =         1.910177	     109.445078
	 B(10,14,11)      =         1.910540	     109.465885
	 B(10,14,12)      =         1.911174	     109.502233
	 B(10,14,13)      =         1.910781	     109.479714
	 B(11,14,12)      =         1.910771	     109.479112
	 B(11,14,13)      =         1.910092	     109.440224
	 B(12,14,13)      =         1.910440	     109.460139
	 D(1,4,7,5)       =         3.140997	     179.965873
	 D(1,4,7,6)       =        -1.047644	     -60.025575
	 D(1,4,7,10)      =         1.047427	      60.013132
	 D(2,4,7,5)       =        -1.047689	     -60.028143
	 D(2,4,7,6)       =         1.046856	      59.980409
	 D(2,4,7,10)      =        -3.141259	    -179.980883
	 D(3,4,7,5)       =         1.046044	      59.933911
	 D(3,4,7,6)       =         3.140588	     179.942463
	 D(3,4,7,10)      =        -1.047526	     -60.018830
	 D(4,7,10,8)      =         1.745861	     100.030492
	 D(4,7,10,9)      =        -2.443322	    -139.992031
	 D(4,7,10,14)     =        -0.349015	     -19.997079
	 D(5,7,10,8)      =        -0.347641	     -19.918383
	 D(5,7,10,9)      =         1.746361	     100.059093
	 D(5,7,10,14)     =        -2.442518	    -139.945955
	 D(6,7,10,8)      =        -2.441516	    -139.888582
	 D(6,7,10,9)      =        -0.347514	     -19.911106
	 D(6,7,10,14)     =         1.746793	     100.083846
	 D(7,10,14,11)    =        -3.141449	    -179.991753
	 D(7,10,14,12)    =         1.046898	      59.982852
	 D(7,10,14,13)    =        -1.047682	     -60.027780
	 D(8,10,14,11)    =         1.047387	      60.010880
	 D(8,10,14,12)    =        -1.047451	     -60.014515
	 D(8,10,14,13)    =         3.141154	     179.974853
	 D(9,10,14,11)    =        -1.046673	     -59.969954
	 D(9,10,14,12)    =        -3.141511	    -179.995350
	 D(9,10,14,13)    =         1.047093	      59.994018

	Current energy   :      -157.8239255316

	Generating empirical Hessian (Schlegel '84) for each fragment.
	Adding user-defined constraint: Fragment 1; Coordinate 49:
		Value =    -0.349015; Fixed value    =    -0.349066
		Force =    -0.000025; Force constant =     0.500000
	Removing off-diagonal coupling between coordinate 49 and others.
	Taking RFO optimization step.
	Going to follow RFO solution 1.
	Using RFO vector 1.

	Determining step-restricting scale parameter for RS-RFO.
	Maximum step size allowed    0.10000

	 Iter      |step|        alpha        rfo_root  
	------------------------------------------------
	    0     0.47403       1.00000           1
	    1     0.31404       4.40687           1
	    2     0.20993      13.70848           1
	    3     0.14844      32.37265           1
	    4     0.11596      57.51276           1
	    5     0.10277      75.56748           1
	    6     0.10011      80.14422           1
	    7     0.10000      80.34374           1
	------------------------------------------------
	Norm of target step-size    0.10000
	Projected energy change by RFO approximation:        -0.0112232907

	Back-transformation to cartesian coordinates...
	Could not converge backtransformation.
	Using first guess instead.

	--- Internal Coordinate Step in ANG or DEG, aJ/ANG or AJ/DEG ---
	 ---------------------------------------------------------------------------
	   Coordinate                Previous        Force       Change         New 
	   ----------                --------       ------       ------       ------
	    1 R(1,4)          =      1.069698     0.087572     0.005265     1.074963
	    2 R(2,4)          =      1.070683     0.138280     0.008066     1.078749
	    3 R(3,4)          =      1.069320     0.128502     0.006633     1.075953
	    4 R(4,7)          =      1.540645     0.020894     0.003000     1.543645
	    5 R(5,7)          =      1.070326     0.136815     0.006879     1.077205
	    6 R(6,7)          =      1.069761     0.142338     0.006952     1.076713
	    7 R(7,10)         =      1.540128     0.245968     0.012875     1.553003
	    8 R(8,10)         =      1.069569     0.143715     0.007018     1.076586
	    9 R(9,10)         =      1.069940     0.139197     0.006994     1.076935
	   10 R(10,14)        =      1.539739     0.024876     0.003213     1.542951
	   11 R(11,14)        =      1.070127     0.141869     0.008238     1.078365
	   12 R(12,14)        =      1.069015     0.091942     0.005476     1.074491
	   13 R(13,14)        =      1.070425     0.121730     0.006311     1.076736
	   14 B(1,4,2)        =    109.484805    -0.000444    -0.281923   109.202881
	   15 B(1,4,3)        =    109.499161    -0.000290    -0.277226   109.221935
	   16 B(1,4,7)        =    109.457783     0.000657     0.477751   109.935533
	   17 B(2,4,3)        =    109.437340    -0.000364    -0.230079   109.207262
	   18 B(2,4,7)        =    109.467262     0.000056     0.048814   109.516076
	   19 B(3,4,7)        =    109.480971     0.000384     0.258630   109.739601
	   20 B(4,7,5)        =    109.431343    -0.001440    -0.900709   108.530634
	   21 B(4,7,6)        =    109.528316    -0.001222    -0.805750   108.722566
	   22 B(4,7,10)       =    109.501062     0.004511     2.928253   112.429315
	   23 B(5,7,6)        =    109.469614     0.000541     0.266379   109.735992
	   24 B(5,7,10)       =    109.437654    -0.001202    -0.758558   108.679096
	   25 B(6,7,10)       =    109.459295    -0.001189    -0.738911   108.720384
	   26 B(7,10,8)       =    109.444561    -0.001189    -0.738937   108.705624
	   27 B(7,10,9)       =    109.488943    -0.001209    -0.763483   108.725460
	   28 B(7,10,14)      =    109.497525     0.004517     2.931160   112.428685
	   29 B(8,10,9)       =    109.457300     0.000542     0.267331   109.724631
	   30 B(8,10,14)      =    109.493916    -0.001219    -0.803269   108.690647
	   31 B(9,10,14)      =    109.445078    -0.001443    -0.902526   108.542552
	   32 B(10,14,11)     =    109.465885     0.000060     0.051618   109.517503
	   33 B(10,14,12)     =    109.502233     0.000650     0.472334   109.974567
	   34 B(10,14,13)     =    109.479714     0.000387     0.260748   109.740462
	   35 B(11,14,12)     =    109.479112    -0.000442    -0.280556   109.198556
	   36 B(11,14,13)     =    109.440224    -0.000368    -0.233163   109.207061
	   37 B(12,14,13)     =    109.460139    -0.000287    -0.275353   109.184786
	   38 D(1,4,7,5)      =    179.965873     0.000141     0.398696   180.364569
	   39 D(1,4,7,6)      =    -60.025575    -0.000081    -0.292045   -60.317620
	   40 D(1,4,7,10)     =     60.013132     0.000048     0.101040    60.114173
	   41 D(2,4,7,5)      =    -60.028143     0.000117     0.376756   -59.651387
	   42 D(2,4,7,6)      =     59.980409    -0.000106    -0.313985    59.666425
	   43 D(2,4,7,10)     =   -179.980883     0.000024     0.079100  -179.901783
	   44 D(3,4,7,5)      =     59.933911     0.000076     0.283313    60.217223
	   45 D(3,4,7,6)      =    179.942463    -0.000146    -0.407428   179.535035
	   46 D(3,4,7,10)     =    -60.018830    -0.000017    -0.014343   -60.033173
	   47 D(4,7,10,8)     =    100.030492     0.000048     0.180254   100.210747
	   48 D(4,7,10,9)     =   -139.992031    -0.000136    -0.390189  -140.382221
	   49 D(4,7,10,14)    =    -19.997079    -0.000077    -0.174785   -20.171864
	   50 D(5,7,10,8)     =    -19.918383    -0.000011    -0.035423   -19.953806
	   51 D(5,7,10,9)     =    100.059093    -0.000196    -0.605867    99.453226
	   52 D(5,7,10,14)    =   -139.945955    -0.000136    -0.390462  -140.336417
	   53 D(6,7,10,8)     =   -139.888582     0.000172     0.532380  -139.356202
	   54 D(6,7,10,9)     =    -19.911106    -0.000012    -0.038064   -19.949170
	   55 D(6,7,10,14)    =    100.083846     0.000047     0.177340   100.261187
	   56 D(7,10,14,11)   =   -179.991753     0.000024     0.080578  -179.911175
	   57 D(7,10,14,12)   =     59.982852     0.000049     0.102207    60.085059
	   58 D(7,10,14,13)   =    -60.027780    -0.000017    -0.013621   -60.041401
	   59 D(8,10,14,11)   =     60.010880    -0.000105    -0.313311    59.697569
	   60 D(8,10,14,12)   =    -60.014515    -0.000081    -0.291682   -60.306197
	   61 D(8,10,14,13)   =    179.974853    -0.000146    -0.407510   179.567343
	   62 D(9,10,14,11)   =    -59.969954     0.000116     0.374838   -59.595117
	   63 D(9,10,14,12)   =   -179.995350     0.000140     0.396467  -179.598882
	   64 D(9,10,14,13)   =     59.994018     0.000075     0.280639    60.274657
	 ---------------------------------------------------------------------------
	 Forces used to impose fixed constraints are not included.
	  Forces zeroed: 49 

  ==> Convergence Check <==

  Measures of convergence in internal coordinates in au.
  Criteria marked as inactive (o), active & met (*), and active & unmet ( ).
  --------------------------------------------------------------------------------------------- ~
   Step     Total Energy     Delta E     MAX Force     RMS Force      MAX Disp      RMS Disp    ~
  --------------------------------------------------------------------------------------------- ~
    Convergence Criteria    1.00e-06 *    3.00e-04 *             o    1.20e-03 *             o  ~
  --------------------------------------------------------------------------------------------- ~
      1    -157.82392553   -1.58e+02      5.94e-02      1.48e-02 o    5.12e-02      1.27e-02 o  ~
  ---------------------------------------------------------------------------------------------

	Writing optimization data to binary file.
	Structure for next step:
	Cartesian Geometry (in Angstrom)
	    H    -1.6906651920   0.4283170700   0.3958217179
	    H    -1.4628611680   2.0576152968  -0.2170104140
	    H    -1.2387181016   0.6774602602  -1.2800269588
	    C    -1.1130054591   1.0387886532  -0.2743859843
	    H     0.9350280036   1.6062522242  -0.5636684156
	    H     0.4871989629   1.3553752787   1.1214177698
	    C     0.3791918115   0.9831432457   0.1168840339
	    H     1.5009815971  -0.5721717851  -0.8658887136
	    H     1.6177880352  -0.6017751519   0.8910716523
	    C     0.9547115914  -0.4579447855   0.0547519747
	    H     0.3016446093  -2.5143218876   0.0675246767
	    H    -0.8203552118  -1.4171699441  -0.7178624158
	    H    -0.7011963072  -1.4411526011   1.0312796386
	    C    -0.1483048499  -1.5353298320   0.1121483572
			--------------------------
			 OPTKING Finished Execution 
			--------------------------

    Structure for next step:
    Molecular point group: c1
    Full point group: C1

    Geometry (in Angstrom), charge = 0, multiplicity = 1:

    H           -1.687076594502     0.429711441705     0.396263115194
    H           -1.459272570505     2.059009668591    -0.216569016676
    H           -1.235129504111     0.678854631931    -1.279585561469
    C           -1.109416861536     1.040183024977    -0.273944586929
    H            0.938616601093     1.607646595964    -0.563227018283
    H            0.490787560434     1.356769650485     1.121859167161
    C            0.382780409069     0.984537617430     0.117325431275
    H            1.504570194643    -0.570777413380    -0.865447316248
    H            1.621376632740    -0.600380780152     0.891513049648
    C            0.958300188893    -0.456550413768     0.055193372017
    H            0.305233206833    -2.512927515875     0.067966074038
    H           -0.816766614229    -1.415775572336    -0.717421018469
    H           -0.697607709620    -1.439758229349     1.031721035929
    C           -0.144716252361    -1.533935460236     0.112589754558

gradient() will perform analytic gradient computation.
    SCF Algorithm Type (re)set to DF.

*** tstart() called on lski1497
*** at Mon Feb 20 17:30:45 2017


         ---------------------------------------------------------
                                   SCF
            by Justin Turney, Rob Parrish, and Andy Simmonett
                              RHF Reference
                        1 Threads,   1000 MiB Core
         ---------------------------------------------------------

  ==> Geometry <==

    Molecular point group: c1
    Full point group: C1

    Geometry (in Angstrom), charge = 0, multiplicity = 1:

       Center              X                  Y                   Z               Mass       
    ------------   -----------------  -----------------  -----------------  -----------------
           H         -1.687076594502     0.429711441705     0.396263115194     1.007825032070
           H         -1.459272570505     2.059009668591    -0.216569016676     1.007825032070
           H         -1.235129504111     0.678854631931    -1.279585561469     1.007825032070
           C         -1.109416861536     1.040183024977    -0.273944586929    12.000000000000
           H          0.938616601093     1.607646595964    -0.563227018283     1.007825032070
           H          0.490787560434     1.356769650485     1.121859167161     1.007825032070
           C          0.382780409069     0.984537617430     0.117325431275    12.000000000000
           H          1.504570194643    -0.570777413380    -0.865447316248     1.007825032070
           H          1.621376632740    -0.600380780152     0.891513049648     1.007825032070
           C          0.958300188893    -0.456550413768     0.055193372017    12.000000000000
           H          0.305233206833    -2.512927515875     0.067966074038     1.007825032070
           H         -0.816766614229    -1.415775572336    -0.717421018469     1.007825032070
           H         -0.697607709620    -1.439758229349     1.031721035929     1.007825032070
           C         -0.144716252361    -1.533935460236     0.112589754558    12.000000000000

  Running in c1 symmetry.

  Rotational constants: A =      0.38929  B =      0.18981  C =      0.14199 [cm^-1]
  Rotational constants: A =  11670.65082  B =   5690.48329  C =   4256.67521 [MHz]
  Nuclear repulsion =  134.366670574011493

  Charge       = 0
  Multiplicity = 1
  Electrons    = 34
  Nalpha       = 17
  Nbeta        = 17

  ==> Algorithm <==

  SCF Algorithm Type is DF.
  DIIS enabled.
  MOM disabled.
  Fractional occupation disabled.
  Guess Type is READ.
  Energy threshold   = 1.00e-10
  Density threshold  = 1.00e-10
  Integral threshold = 0.00e+00

  ==> Primary Basis <==

  Basis Set: 6-31G(D)
    Number of shells: 44
    Number of basis function: 80
    Number of Cartesian functions: 80
    Spherical Harmonics?: false
    Max angular momentum: 2

  ==> Pre-Iterations <==

   -------------------------------------------------------
    Irrep   Nso     Nmo     Nalpha   Nbeta   Ndocc  Nsocc
   -------------------------------------------------------
     A         80      80       0       0       0       0
   -------------------------------------------------------
    Total      80      80      17      17      17       0
   -------------------------------------------------------

  ==> Integral Setup <==

  ==> DFJK: Density-Fitted J/K Matrices <==

    J tasked:                  Yes
    K tasked:                  Yes
    wK tasked:                  No
    OpenMP threads:              1
    Integrals threads:           1
    Memory (MB):               715
    Algorithm:                Core
    Integral Cache:           NONE
    Schwarz Cutoff:          1E-12
    Fitting Condition:       1E-12

   => Auxiliary Basis Set <=

  Basis Set: 
    Number of shells: 186
    Number of basis function: 574
    Number of Cartesian functions: 574
    Spherical Harmonics?: false
    Max angular momentum: 3

  Minimum eigenvalue in the overlap matrix is 4.1060681034E-03.
  Using Symmetric Orthogonalization.
  SCF Guess was Projection but file not found.
  Switching over to SAD guess.

  SCF Guess: Superposition of Atomic Densities via on-the-fly atomic UHF.

  ==> Iterations <==

                           Total Energy        Delta E     RMS |[F,P]|

   @DF-RHF iter   0:  -158.74754472492469   -1.58748e+02   4.54692e-02 
   @DF-RHF iter   1:  -157.17153959360763    1.57601e+00   4.76206e-03 
   @DF-RHF iter   2:  -157.27232911895038   -1.00790e-01   1.63191e-03 DIIS
   @DF-RHF iter   3:  -157.28374380662757   -1.14147e-02   6.13809e-04 DIIS
   @DF-RHF iter   4:  -157.28569614616299   -1.95234e-03   8.48054e-05 DIIS
   @DF-RHF iter   5:  -157.28575032053101   -5.41744e-05   1.86119e-05 DIIS
   @DF-RHF iter   6:  -157.28575273506175   -2.41453e-06   5.02401e-06 DIIS
   @DF-RHF iter   7:  -157.28575286839492   -1.33333e-07   1.21379e-06 DIIS
   @DF-RHF iter   8:  -157.28575287896393   -1.05690e-08   2.89972e-07 DIIS
   @DF-RHF iter   9:  -157.28575287964725   -6.83315e-10   7.71586e-08 DIIS
   @DF-RHF iter  10:  -157.28575287969142   -4.41673e-11   2.25780e-08 DIIS
   @DF-RHF iter  11:  -157.28575287969426   -2.84217e-12   4.89874e-09 DIIS
   @DF-RHF iter  12:  -157.28575287969431   -5.68434e-14   1.06771e-09 DIIS
   @DF-RHF iter  13:  -157.28575287969420    1.13687e-13   2.39310e-10 DIIS
   @DF-RHF iter  14:  -157.28575287969448   -2.84217e-13   7.73952e-11 DIIS

  ==> Post-Iterations <==

    Orbital Energies (a.u.)
    -----------------------

    Doubly Occupied:                                                      

       1A    -11.210666     2A    -11.210123     3A    -11.202701  
       4A    -11.202624     5A     -1.068907     6A     -0.970265  
       7A     -0.882135     8A     -0.770308     9A     -0.642988  
      10A     -0.618789    11A     -0.569293    12A     -0.533408  
      13A     -0.526825    14A     -0.517830    15A     -0.458357  
      16A     -0.453031    17A     -0.452941  

    Virtual:                                                              

      18A      0.227173    19A      0.277986    20A      0.284665  
      21A      0.302465    22A      0.306646    23A      0.314730  
      24A      0.353120    25A      0.361765    26A      0.363608  
      27A      0.374220    28A      0.413434    29A      0.424593  
      30A      0.476447    31A      0.711234    32A      0.732651  
      33A      0.743487    34A      0.780353    35A      0.791286  
      36A      0.809766    37A      0.857956    38A      0.919429  
      39A      0.940303    40A      1.004196    41A      1.118559  
      42A      1.138372    43A      1.163097    44A      1.170141  
      45A      1.184555    46A      1.197295    47A      1.199289  
      48A      1.212471    49A      1.224047    50A      1.262026  
      51A      1.265605    52A      1.287399    53A      1.321599  
      54A      1.636479    55A      1.641731    56A      1.717155  
      57A      1.719708    58A      1.935722    59A      2.062628  
      60A      2.079755    61A      2.168124    62A      2.280047  
      63A      2.291239    64A      2.320752    65A      2.363265  
      66A      2.429506    67A      2.525477    68A      2.582705  
      69A      2.654876    70A      2.684720    71A      2.714231  
      72A      2.740079    73A      2.800900    74A      2.908265  
      75A      2.976244    76A      3.087085    77A      4.564790  
      78A      4.706519    79A      4.775477    80A      4.989214  

    Final Occupation by Irrep:
              A 
    DOCC [    17 ]

  Energy converged.

  @DF-RHF Final Energy:  -157.28575287969448

   => Energetics <=

    Nuclear Repulsion Energy =            134.3666705740114935
    One-Electron Energy =                -476.7224691854913772
    Two-Electron Energy =                 185.0700457317855410
    DFT Exchange-Correlation Energy =       0.0000000000000000
    Empirical Dispersion Energy =           0.0000000000000000
    PCM Polarization Energy =               0.0000000000000000
    EFP Energy =                            0.0000000000000000
    Total Energy =                       -157.2857528796943427


  Saving occupied orbitals to File 180.

*** tstop() called on lski1497 at Mon Feb 20 17:30:52 2017
Module time:
	user time   =       4.85 seconds =       0.08 minutes
	system time =       0.14 seconds =       0.00 minutes
	total time  =          7 seconds =       0.12 minutes
Total time:
	user time   =      26.98 seconds =       0.45 minutes
	system time =       0.78 seconds =       0.01 minutes
	total time  =         36 seconds =       0.60 minutes


Properties will be evaluated at   0.000000,   0.000000,   0.000000 Bohr

Properties computed using the SCF density matrix

  Nuclear Dipole Moment: (a.u.)
     X:    -0.9705      Y:    -0.3821      Z:    -0.1246

  Electronic Dipole Moment: (a.u.)
     X:     1.0002      Y:     0.3936      Z:     0.1281

  Dipole Moment: (a.u.)
     X:     0.0297      Y:     0.0114      Z:     0.0034     Total:     0.0320

  Dipole Moment: (Debye)
     X:     0.0755      Y:     0.0290      Z:     0.0088     Total:     0.0814


  //>>>>>>>>>>>>>>>>>>>>>>>>>>>>>>>>>>>//
  //               DFMP2               //
  //<<<<<<<<<<<<<<<<<<<<<<<<<<<<<<<<<<<//


*** tstart() called on lski1497
*** at Mon Feb 20 17:30:52 2017


*** tstop() called on lski1497 at Mon Feb 20 17:30:52 2017
Module time:
	user time   =       0.50 seconds =       0.01 minutes
	system time =       0.00 seconds =       0.00 minutes
	total time  =          0 seconds =       0.00 minutes
Total time:
	user time   =      27.50 seconds =       0.46 minutes
	system time =       0.78 seconds =       0.01 minutes
	total time  =         36 seconds =       0.60 minutes
	 --------------------------------------------------------
	                          DF-MP2                         
	      2nd-Order Density-Fitted Moller-Plesset Theory     
	              RMP2 Wavefunction,   1 Threads             
	                                                         
	        Rob Parrish, Justin Turney, Andy Simmonett,      
	           Ed Hohenstein, and C. David Sherrill          
	 --------------------------------------------------------

   => Auxiliary Basis Set <=

  Basis Set: 
    Number of shells: 132
    Number of basis function: 364
    Number of Cartesian functions: 414
    Spherical Harmonics?: true
    Max angular momentum: 3

	 --------------------------------------------------------
	                 NBF =    80, NAUX =   364
	 --------------------------------------------------------
	   CLASS    FOCC     OCC    AOCC    AVIR     VIR    FVIR
	   PAIRS       0      17      17      63      63       0
	 --------------------------------------------------------

DGAS Warning! /src/lib/libfock/apps.cc:80 is not currently checking restricted

         ------------------------------------------------------------
                                     CPHF                           
                                  Rob Parrish                       
         ------------------------------------------------------------

  ==> Geometry <==

    Molecular point group: c1
    Full point group: C1

    Geometry (in Angstrom), charge = 0, multiplicity = 1:

       Center              X                  Y                   Z               Mass       
    ------------   -----------------  -----------------  -----------------  -----------------
           H         -1.687076594502     0.429711441705     0.396263115194     1.007825032070
           H         -1.459272570505     2.059009668591    -0.216569016676     1.007825032070
           H         -1.235129504111     0.678854631931    -1.279585561469     1.007825032070
           C         -1.109416861536     1.040183024977    -0.273944586929    12.000000000000
           H          0.938616601093     1.607646595964    -0.563227018283     1.007825032070
           H          0.490787560434     1.356769650485     1.121859167161     1.007825032070
           C          0.382780409069     0.984537617430     0.117325431275    12.000000000000
           H          1.504570194643    -0.570777413380    -0.865447316248     1.007825032070
           H          1.621376632740    -0.600380780152     0.891513049648     1.007825032070
           C          0.958300188893    -0.456550413768     0.055193372017    12.000000000000
           H          0.305233206833    -2.512927515875     0.067966074038     1.007825032070
           H         -0.816766614229    -1.415775572336    -0.717421018469     1.007825032070
           H         -0.697607709620    -1.439758229349     1.031721035929     1.007825032070
           C         -0.144716252361    -1.533935460236     0.112589754558    12.000000000000

  Nuclear repulsion =  134.366670574011493
  Reference energy  = -157.285752879694485

  ==> Basis Set <==

  Basis Set: 6-31G(D)
    Number of shells: 44
    Number of basis function: 80
    Number of Cartesian functions: 80
    Spherical Harmonics?: false
    Max angular momentum: 2

  ==> CGRSolver (by Rob Parrish) <==

   Number of roots    =         1
   Preconditioning    =    JACOBI
   Convergence cutoff =     1E-06
   Maximum iterations =       100

  ==> CPHFRHamiltonian (by Rob Parrish) <== 

  ==> DFJK: Density-Fitted J/K Matrices <==

    J tasked:                  Yes
    K tasked:                  Yes
    wK tasked:                  No
    OpenMP threads:              1
    Integrals threads:           1
    Memory (MB):               715
    Algorithm:                Core
    Integral Cache:           NONE
    Schwarz Cutoff:          1E-12
    Fitting Condition:       1E-12

   => Auxiliary Basis Set <=

  Basis Set: 
    Number of shells: 186
    Number of basis function: 574
    Number of Cartesian functions: 574
    Spherical Harmonics?: false
    Max angular momentum: 3

  ==> CPHF Iterations <==

  => Iterations <=

             Iter  Converged  Remaining    Residual
  CGR           1          0          1   7.483E-02
  CGR           2          0          1   8.603E-03
  CGR           3          0          1   2.184E-03
  CGR           4          0          1   4.283E-04
  CGR           5          0          1   7.521E-05
  CGR           6          0          1   1.363E-05
  CGR           7          0          1   1.766E-06
  CGR           8          1          0   4.442E-07

    CGRSolver converged.

  ==> DFCorrGrad: Density-Fitted Correlated Gradients <==

    OpenMP threads:              1
    Integrals threads:           1
    Memory (MB):               715
    Schwarz Cutoff:          0E+00
    Fitting Condition:       1E-12

   => Auxiliary Basis Set <=

  Basis Set: 
    Number of shells: 186
    Number of basis function: 510
    Number of Cartesian functions: 574
    Spherical Harmonics?: true
    Max angular momentum: 3

	-----------------------------------------------------------
	 ==================> DF-MP2 Energies <==================== 
	-----------------------------------------------------------
	 Reference Energy          =    -157.2857528796944848 [Eh]
	 Singles Energy            =      -0.0000000000000000 [Eh]
	 Same-Spin Energy          =      -0.1246894418245641 [Eh]
	 Opposite-Spin Energy      =      -0.4216543325746167 [Eh]
	 Correlation Energy        =      -0.5463437743991808 [Eh]
	 Total Energy              =    -157.8320966540936752 [Eh]
	-----------------------------------------------------------
	 ================> DF-SCS-MP2 Energies <================== 
	-----------------------------------------------------------
	 SCS Same-Spin Scale       =       0.3333333333333333 [-]
	 SCS Opposite-Spin Scale   =       1.2000000000000000 [-]
	 SCS Same-Spin Energy      =      -0.0415631472748547 [Eh]
	 SCS Opposite-Spin Energy  =      -0.5059851990895400 [Eh]
	 SCS Correlation Energy    =      -0.5475483463643946 [Eh]
	 SCS Total Energy          =    -157.8333012260588930 [Eh]
	-----------------------------------------------------------


  -Total Gradient:
     Atom            X                  Y                   Z
    ------   -----------------  -----------------  -----------------
       1        0.008927797767     0.003358268988    -0.005059913503
       2        0.005374909175    -0.008951326928     0.000509742257
       3        0.004809734224     0.002063555646     0.011050844819
       4       -0.023045184107    -0.006230845054    -0.005376646077
       5       -0.007478549415    -0.010394153843     0.002444974324
       6       -0.002111219155    -0.007992829953    -0.009753699870
       7        0.016214870153     0.021085041485     0.006436541600
       8       -0.009087705243     0.003591007541     0.008411806741
       9       -0.011828998366     0.002790782750    -0.005091577920
      10        0.027081592840    -0.004224922312    -0.000679122640
      11       -0.002206719255     0.010509552294    -0.000098603007
      12        0.007647738649     0.003020946209     0.007464696506
      13        0.006902910144     0.002750727384    -0.009048599156
      14       -0.021201177412    -0.011375804206    -0.001210444074


			-----------------------------------------
			 OPTKING 2.0: for geometry optimizations 
			  - R.A. King,  Bethel University        
			-----------------------------------------

	Previous internal coordinate definitions found.
	---Fragment 1 Geometry and Gradient---
	 H          -3.1881127288        0.8120369410        0.7488287643
	 H          -2.7576255115        3.8909643786       -0.4092561304
	 H          -2.3340565014        1.2828493384       -2.4180662748
	 C          -2.0964940355        1.9656610453       -0.5176802449
	 H           1.7737283198        3.0380117848       -1.0643448152
	 H           0.9274540786        2.5639230648        2.1200065856
	 C           0.7233501422        1.8605064645        0.2217129335
	 H           2.8432256156       -1.0786129941       -1.6354584101
	 H           3.0639577941       -1.1345552499        1.6847155077
	 C           1.8109249101       -0.8627552479        0.1043003575
	 H           0.5768071676       -4.7487447968        0.1284372663
	 H          -1.5434652154       -2.6754280973       -1.3557292469
	 H          -1.3182875194       -2.7207487510        1.9496702034
	 C          -0.2734740839       -2.8987179254        0.2127638015
	             0.0089277978        0.0033582690       -0.0050599135
	             0.0053749092       -0.0089513269        0.0005097423
	             0.0048097342        0.0020635556        0.0110508448
	            -0.0230451841       -0.0062308451       -0.0053766461
	            -0.0074785494       -0.0103941538        0.0024449743
	            -0.0021112192       -0.0079928300       -0.0097536999
	             0.0162148702        0.0210850415        0.0064365416
	            -0.0090877052        0.0035910075        0.0084118067
	            -0.0118289984        0.0027907828       -0.0050915779
	             0.0270815928       -0.0042249223       -0.0006791226
	            -0.0022067193        0.0105095523       -0.0000986030
	             0.0076477386        0.0030209462        0.0074646965
	             0.0069029101        0.0027507274       -0.0090485992
	            -0.0212011774       -0.0113758042       -0.0012104441

	---Fragment 1 Intrafragment Coordinates---
	 - Coordinate -           - BOHR/RAD -       - ANG/DEG -
	 R(1,4)           =         2.031385	       1.074963
	 R(2,4)           =         2.038540	       1.078749
	 R(3,4)           =         2.033257	       1.075953
	 R(4,7)           =         2.917067	       1.543645
	 R(5,7)           =         2.035622	       1.077205
	 R(6,7)           =         2.034692	       1.076713
	 R(7,10)          =         2.934750	       1.553003
	 R(8,10)          =         2.034453	       1.076586
	 R(9,10)          =         2.035111	       1.076935
	 R(10,14)         =         2.915755	       1.542951
	 R(11,14)         =         2.037815	       1.078365
	 R(12,14)         =         2.030494	       1.074491
	 R(13,14)         =         2.034736	       1.076736
	 B(1,4,2)         =         1.905950	     109.202881
	 B(1,4,3)         =         1.906282	     109.221935
	 B(1,4,7)         =         1.918737	     109.935533
	 B(2,4,3)         =         1.906026	     109.207262
	 B(2,4,7)         =         1.911416	     109.516076
	 B(3,4,7)         =         1.915317	     109.739601
	 B(4,7,5)         =         1.894217	     108.530634
	 B(4,7,6)         =         1.897567	     108.722566
	 B(4,7,10)        =         1.962262	     112.429315
	 B(5,7,6)         =         1.915254	     109.735992
	 B(5,7,10)        =         1.896808	     108.679096
	 B(6,7,10)        =         1.897529	     108.720384
	 B(7,10,8)        =         1.897271	     108.705624
	 B(7,10,9)        =         1.897617	     108.725460
	 B(7,10,14)       =         1.962251	     112.428685
	 B(8,10,9)        =         1.915056	     109.724631
	 B(8,10,14)       =         1.897010	     108.690647
	 B(9,10,14)       =         1.894425	     108.542552
	 B(10,14,11)      =         1.911441	     109.517503
	 B(10,14,12)      =         1.919418	     109.974567
	 B(10,14,13)      =         1.915332	     109.740462
	 B(11,14,12)      =         1.905874	     109.198556
	 B(11,14,13)      =         1.906023	     109.207061
	 B(12,14,13)      =         1.905634	     109.184786
	 D(1,4,7,5)       =        -3.135230	    -179.635431
	 D(1,4,7,6)       =        -1.052741	     -60.317620
	 D(1,4,7,10)      =         1.049190	      60.114173
	 D(2,4,7,5)       =        -1.041113	     -59.651387
	 D(2,4,7,6)       =         1.041376	      59.666425
	 D(2,4,7,10)      =        -3.139878	    -179.901783
	 D(3,4,7,5)       =         1.050989	      60.217223
	 D(3,4,7,6)       =         3.133477	     179.535035
	 D(3,4,7,10)      =        -1.047777	     -60.033173
	 D(4,7,10,8)      =         1.749007	     100.210747
	 D(4,7,10,9)      =        -2.450132	    -140.382221
	 D(4,7,10,14)     =        -0.352065	     -20.171864
	 D(5,7,10,8)      =        -0.348260	     -19.953806
	 D(5,7,10,9)      =         1.735786	      99.453226
	 D(5,7,10,14)     =        -2.449333	    -140.336417
	 D(6,7,10,8)      =        -2.432225	    -139.356202
	 D(6,7,10,9)      =        -0.348179	     -19.949170
	 D(6,7,10,14)     =         1.749888	     100.261187
	 D(7,10,14,11)    =        -3.140042	    -179.911175
	 D(7,10,14,12)    =         1.048682	      60.085059
	 D(7,10,14,13)    =        -1.047920	     -60.041401
	 D(8,10,14,11)    =         1.041919	      59.697569
	 D(8,10,14,12)    =        -1.052542	     -60.306197
	 D(8,10,14,13)    =         3.134041	     179.567343
	 D(9,10,14,11)    =        -1.040131	     -59.595117
	 D(9,10,14,12)    =        -3.134592	    -179.598882
	 D(9,10,14,13)    =         1.051991	      60.274657

	Current energy   :      -157.8320966541

	Energy change for the previous step:
		Projected    :        -0.0112232907
		Actual       :        -0.0081711225

	Performing BFGS update.
	Previous computed or guess Hessian on step 1.
	Steps to be used in Hessian update: 1
	Adding user-defined constraint: Fragment 1; Coordinate 49:
		Value =    -0.352065; Fixed value    =    -0.349070
		Force =     0.001573; Force constant =     0.525000
	Removing off-diagonal coupling between coordinate 49 and others.
	Taking RFO optimization step.
	Going to follow RFO solution 1.
	Using RFO vector 1.

	Determining step-restricting scale parameter for RS-RFO.
	Maximum step size allowed    0.10000

	 Iter      |step|        alpha        rfo_root  
	------------------------------------------------
	    0     0.20797       1.00000           1
	    1     0.15785       5.37055           1
	    2     0.12480      14.92181           1
	    3     0.10683      26.58090           1
	    4     0.10073      32.55177           1
	    5     0.10001      33.34854           1
	------------------------------------------------
	Norm of target step-size    0.10001
	Projected energy change by RFO approximation:        -0.0050854405

	Back-transformation to cartesian coordinates...
	Successfully converged to displaced geometry.

	--- Internal Coordinate Step in ANG or DEG, aJ/ANG or AJ/DEG ---
	 ---------------------------------------------------------------------------
	   Coordinate                Previous        Force       Change         New 
	   ----------                --------       ------       ------       ------
	    1 R(1,4)          =      1.074963     0.081229     0.012143     1.087106
	    2 R(2,4)          =      1.078749     0.083789     0.010840     1.089589
	    3 R(3,4)          =      1.075953     0.095434     0.012845     1.088799
	    4 R(4,7)          =      1.543645    -0.026075    -0.005928     1.537718
	    5 R(5,7)          =      1.077205     0.094054     0.012202     1.089407
	    6 R(6,7)          =      1.076713     0.099481     0.012878     1.089591
	    7 R(7,10)         =      1.553003     0.062128     0.000993     1.553996
	    8 R(8,10)         =      1.076586     0.100393     0.012989     1.089575
	    9 R(9,10)         =      1.076935     0.095651     0.012398     1.089333
	   10 R(10,14)        =      1.542951    -0.023060    -0.005451     1.537500
	   11 R(11,14)        =      1.078365     0.086159     0.011132     1.089497
	   12 R(12,14)        =      1.074491     0.084178     0.012504     1.086996
	   13 R(13,14)        =      1.076736     0.090857     0.012286     1.089022
	   14 B(1,4,2)        =    109.202881    -0.000275    -0.548373   108.654508
	   15 B(1,4,3)        =    109.221935    -0.000245    -0.641374   108.580561
	   16 B(1,4,7)        =    109.935533     0.000373     0.724330   110.659863
	   17 B(2,4,3)        =    109.207262    -0.000268    -0.604399   108.602862
	   18 B(2,4,7)        =    109.516076     0.000096     0.277095   109.793171
	   19 B(3,4,7)        =    109.739601     0.000311     0.756414   110.496015
	   20 B(4,7,5)        =    108.530634    -0.000472    -0.291919   108.238715
	   21 B(4,7,6)        =    108.722566    -0.000433    -0.366940   108.355626
	   22 B(4,7,10)       =    112.429315     0.001587     1.357778   113.787093
	   23 B(5,7,6)        =    109.735992     0.000030    -0.522799   109.213193
	   24 B(5,7,10)       =    108.679096    -0.000375    -0.144544   108.534552
	   25 B(6,7,10)       =    108.720384    -0.000352    -0.080775   108.639609
	   26 B(7,10,8)       =    108.705624    -0.000353    -0.076459   108.629165
	   27 B(7,10,9)       =    108.725460    -0.000380    -0.174137   108.551323
	   28 B(7,10,14)      =    112.428685     0.001591     1.368036   113.796721
	   29 B(8,10,9)       =    109.724631     0.000032    -0.518381   109.206250
	   30 B(8,10,14)      =    108.690647    -0.000431    -0.361474   108.329173
	   31 B(9,10,14)      =    108.542552    -0.000473    -0.287012   108.255540
	   32 B(10,14,11)     =    109.517503     0.000099     0.287857   109.805360
	   33 B(10,14,12)     =    109.974567     0.000366     0.711058   110.685625
	   34 B(10,14,13)     =    109.740462     0.000312     0.764535   110.504998
	   35 B(11,14,12)     =    109.198556    -0.000273    -0.550743   108.647813
	   36 B(11,14,13)     =    109.207061    -0.000270    -0.612940   108.594121
	   37 B(12,14,13)     =    109.184786    -0.000242    -0.637049   108.547737
	   38 D(1,4,7,5)      =   -179.635431     0.000069     0.563501  -179.071930
	   39 D(1,4,7,6)      =    -60.317620    -0.000042    -0.433795   -60.751415
	   40 D(1,4,7,10)     =     60.114173     0.000020     0.082451    60.196623
	   41 D(2,4,7,5)      =    -59.651387     0.000058     0.514001   -59.137386
	   42 D(2,4,7,6)      =     59.666425    -0.000053    -0.483296    59.183129
	   43 D(2,4,7,10)     =   -179.901783     0.000009     0.032950  -179.868833
	   44 D(3,4,7,5)      =     60.217223     0.000040     0.412589    60.629812
	   45 D(3,4,7,6)      =    179.535035    -0.000071    -0.584708   178.950327
	   46 D(3,4,7,10)     =    -60.033173    -0.000009    -0.068462   -60.101635
	   47 D(4,7,10,8)     =    100.210747     0.000022     0.124381   100.335128
	   48 D(4,7,10,9)     =   -140.382221    -0.000066    -0.641954  -141.024175
	   49 D(4,7,10,14)    =    -20.171864    -0.000031    -0.247250   -20.419114
	   50 D(5,7,10,8)     =    -19.953806    -0.000014    -0.276557   -20.230363
	   51 D(5,7,10,9)     =     99.453226    -0.000103    -1.042892    98.410334
	   52 D(5,7,10,14)    =   -140.336417    -0.000067    -0.648188  -140.984605
	   53 D(6,7,10,8)     =   -139.356202     0.000074     0.480426  -138.875776
	   54 D(6,7,10,9)     =    -19.949170    -0.000014    -0.285909   -20.235079
	   55 D(6,7,10,14)    =    100.261187     0.000021     0.108796   100.369983
	   56 D(7,10,14,11)   =   -179.911175     0.000010     0.044662  -179.866514
	   57 D(7,10,14,12)   =     60.085059     0.000021     0.098062    60.183121
	   58 D(7,10,14,13)   =    -60.041401    -0.000008    -0.055337   -60.096738
	   59 D(8,10,14,11)   =     59.697569    -0.000053    -0.486249    59.211320
	   60 D(8,10,14,12)   =    -60.306197    -0.000042    -0.432848   -60.739045
	   61 D(8,10,14,13)   =    179.567343    -0.000071    -0.586247   178.981096
	   62 D(9,10,14,11)   =    -59.595117     0.000057     0.499491   -59.095626
	   63 D(9,10,14,12)   =   -179.598882     0.000068     0.552892  -179.045991
	   64 D(9,10,14,13)   =     60.274657     0.000039     0.399493    60.674150
	 ---------------------------------------------------------------------------
	 Forces used to impose fixed constraints are not included.
	  Forces zeroed: 49 

  ==> Convergence Check <==

  Measures of convergence in internal coordinates in au.
  Criteria marked as inactive (o), active & met (*), and active & unmet ( ).
  ---------------------------------------------------------------------------------------------
   Step     Total Energy     Delta E     MAX Force     RMS Force      MAX Disp      RMS Disp   
  ---------------------------------------------------------------------------------------------
    Convergence Criteria    1.00e-06 *    3.00e-04 *             o    1.20e-03 *             o
  ---------------------------------------------------------------------------------------------
      2    -157.83209665   -8.17e-03      2.09e-02      6.59e-03 o    2.45e-02      1.25e-02 o  ~
  ---------------------------------------------------------------------------------------------

	Writing optimization data to binary file.
	Structure for next step:
	Cartesian Geometry (in Angstrom)
	    H    -1.7118783687   0.4712836735   0.4325877464
	    H    -1.4569108838   2.1025243463  -0.2004986262
	    H    -1.2973849868   0.7019177702  -1.2693493620
	    C    -1.1217218475   1.0674190329  -0.2588871158
	    H     0.9239805954   1.6058624307  -0.6126681529
	    H     0.5116367218   1.3740158707   1.0994898569
	    C     0.3731435126   0.9835919793   0.0917218335
	    H     1.4834656275  -0.5818603684  -0.9084657508
	    H     1.6492759545  -0.5848600518   0.8599325360
	    C     0.9506402567  -0.4579520245   0.0338280829
	    H     0.3561295070  -2.5387197099   0.0886585915
	    H    -0.8289116261  -1.4790214075  -0.6850502076
	    H    -0.6617570202  -1.4787605727   1.0735528842
	    C    -0.1180287556  -1.5588337231   0.1333841658
			--------------------------
			 OPTKING Finished Execution 
			--------------------------

    Structure for next step:
    Molecular point group: c1
    Full point group: C1

    Geometry (in Angstrom), charge = 0, multiplicity = 1:

    H           -1.711326790625     0.471285472242     0.434691805244
    H           -1.456359305671     2.102526145077    -0.198394567367
    H           -1.296833408673     0.701919568948    -1.267245303096
    C           -1.121170269397     1.067420831673    -0.256783056930
    H            0.924532173521     1.605864229478    -0.610564094018
    H            0.512188299938     1.374017669469     1.101593915808
    C            0.373695090751     0.983593778044     0.093825892416
    H            1.484017205613    -0.581858569685    -0.906361691965
    H            1.649827532594    -0.584858253031     0.862036594881
    C            0.951191834820    -0.457950225810     0.035932141821
    H            0.356681085161    -2.538717911172     0.090762650341
    H           -0.828360047995    -1.479019608731    -0.682946148755
    H           -0.661205442076    -1.478758773967     1.075656943061
    C           -0.117477177512    -1.558831924350     0.135488224654

gradient() will perform analytic gradient computation.
    SCF Algorithm Type (re)set to DF.

*** tstart() called on lski1497
*** at Mon Feb 20 17:31:17 2017


         ---------------------------------------------------------
                                   SCF
            by Justin Turney, Rob Parrish, and Andy Simmonett
                              RHF Reference
                        1 Threads,   1000 MiB Core
         ---------------------------------------------------------

  ==> Geometry <==

    Molecular point group: c1
    Full point group: C1

    Geometry (in Angstrom), charge = 0, multiplicity = 1:

       Center              X                  Y                   Z               Mass       
    ------------   -----------------  -----------------  -----------------  -----------------
           H         -1.711326790625     0.471285472242     0.434691805244     1.007825032070
           H         -1.456359305671     2.102526145077    -0.198394567367     1.007825032070
           H         -1.296833408673     0.701919568948    -1.267245303096     1.007825032070
           C         -1.121170269397     1.067420831673    -0.256783056930    12.000000000000
           H          0.924532173521     1.605864229478    -0.610564094018     1.007825032070
           H          0.512188299938     1.374017669469     1.101593915808     1.007825032070
           C          0.373695090751     0.983593778044     0.093825892416    12.000000000000
           H          1.484017205613    -0.581858569685    -0.906361691965     1.007825032070
           H          1.649827532594    -0.584858253031     0.862036594881     1.007825032070
           C          0.951191834820    -0.457950225810     0.035932141821    12.000000000000
           H          0.356681085161    -2.538717911172     0.090762650341     1.007825032070
           H         -0.828360047995    -1.479019608731    -0.682946148755     1.007825032070
           H         -0.661205442076    -1.478758773967     1.075656943061     1.007825032070
           C         -0.117477177512    -1.558831924350     0.135488224654    12.000000000000

  Running in c1 symmetry.

  Rotational constants: A =      0.39374  B =      0.18341  C =      0.13913 [cm^-1]
  Rotational constants: A =  11804.14486  B =   5498.61252  C =   4171.12773 [MHz]
  Nuclear repulsion =  133.428972538583849

  Charge       = 0
  Multiplicity = 1
  Electrons    = 34
  Nalpha       = 17
  Nbeta        = 17

  ==> Algorithm <==

  SCF Algorithm Type is DF.
  DIIS enabled.
  MOM disabled.
  Fractional occupation disabled.
  Guess Type is READ.
  Energy threshold   = 1.00e-10
  Density threshold  = 1.00e-10
  Integral threshold = 0.00e+00

  ==> Primary Basis <==

  Basis Set: 6-31G(D)
    Number of shells: 44
    Number of basis function: 80
    Number of Cartesian functions: 80
    Spherical Harmonics?: false
    Max angular momentum: 2

  ==> Pre-Iterations <==

   -------------------------------------------------------
    Irrep   Nso     Nmo     Nalpha   Nbeta   Ndocc  Nsocc
   -------------------------------------------------------
     A         80      80       0       0       0       0
   -------------------------------------------------------
    Total      80      80      17      17      17       0
   -------------------------------------------------------

  ==> Integral Setup <==

  ==> DFJK: Density-Fitted J/K Matrices <==

    J tasked:                  Yes
    K tasked:                  Yes
    wK tasked:                  No
    OpenMP threads:              1
    Integrals threads:           1
    Memory (MB):               715
    Algorithm:                Core
    Integral Cache:           NONE
    Schwarz Cutoff:          1E-12
    Fitting Condition:       1E-12

   => Auxiliary Basis Set <=

  Basis Set: 
    Number of shells: 186
    Number of basis function: 574
    Number of Cartesian functions: 574
    Spherical Harmonics?: false
    Max angular momentum: 3

  Minimum eigenvalue in the overlap matrix is 4.2228770339E-03.
  Using Symmetric Orthogonalization.
  SCF Guess was Projection but file not found.
  Switching over to SAD guess.

  SCF Guess: Superposition of Atomic Densities via on-the-fly atomic UHF.

  ==> Iterations <==

                           Total Energy        Delta E     RMS |[F,P]|

   @DF-RHF iter   0:  -158.64882105742672   -1.58649e+02   4.47123e-02 
   @DF-RHF iter   1:  -157.17303364226726    1.47579e+00   4.76849e-03 
   @DF-RHF iter   2:  -157.27452971825969   -1.01496e-01   1.66817e-03 DIIS
   @DF-RHF iter   3:  -157.28629363884542   -1.17639e-02   6.22052e-04 DIIS
   @DF-RHF iter   4:  -157.28832666661341   -2.03303e-03   8.45147e-05 DIIS
   @DF-RHF iter   5:  -157.28838046248640   -5.37959e-05   1.82837e-05 DIIS
   @DF-RHF iter   6:  -157.28838282687789   -2.36439e-06   4.90600e-06 DIIS
   @DF-RHF iter   7:  -157.28838295254454   -1.25667e-07   1.19116e-06 DIIS
   @DF-RHF iter   8:  -157.28838296252403   -9.97949e-09   2.82363e-07 DIIS
   @DF-RHF iter   9:  -157.28838296316255   -6.38522e-10   7.63367e-08 DIIS
   @DF-RHF iter  10:  -157.28838296320575   -4.32010e-11   2.23857e-08 DIIS
   @DF-RHF iter  11:  -157.28838296320859   -2.84217e-12   4.68000e-09 DIIS
   @DF-RHF iter  12:  -157.28838296320882   -2.27374e-13   1.02621e-09 DIIS
   @DF-RHF iter  13:  -157.28838296320882    0.00000e+00   2.44387e-10 DIIS
   @DF-RHF iter  14:  -157.28838296320859    2.27374e-13   7.57962e-11 DIIS

  ==> Post-Iterations <==

    Orbital Energies (a.u.)
    -----------------------

    Doubly Occupied:                                                      

       1A    -11.214831     2A    -11.214299     3A    -11.207558  
       4A    -11.207536     5A     -1.066360     6A     -0.970479  
       7A     -0.877485     8A     -0.766828     9A     -0.638444  
      10A     -0.614763    11A     -0.567059    12A     -0.533833  
      13A     -0.524101    14A     -0.514421    15A     -0.455734  
      16A     -0.455655    17A     -0.451409  

    Virtual:                                                              

      18A      0.224188    19A      0.275502    20A      0.280812  
      21A      0.299392    22A      0.304683    23A      0.313018  
      24A      0.348587    25A      0.357074    26A      0.359070  
      27A      0.372360    28A      0.407913    29A      0.424002  
      30A      0.480464    31A      0.709375    32A      0.733574  
      33A      0.735036    34A      0.784987    35A      0.792928  
      36A      0.816824    37A      0.863587    38A      0.917174  
      39A      0.942682    40A      1.004895    41A      1.116219  
      42A      1.126454    43A      1.151373    44A      1.160912  
      45A      1.169908    46A      1.182856    47A      1.183470  
      48A      1.199084    49A      1.221076    50A      1.249121  
      51A      1.251945    52A      1.281156    53A      1.307013  
      54A      1.627931    55A      1.629816    56A      1.710114  
      57A      1.721882    58A      1.936690    59A      2.050499  
      60A      2.071485    61A      2.164700    62A      2.270052  
      63A      2.285191    64A      2.319160    65A      2.359807  
      66A      2.419880    67A      2.511504    68A      2.568271  
      69A      2.645401    70A      2.665342    71A      2.708453  
      72A      2.730356    73A      2.780925    74A      2.904161  
      75A      2.981175    76A      3.084531    77A      4.551668  
      78A      4.700827    79A      4.768308    80A      4.983574  

    Final Occupation by Irrep:
              A 
    DOCC [    17 ]

  Energy converged.

  @DF-RHF Final Energy:  -157.28838296320859

   => Energetics <=

    Nuclear Repulsion Energy =            133.4289725385838494
    One-Electron Energy =                -474.8731213534684343
    Two-Electron Energy =                 184.1557658516760512
    DFT Exchange-Correlation Energy =       0.0000000000000000
    Empirical Dispersion Energy =           0.0000000000000000
    PCM Polarization Energy =               0.0000000000000000
    EFP Energy =                            0.0000000000000000
    Total Energy =                       -157.2883829632085053


  Saving occupied orbitals to File 180.

*** tstop() called on lski1497 at Mon Feb 20 17:31:26 2017
Module time:
	user time   =       4.91 seconds =       0.08 minutes
	system time =       0.16 seconds =       0.00 minutes
	total time  =          9 seconds =       0.15 minutes
Total time:
	user time   =      49.68 seconds =       0.83 minutes
	system time =       1.49 seconds =       0.02 minutes
	total time  =         70 seconds =       1.17 minutes


Properties will be evaluated at   0.000000,   0.000000,   0.000000 Bohr

Properties computed using the SCF density matrix

  Nuclear Dipole Moment: (a.u.)
     X:    -0.9626      Y:    -0.3821      Z:    -0.0945

  Electronic Dipole Moment: (a.u.)
     X:     0.9903      Y:     0.3930      Z:     0.0971

  Dipole Moment: (a.u.)
     X:     0.0277      Y:     0.0109      Z:     0.0026     Total:     0.0299

  Dipole Moment: (Debye)
     X:     0.0703      Y:     0.0278      Z:     0.0066     Total:     0.0759


  //>>>>>>>>>>>>>>>>>>>>>>>>>>>>>>>>>>>//
  //               DFMP2               //
  //<<<<<<<<<<<<<<<<<<<<<<<<<<<<<<<<<<<//


*** tstart() called on lski1497
*** at Mon Feb 20 17:31:26 2017


*** tstop() called on lski1497 at Mon Feb 20 17:31:26 2017
Module time:
	user time   =       0.54 seconds =       0.01 minutes
	system time =       0.01 seconds =       0.00 minutes
	total time  =          0 seconds =       0.00 minutes
Total time:
	user time   =      50.24 seconds =       0.84 minutes
	system time =       1.50 seconds =       0.03 minutes
	total time  =         70 seconds =       1.17 minutes
	 --------------------------------------------------------
	                          DF-MP2                         
	      2nd-Order Density-Fitted Moller-Plesset Theory     
	              RMP2 Wavefunction,   1 Threads             
	                                                         
	        Rob Parrish, Justin Turney, Andy Simmonett,      
	           Ed Hohenstein, and C. David Sherrill          
	 --------------------------------------------------------

   => Auxiliary Basis Set <=

  Basis Set: 
    Number of shells: 132
    Number of basis function: 364
    Number of Cartesian functions: 414
    Spherical Harmonics?: true
    Max angular momentum: 3

	 --------------------------------------------------------
	                 NBF =    80, NAUX =   364
	 --------------------------------------------------------
	   CLASS    FOCC     OCC    AOCC    AVIR     VIR    FVIR
	   PAIRS       0      17      17      63      63       0
	 --------------------------------------------------------

DGAS Warning! /src/lib/libfock/apps.cc:80 is not currently checking restricted

         ------------------------------------------------------------
                                     CPHF                           
                                  Rob Parrish                       
         ------------------------------------------------------------

  ==> Geometry <==

    Molecular point group: c1
    Full point group: C1

    Geometry (in Angstrom), charge = 0, multiplicity = 1:

       Center              X                  Y                   Z               Mass       
    ------------   -----------------  -----------------  -----------------  -----------------
           H         -1.711326790625     0.471285472242     0.434691805244     1.007825032070
           H         -1.456359305671     2.102526145077    -0.198394567367     1.007825032070
           H         -1.296833408673     0.701919568948    -1.267245303096     1.007825032070
           C         -1.121170269397     1.067420831673    -0.256783056930    12.000000000000
           H          0.924532173521     1.605864229478    -0.610564094018     1.007825032070
           H          0.512188299938     1.374017669469     1.101593915808     1.007825032070
           C          0.373695090751     0.983593778044     0.093825892416    12.000000000000
           H          1.484017205613    -0.581858569685    -0.906361691965     1.007825032070
           H          1.649827532594    -0.584858253031     0.862036594881     1.007825032070
           C          0.951191834820    -0.457950225810     0.035932141821    12.000000000000
           H          0.356681085161    -2.538717911172     0.090762650341     1.007825032070
           H         -0.828360047995    -1.479019608731    -0.682946148755     1.007825032070
           H         -0.661205442076    -1.478758773967     1.075656943061     1.007825032070
[...]
	 SCS Same-Spin Energy      =      -0.0414791618557429 [Eh]
	 SCS Opposite-Spin Energy  =      -0.5072099495864624 [Eh]
	 SCS Correlation Energy    =      -0.5486891114422052 [Eh]
	 SCS Total Energy          =    -157.8388714592121573 [Eh]
	-----------------------------------------------------------


  -Total Gradient:
     Atom            X                  Y                   Z
    ------   -----------------  -----------------  -----------------
       1        0.000027175729     0.000001408784    -0.000003738855
       2        0.000016485360    -0.000018967317     0.000000497705
       3       -0.000001582910    -0.000001924149     0.000002966440
       4       -0.000986484822    -0.000487060996     0.004317853112
       5       -0.000028453486    -0.000038899764    -0.000018007357
       6       -0.000010966245    -0.000016233785     0.000028706460
       7        0.001169476264     0.000702763509    -0.008085901099
       8       -0.000015606908     0.000004920697    -0.000030308176
       9       -0.000049587453     0.000008497228     0.000013334863
      10        0.000426602223    -0.000056571983     0.008188407454
      11       -0.000001672956     0.000024802906     0.000000345252
      12        0.000019505408     0.000018066187     0.000007148028
      13       -0.000002110014    -0.000000005907    -0.000003049460
      14       -0.000562780193    -0.000140795409    -0.004418254368


			-----------------------------------------
			 OPTKING 2.0: for geometry optimizations 
			  - R.A. King,  Bethel University        
			-----------------------------------------

	Previous internal coordinate definitions found.
	---Fragment 1 Geometry and Gradient---
	 H          -3.2892623710        1.0163120791        0.8689180335
	 H          -2.7332070624        4.0514126585       -0.3948632935
	 H          -2.5931398896        1.3751008633       -2.3777517084
	 C          -2.1442402696        2.0724119883       -0.4837246792
	 H           1.7486551606        3.0506573420       -1.1818540473
	 H           0.9675984811        2.6417014034        1.9989373997
	 C           0.6705598571        1.8457629236        0.1087933461
	 H           2.7408478214       -1.1401447203       -1.7602321413
	 H           3.2300674578       -1.0347368636        1.5023253265
	 C           1.7691744045       -0.8579030571        0.0482441155
	 H           0.8186277072       -4.8266333706        0.2715131410
	 H          -1.5423285875       -2.9725466108       -1.1798397353
	 H          -1.1554733136       -2.8930318443        2.1365090803
	 C          -0.1436807221       -2.9988021653        0.3364579087
	             0.0000271757        0.0000014088       -0.0000037389
	             0.0000164854       -0.0000189673        0.0000004977
	            -0.0000015829       -0.0000019241        0.0000029664
	            -0.0009864848       -0.0004870610        0.0043178531
	            -0.0000284535       -0.0000388998       -0.0000180074
	            -0.0000109662       -0.0000162338        0.0000287065
	             0.0011694763        0.0007027635       -0.0080859011
	            -0.0000156069        0.0000049207       -0.0000303082
	            -0.0000495875        0.0000084972        0.0000133349
	             0.0004266022       -0.0000565720        0.0081884075
	            -0.0000016730        0.0000248029        0.0000003453
	             0.0000195054        0.0000180662        0.0000071480
	            -0.0000021100       -0.0000000059       -0.0000030495
	            -0.0005627802       -0.0001407954       -0.0044182544

	---Fragment 1 Intrafragment Coordinates---
	 - Coordinate -           - BOHR/RAD -       - ANG/DEG -
	 R(1,4)           =         2.063023	       1.091705
	 R(2,4)           =         2.066693	       1.093647
	 R(3,4)           =         2.067630	       1.094142
	 R(4,7)           =         2.885402	       1.526889
	 R(5,7)           =         2.068775	       1.094749
	 R(6,7)           =         2.072292	       1.096610
	 R(7,10)          =         2.918978	       1.544656
	 R(8,10)          =         2.072292	       1.096610
	 R(9,10)          =         2.068775	       1.094749
	 R(10,14)         =         2.885400	       1.526888
	 R(11,14)         =         2.066694	       1.093647
	 R(12,14)         =         2.063023	       1.091705
	 R(13,14)         =         2.067630	       1.094143
	 B(1,4,2)         =         1.879512	     107.688126
	 B(1,4,3)         =         1.883324	     107.906509
	 B(1,4,7)         =         1.946137	     111.505429
	 B(2,4,3)         =         1.875968	     107.485030
	 B(2,4,7)         =         1.922391	     110.144865
	 B(3,4,7)         =         1.953482	     111.926282
	 B(4,7,5)         =         1.911887	     109.543043
	 B(4,7,6)         =         1.872305	     107.275189
	 B(4,7,10)        =         2.021564	     115.827099
	 B(5,7,6)         =         1.844851	     105.702205
	 B(5,7,10)        =         1.907503	     109.291889
	 B(6,7,10)        =         1.897293	     108.706879
	 B(7,10,8)        =         1.897296	     108.707036
	 B(7,10,9)        =         1.907493	     109.291298
	 B(7,10,14)       =         2.021571	     115.827483
	 B(8,10,9)        =         1.844851	     105.702185
	 B(8,10,14)       =         1.872305	     107.275177
	 B(9,10,14)       =         1.911888	     109.543107
	 B(10,14,11)      =         1.922394	     110.145060
	 B(10,14,12)      =         1.946138	     111.505487
	 B(10,14,13)      =         1.953483	     111.926354
	 B(11,14,12)      =         1.879513	     107.688142
	 B(11,14,13)      =         1.875966	     107.484918
	 B(12,14,13)      =         1.883320	     107.906265
	 D(1,4,7,5)       =        -3.059144	    -175.276040
	 D(1,4,7,6)       =        -1.064644	     -60.999617
	 D(1,4,7,10)      =         1.057307	      60.579236
	 D(2,4,7,5)       =        -0.973513	     -55.778177
	 D(2,4,7,6)       =         1.020987	      58.498246
	 D(2,4,7,10)      =        -3.140247	    -179.922900
	 D(3,4,7,5)       =         1.112418	      63.736881
	 D(3,4,7,6)       =         3.106918	     178.013304
	 D(3,4,7,10)      =        -1.054316	     -60.407843
	 D(4,7,10,8)      =         1.746678	     100.077263
	 D(4,7,10,9)      =        -2.530883	    -145.008906
	 D(4,7,10,14)     =        -0.361878	     -20.734072
	 D(5,7,10,8)      =        -0.422329	     -24.197682
	 D(5,7,10,9)      =         1.583295	      90.716149
	 D(5,7,10,14)     =        -2.530885	    -145.009017
	 D(6,7,10,8)      =        -2.427958	    -139.111768
	 D(6,7,10,9)      =        -0.422334	     -24.197937
	 D(6,7,10,14)     =         1.746671	     100.076897
	 D(7,10,14,11)    =        -3.140306	    -179.926282
	 D(7,10,14,12)    =         1.057245	      60.575668
	 D(7,10,14,13)    =        -1.054374	     -60.411189
	 D(8,10,14,11)    =         1.020920	      58.494417
	 D(8,10,14,12)    =        -1.064714	     -61.003633
	 D(8,10,14,13)    =         3.106852	     178.009511
	 D(9,10,14,11)    =        -0.973580	     -55.782009
	 D(9,10,14,12)    =        -3.059214	    -175.280059
	 D(9,10,14,13)    =         1.112352	      63.733084

	Current energy   :      -157.8372947913

	Energy change for the previous step:
		Projected    :         0.0000015837
		Actual       :        -0.0000003589

	Performing BFGS update.
	Previous computed or guess Hessian on step 1.
	Steps to be used in Hessian update: 7 6
	Adding user-defined constraint: Fragment 1; Coordinate 49:
		Value =    -0.361878; Fixed value    =    -0.349070
		Force =     0.008645; Force constant =     0.675000
	Removing off-diagonal coupling between coordinate 49 and others.
	Taking RFO optimization step.
	Going to follow RFO solution 1.
	Rejecting RFO root 1 because normalization gives large value.
	Rejecting RFO root 2 because normalization gives large value.
	Rejecting RFO root 3 because normalization gives large value.
	Rejecting RFO root 4 because normalization gives large value.
	Rejecting RFO root 5 because normalization gives large value.
	Rejecting RFO root 6 because normalization gives large value.
	Rejecting RFO root 7 because normalization gives large value.
	Rejecting RFO root 8 because normalization gives large value.
	Rejecting RFO root 9 because normalization gives large value.
	Rejecting RFO root 10 because normalization gives large value.
	Rejecting RFO root 11 because normalization gives large value.
	Rejecting RFO root 12 because normalization gives large value.
	Rejecting RFO root 13 because normalization gives large value.
	Rejecting RFO root 14 because normalization gives large value.
	Rejecting RFO root 15 because normalization gives large value.
	Rejecting RFO root 16 because normalization gives large value.
	Rejecting RFO root 17 because normalization gives large value.
	Rejecting RFO root 18 because normalization gives large value.
	Rejecting RFO root 19 because normalization gives large value.
	Rejecting RFO root 20 because normalization gives large value.
	Rejecting RFO root 21 because normalization gives large value.
	Rejecting RFO root 22 because normalization gives large value.
	Rejecting RFO root 23 because normalization gives large value.
	Rejecting RFO root 24 because normalization gives large value.
	Rejecting RFO root 25 because normalization gives large value.
	Rejecting RFO root 26 because normalization gives large value.
	Rejecting RFO root 27 because normalization gives large value.
	Rejecting RFO root 28 because normalization gives large value.
	Rejecting RFO root 29 because normalization gives large value.
	Rejecting RFO root 30 because normalization gives large value.
	Rejecting RFO root 31 because normalization gives large value.
	Using RFO vector 32.
	Norm of target step-size    0.00257
	Projected energy change by RFO approximation:         0.0000001506

	Back-transformation to cartesian coordinates...
	Successfully converged to displaced geometry.

	--- Internal Coordinate Step in ANG or DEG, aJ/ANG or AJ/DEG ---
	 ---------------------------------------------------------------------------
	   Coordinate                Previous        Force       Change         New 
	   ----------                --------       ------       ------       ------
	    1 R(1,4)          =      1.091705     0.000150    -0.000009     1.091696
	    2 R(2,4)          =      1.093647     0.000188    -0.000027     1.093620
	    3 R(3,4)          =      1.094142     0.000014    -0.000026     1.094116
	    4 R(4,7)          =      1.526889     0.000042     0.000079     1.526968
	    5 R(5,7)          =      1.094749     0.000216    -0.000039     1.094710
	    6 R(6,7)          =      1.096610    -0.000151    -0.000048     1.096561
	    7 R(7,10)         =      1.544656     0.000141     0.000068     1.544725
	    8 R(8,10)         =      1.096610    -0.000152    -0.000049     1.096561
	    9 R(9,10)         =      1.094749     0.000217    -0.000039     1.094710
	   10 R(10,14)        =      1.526888     0.000046     0.000078     1.526965
	   11 R(11,14)        =      1.093647     0.000187    -0.000028     1.093619
	   12 R(12,14)        =      1.091705     0.000150    -0.000009     1.091695
	   13 R(13,14)        =      1.094143     0.000013    -0.000025     1.094118
	   14 B(1,4,2)        =    107.688126    -0.000001     0.008209   107.696335
	   15 B(1,4,3)        =    107.906509    -0.000001     0.000761   107.907271
	   16 B(1,4,7)        =    111.505429     0.000002    -0.001936   111.503492
	   17 B(2,4,3)        =    107.485030    -0.000000     0.001831   107.486860
	   18 B(2,4,7)        =    110.144865     0.000001    -0.002854   110.142011
	   19 B(3,4,7)        =    111.926282    -0.000001    -0.005300   111.920982
	   20 B(4,7,5)        =    109.543043     0.000010    -0.019964   109.523078
	   21 B(4,7,6)        =    107.275189    -0.000011     0.010094   107.285283
	   22 B(4,7,10)       =    115.827099     0.000003    -0.011720   115.815379
	   23 B(5,7,6)        =    105.702205    -0.000001     0.034756   105.736960
	   24 B(5,7,10)       =    109.291889    -0.000001    -0.002176   109.289713
	   25 B(6,7,10)       =    108.706879    -0.000000    -0.005999   108.700881
	   26 B(7,10,8)       =    108.707036    -0.000000    -0.005884   108.701152
	   27 B(7,10,9)       =    109.291298    -0.000001    -0.002421   109.288877
	   28 B(7,10,14)      =    115.827483     0.000003    -0.011512   115.815971
	   29 B(8,10,9)       =    105.702185    -0.000001     0.034938   105.737123
	   30 B(8,10,14)      =    107.275177    -0.000011     0.009491   107.284668
	   31 B(9,10,14)      =    109.543107     0.000010    -0.019626   109.523481
	   32 B(10,14,11)     =    110.145060     0.000001    -0.002805   110.142255
	   33 B(10,14,12)     =    111.505487     0.000002    -0.001772   111.503716
	   34 B(10,14,13)     =    111.926354    -0.000001    -0.005009   111.921344
	   35 B(11,14,12)     =    107.688142    -0.000001     0.008075   107.696217
	   36 B(11,14,13)     =    107.484918    -0.000000     0.001865   107.486783
	   37 B(12,14,13)     =    107.906265    -0.000001     0.000330   107.906595
	   38 D(1,4,7,5)      =   -175.276040     0.000001    -0.030431  -175.306471
	   39 D(1,4,7,6)      =    -60.999617     0.000000     0.005693   -60.993924
	   40 D(1,4,7,10)     =     60.579236    -0.000001    -0.002168    60.577068
	   41 D(2,4,7,5)      =    -55.778177     0.000001    -0.023276   -55.801453
	   42 D(2,4,7,6)      =     58.498246     0.000000     0.012848    58.511095
	   43 D(2,4,7,10)     =   -179.922900    -0.000001     0.004987  -179.917913
	   44 D(3,4,7,5)      =     63.736881     0.000001    -0.026326    63.710554
	   45 D(3,4,7,6)      =    178.013304     0.000000     0.009798   178.023102
	   46 D(3,4,7,10)     =    -60.407843    -0.000001     0.001937   -60.405906
	   47 D(4,7,10,8)     =    100.077263     0.000003    -0.000353   100.076910
	   48 D(4,7,10,9)     =   -145.008906     0.000003     0.036636  -144.972270
	   49 D(4,7,10,14)    =    -20.734072     0.000006    -0.000366   -20.734438
	   50 D(5,7,10,8)     =    -24.197682    -0.000000     0.037058   -24.160624
	   51 D(5,7,10,9)     =     90.716149    -0.000001     0.074047    90.790196
	   52 D(5,7,10,14)    =   -145.009017     0.000003     0.037045  -144.971972
	   53 D(6,7,10,8)     =   -139.111768     0.000000     0.000216  -139.111552
	   54 D(6,7,10,9)     =    -24.197937    -0.000000     0.037205   -24.160732
	   55 D(6,7,10,14)    =    100.076897     0.000003     0.000203   100.077100
	   56 D(7,10,14,11)   =   -179.926282    -0.000001     0.023671  -179.902612
	   57 D(7,10,14,12)   =     60.575668    -0.000001     0.016545    60.592213
	   58 D(7,10,14,13)   =    -60.411189    -0.000001     0.020885   -60.390303
	   59 D(8,10,14,11)   =     58.494417     0.000000     0.031703    58.526120
	   60 D(8,10,14,12)   =    -61.003633     0.000000     0.024578   -60.979055
	   61 D(8,10,14,13)   =    178.009511     0.000000     0.028918   178.038429
	   62 D(9,10,14,11)   =    -55.782009     0.000001    -0.004485   -55.786494
	   63 D(9,10,14,12)   =   -175.280059     0.000001    -0.011610  -175.291670
	   64 D(9,10,14,13)   =     63.733084     0.000001    -0.007270    63.725814
	 ---------------------------------------------------------------------------
	 Forces used to impose fixed constraints are not included.
	  Forces zeroed: 49 

  ==> Convergence Check <==

  Measures of convergence in internal coordinates in au.
  Criteria marked as inactive (o), active & met (*), and active & unmet ( ).
  ---------------------------------------------------------------------------------------------
   Step     Total Energy     Delta E     MAX Force     RMS Force      MAX Disp      RMS Disp   
  ---------------------------------------------------------------------------------------------
    Convergence Criteria    1.00e-06 *    3.00e-04 *             o    1.20e-03 *             o
  ---------------------------------------------------------------------------------------------
      8    -157.83729479   -3.59e-07 *    1.80e-04 *    6.20e-05 o    1.29e-03      3.21e-04 o  ~
  ---------------------------------------------------------------------------------------------


  **** Optimization is complete! (in 8 steps) ****

  ==> Optimization Summary <==

  Measures of convergence in internal coordinates in au.
  --------------------------------------------------------------------------------------------------------------- ~
   Step         Total Energy             Delta E       MAX Force       RMS Force        MAX Disp        RMS Disp  ~
  --------------------------------------------------------------------------------------------------------------- ~
      1    -157.823925531571   -157.823925531571      0.05935621      0.01477265      0.05115839      0.01266329  ~
      2    -157.832096654094     -0.008171122523      0.02090364      0.00659727      0.02454526      0.01253687  ~
      3    -157.835503665655     -0.003407011562      0.01017181      0.00281560      0.03933462      0.01251776  ~
      4    -157.836738797095     -0.001235131439      0.00447140      0.00122213      0.04912745      0.01249648  ~
      5    -157.837202590032     -0.000463792938      0.00123189      0.00036431      0.03855507      0.01219117  ~
      6    -157.837289170334     -0.000086580302      0.00023579      0.00010341      0.00740935      0.00285282  ~
      7    -157.837294432446     -0.000005262113      0.00024959      0.00005740      0.00276998      0.00127120  ~
      8    -157.837294791326     -0.000000358880      0.00034611      0.00007559      0.00129237      0.00032111  ~
  --------------------------------------------------------------------------------------------------------------- ~

	Writing optimization data to binary file.
	Final energy is   -157.8372947913259
	Final (previous) structure:
	Cartesian Geometry (in Angstrom)
	    H    -1.7406026798   0.5378091891   0.4598116194
	    H    -1.4463508838   2.1439152414  -0.2089526554
	    H    -1.3722305282   0.7276720364  -1.2582520118
	    C    -1.1346830804   1.0966731910  -0.2559760755
	    H     0.9253484567   1.6143383366  -0.6254102257
	    H     0.5120310633   1.3979281746   1.0577921133
	    C     0.3548449934   0.9767356716   0.0575709592
	    H     1.4503941993  -0.6033386005  -0.9314747310
	    H     1.7092780809  -0.5475591651   0.7949963227
	    C     0.9362067729  -0.4539827450   0.0255296864
	    H     0.4331991250  -2.5541443740   0.1436785661
	    H    -0.8161651366  -1.5730039179  -0.6243442977
	    H    -0.6114501427  -1.5309265157   1.1305919112
	    C    -0.0760325635  -1.5868977589   0.1780458569
	Saving final (previous) structure.
			--------------------------
			 OPTKING Finished Execution 
			--------------------------

    Final optimized geometry and variables:
    Molecular point group: c1
    Full point group: C1

    Geometry (in Angstrom), charge = 0, multiplicity = 1:

    H           -1.740602679807     0.537809189055     0.459811619442
    H           -1.446350883778     2.143915241447    -0.208952655410
    H           -1.372230528246     0.727672036391    -1.258252011781
    C           -1.134683080417     1.096673191037    -0.255976075473
    H            0.925348456679     1.614338336579    -0.625410225706
    H            0.512031063265     1.397928174571     1.057792113343
    C            0.354844993357     0.976735671636     0.057570959202
    H            1.450394199278    -0.603338600472    -0.931474730983
    H            1.709278080893    -0.547559165094     0.794996322655
    C            0.936206772888    -0.453982744980     0.025529686379
    H            0.433199124977    -2.554144373966     0.143678566062
    H           -0.816165136648    -1.573003917926    -0.624344297697
    H           -0.611450142694    -1.530926515733     1.130591911225
    C           -0.076032563465    -1.586897758931     0.178045856920

	Cleaning optimization helper files.

*** Psi4 exiting successfully. Buy a developer a beer!
