    -----------------------------------------------------------------------
          Psi4: An Open-Source Ab Initio Electronic Structure Package
                              Psi4 1.0.0 Driver

                          Git: Rev {master} 6a9a71b 

    J. M. Turney, A. C. Simmonett, R. M. Parrish, E. G. Hohenstein,
    F. A. Evangelista, J. T. Fermann, B. J. Mintz, L. A. Burns, J. J. Wilke,
    M. L. Abrams, N. J. Russ, M. L. Leininger, C. L. Janssen, E. T. Seidl,
    W. D. Allen, H. F. Schaefer, R. A. King, E. F. Valeev, C. D. Sherrill,
    and T. D. Crawford, WIREs Comput. Mol. Sci. 2, 556-565 (2012)
    (doi: 10.1002/wcms.93)

                         Additional Contributions by
    A. E. DePrince, U. Bozkaya, A. Yu. Sokolov, D. G. A. Smith, R. Di Remigio,
    R. M. Richard, J. F. Gonthier, H. R. McAlexander, M. Saitow, and
    B. P. Pritchard
    -----------------------------------------------------------------------


    Psi4 started on: Thu Feb 16 16:26:04 2017

    Process ID:   1522
    PSI4DATADIR: /Users/sternc1/anaconda/share/psi4
    Memory level set to 256.000 MB

  ==> Input File <==

--------------------------------------------------------------------------

memory 1000 mb

molecule butane {
  symmetry C1
  0 1 
  H      1.604   0.760   -8.260
  H      1.745   2.388   -8.880
  H      2.043   1.024   -9.930
  C      2.142   1.395   -8.932
  H      4.169   2.051   -9.210
  H      3.731   1.788   -7.539
  C      3.631   1.416   -8.537
  H      3.665   -0.647   -7.940
  H      4.104   -0.384   -9.610
  C      4.203   -0.012   -8.612
  H      6.088   -0.983   -8.269
  H      5.790   0.381   -7.219
  H      6.230   0.644   -8.889
  C      5.691   0.009   -8.217
  units Angstrom
}

dih_string = "4 7 10 14 180.001"
set optking fixed_dihedral = $dih_string

optimize('MP2/6-31G(d)')
--------------------------------------------------------------------------

  Memory set to 1000.000 MiB by Python script.
gradient() will perform analytic gradient computation.
    SCF Algorithm Type (re)set to DF.

*** tstart() called on lski1497
*** at Thu Feb 16 16:26:06 2017


         ---------------------------------------------------------
                                   SCF
            by Justin Turney, Rob Parrish, and Andy Simmonett
                              RHF Reference
                        1 Threads,   1000 MiB Core
         ---------------------------------------------------------

  ==> Geometry <==

    Molecular point group: c1
    Full point group: C1

    Geometry (in Angstrom), charge = 0, multiplicity = 1:

       Center              X                  Y                   Z               Mass       
    ------------   -----------------  -----------------  -----------------  -----------------
           H         -2.312776029323     0.057965294236     0.314517352882     1.007825032070
           H         -2.171776029323     1.685965294236    -0.305482647118     1.007825032070
           H         -1.873776029323     0.321965294236    -1.355482647118     1.007825032070
           C         -1.774776029323     0.692965294236    -0.357482647118    12.000000000000
           H          0.252223970677     1.348965294236    -0.635482647118     1.007825032070
           H         -0.185776029323     1.085965294236     1.035517352882     1.007825032070
           C         -0.285776029323     0.713965294236     0.037517352882    12.000000000000
           H         -0.251776029323    -1.349034705764     0.634517352882     1.007825032070
           H          0.187223970677    -1.086034705764    -1.035482647118     1.007825032070
           C          0.286223970677    -0.714034705764    -0.037482647118    12.000000000000
           H          2.171223970677    -1.685034705764     0.305517352882     1.007825032070
           H          1.873223970677    -0.321034705764     1.355517352882     1.007825032070
           H          2.313223970677    -0.058034705764    -0.314482647118     1.007825032070
           C          1.774223970677    -0.693034705764     0.357517352882    12.000000000000

  Running in c1 symmetry.

  Rotational constants: A =      0.76946  B =      0.12464  C =      0.11637 [cm^-1]
  Rotational constants: A =  23067.68991  B =   3736.52948  C =   3488.75156 [MHz]
  Nuclear repulsion =  131.817319909035746

  Charge       = 0
  Multiplicity = 1
  Electrons    = 34
  Nalpha       = 17
  Nbeta        = 17

  ==> Algorithm <==

  SCF Algorithm Type is DF.
  DIIS enabled.
  MOM disabled.
  Fractional occupation disabled.
  Guess Type is SAD.
  Energy threshold   = 1.00e-10
  Density threshold  = 1.00e-10
  Integral threshold = 0.00e+00

  ==> Primary Basis <==

  Basis Set: 6-31G(D)
    Number of shells: 44
    Number of basis function: 80
    Number of Cartesian functions: 80
    Spherical Harmonics?: false
    Max angular momentum: 2

  ==> Pre-Iterations <==

   -------------------------------------------------------
    Irrep   Nso     Nmo     Nalpha   Nbeta   Ndocc  Nsocc
   -------------------------------------------------------
     A         80      80       0       0       0       0
   -------------------------------------------------------
    Total      80      80      17      17      17       0
   -------------------------------------------------------

  ==> Integral Setup <==

  ==> DFJK: Density-Fitted J/K Matrices <==

    J tasked:                  Yes
    K tasked:                  Yes
    wK tasked:                  No
    OpenMP threads:              1
    Integrals threads:           1
    Memory (MB):               715
    Algorithm:                Core
    Integral Cache:           NONE
    Schwarz Cutoff:          1E-12
    Fitting Condition:       1E-12

   => Auxiliary Basis Set <=

  Basis Set: 
    Number of shells: 186
    Number of basis function: 574
    Number of Cartesian functions: 574
    Spherical Harmonics?: false
    Max angular momentum: 3

  Minimum eigenvalue in the overlap matrix is 4.4964886318E-03.
  Using Symmetric Orthogonalization.
  SCF Guess: Superposition of Atomic Densities via on-the-fly atomic UHF.

  ==> Iterations <==

                           Total Energy        Delta E     RMS |[F,P]|

   @DF-RHF iter   0:  -158.97354931573295   -1.58974e+02   4.74682e-02 
   @DF-RHF iter   1:  -157.20624484449314    1.76730e+00   3.94269e-03 
   @DF-RHF iter   2:  -157.28587773971174   -7.96329e-02   1.09221e-03 DIIS
   @DF-RHF iter   3:  -157.29374991230384   -7.87217e-03   2.42517e-04 DIIS
   @DF-RHF iter   4:  -157.29409138124163   -3.41469e-04   7.49046e-05 DIIS
   @DF-RHF iter   5:  -157.29412460361209   -3.32224e-05   1.31062e-05 DIIS
   @DF-RHF iter   6:  -157.29412584597219   -1.24236e-06   2.57696e-06 DIIS
   @DF-RHF iter   7:  -157.29412587709999   -3.11278e-08   7.03589e-07 DIIS
   @DF-RHF iter   8:  -157.29412587961178   -2.51180e-09   9.64252e-08 DIIS
   @DF-RHF iter   9:  -157.29412587969080   -7.90124e-11   2.09292e-08 DIIS
   @DF-RHF iter  10:  -157.29412587969443   -3.63798e-12   3.64522e-09 DIIS
   @DF-RHF iter  11:  -157.29412587969455   -1.13687e-13   6.76481e-10 DIIS
   @DF-RHF iter  12:  -157.29412587969466   -1.13687e-13   1.44312e-10 DIIS
   @DF-RHF iter  13:  -157.29412587969421    4.54747e-13   2.44708e-11 DIIS

  ==> Post-Iterations <==

    Orbital Energies (a.u.)
    -----------------------

    Doubly Occupied:                                                      

       1A    -11.208144     2A    -11.207549     3A    -11.200046  
       4A    -11.199955     5A     -1.070929     6A     -0.981282  
       7A     -0.861708     8A     -0.794812     9A     -0.647839  
      10A     -0.587770    11A     -0.575460    12A     -0.570713  
      13A     -0.514847    14A     -0.503769    15A     -0.475850  
      16A     -0.468529    17A     -0.441422  

    Virtual:                                                              

      18A      0.233038    19A      0.265034    20A      0.288500  
      21A      0.299663    22A      0.324727    23A      0.340897  
      24A      0.345106    25A      0.345403    26A      0.360402  
      27A      0.366208    28A      0.418439    29A      0.418803  
      30A      0.433902    31A      0.697976    32A      0.709229  
      33A      0.747568    34A      0.751987    35A      0.758136  
      36A      0.844767    37A      0.856935    38A      0.931391  
      39A      0.954187    40A      1.030738    41A      1.067550  
      42A      1.101654    43A      1.154052    44A      1.188216  
      45A      1.206965    46A      1.214268    47A      1.219923  
      48A      1.228325    49A      1.243886    50A      1.252599  
      51A      1.261129    52A      1.296602    53A      1.303397  
      54A      1.635379    55A      1.707929    56A      1.712022  
      57A      1.715274    58A      1.926734    59A      1.934553  
      60A      2.156030    61A      2.196539    62A      2.220734  
      63A      2.294140    64A      2.304845    65A      2.344950  
      66A      2.394260    67A      2.545142    68A      2.622078  
      69A      2.635154    70A      2.662559    71A      2.750922  
      72A      2.755749    73A      2.763663    74A      2.887771  
      75A      3.004180    76A      3.117586    77A      4.580052  
      78A      4.687537    79A      4.800434    80A      4.951041  

    Final Occupation by Irrep:
              A 
    DOCC [    17 ]

  Energy converged.

  @DF-RHF Final Energy:  -157.29412587969421

   => Energetics <=

    Nuclear Repulsion Energy =            131.8173199090357457
    One-Electron Energy =                -471.6016427969223059
    Two-Electron Energy =                 182.4901970081922684
    DFT Exchange-Correlation Energy =       0.0000000000000000
    Empirical Dispersion Energy =           0.0000000000000000
    PCM Polarization Energy =               0.0000000000000000
    EFP Energy =                            0.0000000000000000
    Total Energy =                       -157.2941258796942918


  Saving occupied orbitals to File 180.

*** tstop() called on lski1497 at Thu Feb 16 16:26:12 2017
Module time:
	user time   =       5.60 seconds =       0.09 minutes
	system time =       0.19 seconds =       0.00 minutes
	total time  =          6 seconds =       0.10 minutes
Total time:
	user time   =       5.60 seconds =       0.09 minutes
	system time =       0.19 seconds =       0.00 minutes
	total time  =          6 seconds =       0.10 minutes


Properties will be evaluated at   0.000000,   0.000000,   0.000000 Bohr

Properties computed using the SCF density matrix

  Nuclear Dipole Moment: (a.u.)
     X:     0.0012      Y:     0.0015      Z:    -0.0008

  Electronic Dipole Moment: (a.u.)
     X:    -0.0011      Y:    -0.0022      Z:     0.0007

  Dipole Moment: (a.u.)
     X:     0.0000      Y:    -0.0006      Z:    -0.0001     Total:     0.0006

  Dipole Moment: (Debye)
     X:     0.0001      Y:    -0.0016      Z:    -0.0002     Total:     0.0016


  //>>>>>>>>>>>>>>>>>>>>>>>>>>>>>>>>>>>//
  //               DFMP2               //
  //<<<<<<<<<<<<<<<<<<<<<<<<<<<<<<<<<<<//


*** tstart() called on lski1497
*** at Thu Feb 16 16:26:12 2017


*** tstop() called on lski1497 at Thu Feb 16 16:26:13 2017
Module time:
	user time   =       0.63 seconds =       0.01 minutes
	system time =       0.00 seconds =       0.00 minutes
	total time  =          1 seconds =       0.02 minutes
Total time:
	user time   =       6.25 seconds =       0.10 minutes
	system time =       0.19 seconds =       0.00 minutes
	total time  =          7 seconds =       0.12 minutes
	 --------------------------------------------------------
	                          DF-MP2                         
	      2nd-Order Density-Fitted Moller-Plesset Theory     
	              RMP2 Wavefunction,   1 Threads             
	                                                         
	        Rob Parrish, Justin Turney, Andy Simmonett,      
	           Ed Hohenstein, and C. David Sherrill          
	 --------------------------------------------------------

   => Auxiliary Basis Set <=

  Basis Set: 
    Number of shells: 132
    Number of basis function: 364
    Number of Cartesian functions: 414
    Spherical Harmonics?: true
    Max angular momentum: 3

	 --------------------------------------------------------
	                 NBF =    80, NAUX =   364
	 --------------------------------------------------------
	   CLASS    FOCC     OCC    AOCC    AVIR     VIR    FVIR
	   PAIRS       0      17      17      63      63       0
	 --------------------------------------------------------

DGAS Warning! /src/lib/libfock/apps.cc:80 is not currently checking restricted

         ------------------------------------------------------------
                                     CPHF                           
                                  Rob Parrish                       
         ------------------------------------------------------------

  ==> Geometry <==

    Molecular point group: c1
    Full point group: C1

    Geometry (in Angstrom), charge = 0, multiplicity = 1:

       Center              X                  Y                   Z               Mass       
    ------------   -----------------  -----------------  -----------------  -----------------
           H         -2.312776029323     0.057965294236     0.314517352882     1.007825032070
           H         -2.171776029323     1.685965294236    -0.305482647118     1.007825032070
           H         -1.873776029323     0.321965294236    -1.355482647118     1.007825032070
           C         -1.774776029323     0.692965294236    -0.357482647118    12.000000000000
           H          0.252223970677     1.348965294236    -0.635482647118     1.007825032070
           H         -0.185776029323     1.085965294236     1.035517352882     1.007825032070
           C         -0.285776029323     0.713965294236     0.037517352882    12.000000000000
           H         -0.251776029323    -1.349034705764     0.634517352882     1.007825032070
           H          0.187223970677    -1.086034705764    -1.035482647118     1.007825032070
           C          0.286223970677    -0.714034705764    -0.037482647118    12.000000000000
           H          2.171223970677    -1.685034705764     0.305517352882     1.007825032070
           H          1.873223970677    -0.321034705764     1.355517352882     1.007825032070
           H          2.313223970677    -0.058034705764    -0.314482647118     1.007825032070
           C          1.774223970677    -0.693034705764     0.357517352882    12.000000000000

  Nuclear repulsion =  131.817319909035746
  Reference energy  = -157.294125879694207

  ==> Basis Set <==

  Basis Set: 6-31G(D)
    Number of shells: 44
    Number of basis function: 80
    Number of Cartesian functions: 80
    Spherical Harmonics?: false
    Max angular momentum: 2

  ==> CGRSolver (by Rob Parrish) <==

   Number of roots    =         1
   Preconditioning    =    JACOBI
   Convergence cutoff =     1E-06
   Maximum iterations =       100

  ==> CPHFRHamiltonian (by Rob Parrish) <== 

  ==> DFJK: Density-Fitted J/K Matrices <==

    J tasked:                  Yes
    K tasked:                  Yes
    wK tasked:                  No
    OpenMP threads:              1
    Integrals threads:           1
    Memory (MB):               715
    Algorithm:                Core
    Integral Cache:           NONE
    Schwarz Cutoff:          1E-12
    Fitting Condition:       1E-12

   => Auxiliary Basis Set <=

  Basis Set: 
    Number of shells: 186
    Number of basis function: 574
    Number of Cartesian functions: 574
    Spherical Harmonics?: false
    Max angular momentum: 3

  ==> CPHF Iterations <==

  => Iterations <=

             Iter  Converged  Remaining    Residual
  CGR           1          0          1   7.250E-02
  CGR           2          0          1   8.680E-03
  CGR           3          0          1   2.774E-03
  CGR           4          0          1   3.510E-04
  CGR           5          0          1   5.260E-05
  CGR           6          0          1   8.758E-06
  CGR           7          0          1   1.759E-06
  CGR           8          1          0   2.893E-07

    CGRSolver converged.

  ==> DFCorrGrad: Density-Fitted Correlated Gradients <==

    OpenMP threads:              1
    Integrals threads:           1
    Memory (MB):               715
    Schwarz Cutoff:          0E+00
    Fitting Condition:       1E-12

   => Auxiliary Basis Set <=

  Basis Set: 
    Number of shells: 186
    Number of basis function: 510
    Number of Cartesian functions: 574
    Spherical Harmonics?: true
    Max angular momentum: 3

	-----------------------------------------------------------
	 ==================> DF-MP2 Energies <==================== 
	-----------------------------------------------------------
	 Reference Energy          =    -157.2941258796942066 [Eh]
	 Singles Energy            =      -0.0000000000000000 [Eh]
	 Same-Spin Energy          =      -0.1243448366672591 [Eh]
	 Opposite-Spin Energy      =      -0.4201068722497108 [Eh]
	 Correlation Energy        =      -0.5444517089169699 [Eh]
	 Total Energy              =    -157.8385775886111730 [Eh]
	-----------------------------------------------------------
	 ================> DF-SCS-MP2 Energies <================== 
	-----------------------------------------------------------
	 SCS Same-Spin Scale       =       0.3333333333333333 [-]
	 SCS Opposite-Spin Scale   =       1.2000000000000000 [-]
	 SCS Same-Spin Energy      =      -0.0414482788890864 [Eh]
	 SCS Opposite-Spin Energy  =      -0.5041282466996529 [Eh]
	 SCS Correlation Energy    =      -0.5455765255887394 [Eh]
	 SCS Total Energy          =    -157.8397024052829352 [Eh]
	-----------------------------------------------------------


  -Total Gradient:
     Atom            X                  Y                   Z
    ------   -----------------  -----------------  -----------------
       1        0.010757358666     0.009260775251    -0.008969946550
       2        0.010414373319    -0.013619110396     0.000535489281
       3        0.004330694882     0.005594465061     0.015521551656
       4       -0.027114582826    -0.007475729892    -0.008619777737
       5       -0.010263594531    -0.011563368100     0.008543881944
       6       -0.003916940839    -0.007924670530    -0.015720238397
       7        0.024271909152     0.033269624293     0.012188235322
       8        0.010506144758     0.011830394480    -0.008863817829
       9        0.004004748648     0.007912902499     0.015813002929
      10       -0.024126480648    -0.033538294440    -0.011737269495
      11       -0.010669736220     0.014288197582    -0.000593842810
      12       -0.004334138029    -0.005434750743    -0.015312455456
      13       -0.010508249431    -0.009070826354     0.008776420195
      14        0.026648493098     0.006470391288     0.008438766948


			-----------------------------------------
			 OPTKING 2.0: for geometry optimizations 
			  - R.A. King,  Bethel University        
			-----------------------------------------

	Previous internal coordinate definitions found.
	---Fragment 1 Geometry and Gradient---
	 H          -4.3705133021        0.1095385313        0.5943516610
	 H          -4.1040619174        3.1860126757       -0.5772785414
	 H          -3.5409235298        0.6084262304       -2.5614909809
	 C          -3.3538406426        1.3095146257       -0.6755443003
	 H           0.4766342287        2.5491749689       -1.2008881653
	 H          -0.3510658175        2.0521769959        1.9568442028
	 C          -0.5400384308        1.3491988745        0.0708975222
	 H          -0.4757877422       -2.5493061377        1.1990640235
	 H           0.3538020301       -2.0523081647       -1.9567786184
	 C           0.5408849172       -1.3493300433       -0.0708319378
	 H           4.1030186777       -3.1842541183        0.5773441258
	 H           3.5398802901       -0.6066676730        2.5615565653
	 H           4.3713597886       -0.1096697001       -0.5942860766
	 C           3.3527974030       -1.3096457945        0.6756098847
	             0.0107573587        0.0092607753       -0.0089699466
	             0.0104143733       -0.0136191104        0.0005354893
	             0.0043306949        0.0055944651        0.0155215517
	            -0.0271145828       -0.0074757299       -0.0086197777
	            -0.0102635945       -0.0115633681        0.0085438819
	            -0.0039169408       -0.0079246705       -0.0157202384
	             0.0242719092        0.0332696243        0.0121882353
	             0.0105061448        0.0118303945       -0.0088638178
	             0.0040047486        0.0079129025        0.0158130029
	            -0.0241264806       -0.0335382944       -0.0117372695
	            -0.0106697362        0.0142881976       -0.0005938428
	            -0.0043341380       -0.0054347507       -0.0153124555
	            -0.0105082494       -0.0090708264        0.0087764202
	             0.0266484931        0.0064703913        0.0084387669

	Previous optimization step data not found.  Starting new optimization.

	---Fragment 1 Intrafragment Coordinates---
	 - Coordinate -           - BOHR/RAD -       - ANG/DEG -
	 R(1,4)           =         2.021436	       1.069698
	 R(2,4)           =         2.023298	       1.070683
	 R(3,4)           =         2.020723	       1.069320
	 R(4,7)           =         2.911397	       1.540645
	 R(5,7)           =         2.022623	       1.070326
	 R(6,7)           =         2.021555	       1.069761
	 R(7,10)          =         2.910419	       1.540128
	 R(8,10)          =         2.021436	       1.069698
	 R(9,10)          =         2.021379	       1.069668
	 R(10,14)         =         2.909571	       1.539679
	 R(11,14)         =         2.021545	       1.069756
	 R(12,14)         =         2.021379	       1.069668
	 R(13,14)         =         2.022387	       1.070201
	 B(1,4,2)         =         1.910870	     109.484805
	 B(1,4,3)         =         1.911121	     109.499161
	 B(1,4,7)         =         1.910399	     109.457783
	 B(2,4,3)         =         1.910042	     109.437340
	 B(2,4,7)         =         1.910564	     109.467262
	 B(3,4,7)         =         1.910803	     109.480971
	 B(4,7,5)         =         1.909937	     109.431343
	 B(4,7,6)         =         1.911630	     109.528316
	 B(4,7,10)        =         1.911154	     109.501062
	 B(5,7,6)         =         1.910605	     109.469614
	 B(5,7,10)        =         1.910047	     109.437654
	 B(6,7,10)        =         1.910425	     109.459295
	 B(7,10,8)        =         1.910303	     109.452301
	 B(7,10,9)        =         1.910824	     109.482155
	 B(7,10,14)       =         1.911120	     109.499137
	 B(8,10,9)        =         1.910417	     109.458846
	 B(8,10,14)       =         1.910274	     109.450639
	 B(9,10,14)       =         1.910860	     109.484229
	 B(10,14,11)      =         1.910851	     109.483671
	 B(10,14,12)      =         1.910860	     109.484229
	 B(10,14,13)      =         1.911066	     109.496002
	 B(11,14,12)      =         1.910809	     109.481276
	 B(11,14,13)      =         1.910054	     109.438058
	 B(12,14,13)      =         1.910159	     109.444072
	 D(1,4,7,5)       =         3.140997	     179.965873
	 D(1,4,7,6)       =        -1.047644	     -60.025575
	 D(1,4,7,10)      =         1.047427	      60.013132
	 D(2,4,7,5)       =        -1.047689	     -60.028143
	 D(2,4,7,6)       =         1.046856	      59.980409
	 D(2,4,7,10)      =        -3.141259	    -179.980883
	 D(3,4,7,5)       =         1.046044	      59.933911
	 D(3,4,7,6)       =         3.140588	     179.942463
	 D(3,4,7,10)      =        -1.047526	     -60.018830
	 D(4,7,10,8)      =        -1.047368	     -60.009777
	 D(4,7,10,9)      =         1.046677	      59.970178
	 D(4,7,10,14)     =        -3.141419	    -179.990072
	 D(5,7,10,8)      =        -3.140871	    -179.958653
	 D(5,7,10,9)      =        -1.046826	     -59.978698
	 D(5,7,10,14)     =         1.048263	      60.061052
	 D(6,7,10,8)      =         1.048439	      60.071149
	 D(6,7,10,9)      =        -3.140701	    -179.948896
	 D(6,7,10,14)     =        -1.045612	     -59.909147
	 D(7,10,14,11)    =         3.141408	     179.989437
	 D(7,10,14,12)    =         1.046526	      59.961519
	 D(7,10,14,13)    =        -1.047693	     -60.028376
	 D(8,10,14,11)    =         1.047339	      60.008125
	 D(8,10,14,12)    =        -1.047543	     -60.019793
	 D(8,10,14,13)    =         3.141424	     179.990311
	 D(9,10,14,11)    =        -1.046710	     -59.972082
	 D(9,10,14,12)    =         3.141593	     180.000000
	 D(9,10,14,13)    =         1.047374	      60.010105

	Current energy   :      -157.8385775886

	Generating empirical Hessian (Schlegel '84) for each fragment.
	Adding user-defined constraint: Fragment 1; Coordinate 49:
		Value =    -3.141419; Fixed value    =    -3.141580
		Force =    -0.000080; Force constant =     0.500000
	Removing off-diagonal coupling between coordinate 49 and others.
	Taking RFO optimization step.
	Going to follow RFO solution 1.
	Using RFO vector 1.

	Determining step-restricting scale parameter for RS-RFO.
	Maximum step size allowed    0.10000

	 Iter      |step|        alpha        rfo_root  
	------------------------------------------------
	    0     0.21512       1.00000           1
	    1     0.16066       7.59518           1
	    2     0.12517      21.38673           1
	    3     0.10655      37.01332           1
	    4     0.10063      44.31560           1
	    5     0.10001      45.17471           1
	------------------------------------------------
	Norm of target step-size    0.10001
	Projected energy change by RFO approximation:        -0.0055411216

	Back-transformation to cartesian coordinates...
	Could not converge backtransformation.
	Using first guess instead.

	--- Internal Coordinate Step in ANG or DEG, aJ/ANG or AJ/DEG ---
	 ---------------------------------------------------------------------------
	   Coordinate                Previous        Force       Change         New 
	   ----------                --------       ------       ------       ------
	    1 R(1,4)          =      1.069698     0.136292     0.013881     1.083579
	    2 R(2,4)          =      1.070683     0.135663     0.013815     1.084498
	    3 R(3,4)          =      1.069320     0.138644     0.014107     1.083427
	    4 R(4,7)          =      1.540645    -0.016774    -0.001929     1.538716
	    5 R(5,7)          =      1.070326     0.143284     0.014560     1.084887
	    6 R(6,7)          =      1.069761     0.146547     0.014875     1.084636
	    7 R(7,10)         =      1.540128    -0.033065    -0.003748     1.536379
	    8 R(8,10)         =      1.069698     0.147269     0.014947     1.084644
	    9 R(9,10)         =      1.069668     0.147276     0.014946     1.084614
	   10 R(10,14)        =      1.539679    -0.012516    -0.001424     1.538254
	   11 R(11,14)        =      1.069756     0.141545     0.014386     1.084142
	   12 R(12,14)        =      1.069668     0.136579     0.013909     1.083577
	   13 R(13,14)        =      1.070201     0.133348     0.013594     1.083795
	   14 B(1,4,2)        =    109.484805    -0.000298    -0.521950   108.962855
	   15 B(1,4,3)        =    109.499161    -0.000217    -0.407031   109.092131
	   16 B(1,4,7)        =    109.457783     0.000185     0.319845   109.777628
	   17 B(2,4,3)        =    109.437340    -0.000291    -0.508332   108.929008
	   18 B(2,4,7)        =    109.467262     0.000445     0.802850   110.270112
	   19 B(3,4,7)        =    109.480971     0.000175     0.302350   109.783322
	   20 B(4,7,5)        =    109.431343    -0.000152    -0.187397   109.243946
	   21 B(4,7,6)        =    109.528316    -0.000159    -0.203328   109.324988
	   22 B(4,7,10)       =    109.501062     0.000758     1.243310   110.744372
	   23 B(5,7,6)        =    109.469614    -0.000000    -0.161518   109.308095
	   24 B(5,7,10)       =    109.437654    -0.000224    -0.350180   109.087474
	   25 B(6,7,10)       =    109.459295    -0.000223    -0.347847   109.111448
	   26 B(7,10,8)       =    109.452301    -0.000225    -0.352534   109.099767
	   27 B(7,10,9)       =    109.482155    -0.000228    -0.358322   109.123833
	   28 B(7,10,14)      =    109.499137     0.000761     1.247528   110.746665
	   29 B(8,10,9)       =    109.458846     0.000001    -0.160027   109.298820
	   30 B(8,10,14)      =    109.450639    -0.000152    -0.187416   109.263223
	   31 B(9,10,14)      =    109.484229    -0.000156    -0.196319   109.287910
	   32 B(10,14,11)     =    109.483671     0.000446     0.803402   110.287073
	   33 B(10,14,12)     =    109.484229     0.000179     0.309799   109.794028
	   34 B(10,14,13)     =    109.496002     0.000176     0.304272   109.800274
	   35 B(11,14,12)     =    109.481276    -0.000296    -0.519385   108.961891
	   36 B(11,14,13)     =    109.438058    -0.000292    -0.511554   108.926504
	   37 B(12,14,13)     =    109.444072    -0.000213    -0.399840   109.044232
	   38 D(1,4,7,5)      =    179.965873     0.000017     0.161063   180.126936
	   39 D(1,4,7,6)      =    -60.025575    -0.000027    -0.273307   -60.298882
	   40 D(1,4,7,10)     =     60.013132    -0.000005    -0.058240    59.954893
	   41 D(2,4,7,5)      =    -60.028143     0.000022     0.216137   -59.812006
	   42 D(2,4,7,6)      =     59.980409    -0.000022    -0.218233    59.762176
	   43 D(2,4,7,10)     =   -179.980883    -0.000000    -0.003166  -179.984049
	   44 D(3,4,7,5)      =     59.933911     0.000027     0.276861    60.210771
	   45 D(3,4,7,6)      =    179.942463    -0.000017    -0.157510   179.784953
	   46 D(3,4,7,10)     =    -60.018830     0.000005     0.057558   -59.961272
	   47 D(4,7,10,8)     =    -60.009777     0.000032     0.316673   -59.693104
	   48 D(4,7,10,9)     =     59.970178    -0.000031    -0.306403    59.663775
	   49 D(4,7,10,14)    =   -179.990072    -0.000000    -0.001597  -179.991669
	   50 D(5,7,10,8)     =   -179.958653     0.000000     0.000133  -179.958519
	   51 D(5,7,10,9)     =    -59.978698    -0.000063    -0.622942   -60.601640
	   52 D(5,7,10,14)    =     60.061052    -0.000032    -0.318136    59.742916
	   53 D(6,7,10,8)     =     60.071149     0.000063     0.616820    60.687969
	   54 D(6,7,10,9)     =   -179.948896    -0.000001    -0.006256  -179.955152
	   55 D(6,7,10,14)    =    -59.909147     0.000030     0.298551   -59.610596
	   56 D(7,10,14,11)   =    179.989437     0.000000     0.002034   179.991472
	   57 D(7,10,14,12)   =     59.961519    -0.000005    -0.051009    59.910510
	   58 D(7,10,14,13)   =    -60.028376     0.000005     0.060960   -59.967416
	   59 D(8,10,14,11)   =     60.008125    -0.000022    -0.217714    59.790411
	   60 D(8,10,14,12)   =    -60.019793    -0.000027    -0.270758   -60.290551
	   61 D(8,10,14,13)   =    179.990311    -0.000017    -0.158789   179.831523
	   62 D(9,10,14,11)   =    -59.972082     0.000021     0.210281   -59.761801
	   63 D(9,10,14,12)   =    180.000000     0.000016     0.157237   180.157237
	   64 D(9,10,14,13)   =     60.010105     0.000026     0.269206    60.279311
	 ---------------------------------------------------------------------------
	 Forces used to impose fixed constraints are not included.
	  Forces zeroed: 49 

  ==> Convergence Check <==

  Measures of convergence in internal coordinates in au.
  Criteria marked as inactive (o), active & met (*), and active & unmet ( ).
  --------------------------------------------------------------------------------------------- ~
   Step     Total Energy     Delta E     MAX Force     RMS Force      MAX Disp      RMS Disp    ~
  --------------------------------------------------------------------------------------------- ~
    Convergence Criteria    1.00e-06 *    3.00e-04 *             o    1.20e-03 *             o  ~
  --------------------------------------------------------------------------------------------- ~
      1    -157.83857759   -1.58e+02      1.79e-02      7.31e-03 o    2.82e-02      1.25e-02 o  ~
  ---------------------------------------------------------------------------------------------

	Writing optimization data to binary file.
	Structure for next step:
	Cartesian Geometry (in Angstrom)
	    H    -2.3363035594   0.0596762105   0.3181427438
	    H    -2.1904031322   1.7031915495  -0.3076244867
	    H    -1.8925033141   0.3262157194  -1.3694429210
	    C    -1.7823621849   0.6996674761  -0.3583953182
	    H     0.2510585481   1.3532151922  -0.6466540347
	    H    -0.1926279056   1.0870806176   1.0456459120
	    C    -0.2946292578   0.7086271867   0.0343084050
	    H    -0.2510536033  -1.3532992438   0.6458877944
	    H     0.1936730652  -1.0868436169  -1.0457568896
	    C     0.2948525612  -0.7085045779  -0.0343174856
	    H     2.1902773639  -1.7027176403   0.3076585812
	    H     1.8924131730  -0.3253908221   1.3693530181
	    H     2.3366542654  -0.0597639810  -0.3180219645
	    C     1.7820895701  -0.6996399507   0.3584595862
			--------------------------
			 OPTKING Finished Execution 
			--------------------------

    Structure for next step:
    Molecular point group: c1
    Full point group: C1

    Geometry (in Angstrom), charge = 0, multiplicity = 1:

    H           -2.336313932278     0.059621521025     0.318145435960
    H           -2.190413505017     1.703136860057    -0.307621794589
    H           -1.892513686962     0.326161029936    -1.369440228899
    C           -1.782372557747     0.699612786663    -0.358392626104
    H            0.251048175224     1.353160502727    -0.646651342541
    H           -0.192638278469     1.087025928178     1.045648604083
    C           -0.294639630647     0.708572497237     0.034311097123
    H           -0.251063976127    -1.353353933265     0.645890486554
    H            0.193662692398    -1.086898306370    -1.045754197491
    C            0.294842188364    -0.708559267411    -0.034314793450
    H            2.190266991055    -1.702772329766     0.307661273326
    H            1.892402800202    -0.325445511520     1.369355710228
    H            2.336643892535    -0.059818670507    -0.318019272413
    C            1.782079197300    -0.699694640177     0.358462278347

gradient() will perform analytic gradient computation.
    SCF Algorithm Type (re)set to DF.

*** tstart() called on lski1497
*** at Thu Feb 16 16:26:36 2017


         ---------------------------------------------------------
                                   SCF
            by Justin Turney, Rob Parrish, and Andy Simmonett
                              RHF Reference
                        1 Threads,   1000 MiB Core
         ---------------------------------------------------------

  ==> Geometry <==

    Molecular point group: c1
    Full point group: C1

    Geometry (in Angstrom), charge = 0, multiplicity = 1:

       Center              X                  Y                   Z               Mass       
    ------------   -----------------  -----------------  -----------------  -----------------
           H         -2.336313932278     0.059621521025     0.318145435960     1.007825032070
           H         -2.190413505017     1.703136860057    -0.307621794589     1.007825032070
           H         -1.892513686962     0.326161029936    -1.369440228899     1.007825032070
           C         -1.782372557747     0.699612786663    -0.358392626104    12.000000000000
           H          0.251048175224     1.353160502727    -0.646651342541     1.007825032070
           H         -0.192638278469     1.087025928178     1.045648604083     1.007825032070
           C         -0.294639630647     0.708572497237     0.034311097123    12.000000000000
           H         -0.251063976127    -1.353353933265     0.645890486554     1.007825032070
           H          0.193662692398    -1.086898306370    -1.045754197491     1.007825032070
           C          0.294842188364    -0.708559267411    -0.034314793450    12.000000000000
           H          2.190266991055    -1.702772329766     0.307661273326     1.007825032070
           H          1.892402800202    -0.325445511520     1.369355710228     1.007825032070
           H          2.336643892535    -0.059818670507    -0.318019272413     1.007825032070
           C          1.782079197300    -0.699694640177     0.358462278347    12.000000000000

  Running in c1 symmetry.

  Rotational constants: A =      0.77075  B =      0.12295  C =      0.11516 [cm^-1]
  Rotational constants: A =  23106.40897  B =   3686.07595  C =   3452.37634 [MHz]
  Nuclear repulsion =  131.076919226682975

  Charge       = 0
  Multiplicity = 1
  Electrons    = 34
  Nalpha       = 17
  Nbeta        = 17

  ==> Algorithm <==

  SCF Algorithm Type is DF.
  DIIS enabled.
  MOM disabled.
  Fractional occupation disabled.
  Guess Type is READ.
  Energy threshold   = 1.00e-10
  Density threshold  = 1.00e-10
  Integral threshold = 0.00e+00

  ==> Primary Basis <==

  Basis Set: 6-31G(D)
    Number of shells: 44
    Number of basis function: 80
    Number of Cartesian functions: 80
    Spherical Harmonics?: false
    Max angular momentum: 2

  ==> Pre-Iterations <==

   -------------------------------------------------------
    Irrep   Nso     Nmo     Nalpha   Nbeta   Ndocc  Nsocc
   -------------------------------------------------------
     A         80      80       0       0       0       0
   -------------------------------------------------------
    Total      80      80      17      17      17       0
   -------------------------------------------------------

  ==> Integral Setup <==

  ==> DFJK: Density-Fitted J/K Matrices <==

    J tasked:                  Yes
    K tasked:                  Yes
    wK tasked:                  No
    OpenMP threads:              1
    Integrals threads:           1
    Memory (MB):               715
    Algorithm:                Core
    Integral Cache:           NONE
    Schwarz Cutoff:          1E-12
    Fitting Condition:       1E-12

   => Auxiliary Basis Set <=

  Basis Set: 
    Number of shells: 186
    Number of basis function: 574
    Number of Cartesian functions: 574
    Spherical Harmonics?: false
    Max angular momentum: 3

  Minimum eigenvalue in the overlap matrix is 4.5687038520E-03.
  Using Symmetric Orthogonalization.
  SCF Guess was Projection but file not found.
  Switching over to SAD guess.

  SCF Guess: Superposition of Atomic Densities via on-the-fly atomic UHF.

  ==> Iterations <==

                           Total Energy        Delta E     RMS |[F,P]|

   @DF-RHF iter   0:  -158.87988772576583   -1.58880e+02   4.66042e-02 
   @DF-RHF iter   1:  -157.20815767802029    1.67173e+00   3.92604e-03 
   @DF-RHF iter   2:  -157.28847549607863   -8.03178e-02   1.10687e-03 DIIS
   @DF-RHF iter   3:  -157.29655382311788   -8.07833e-03   2.61767e-04 DIIS
   @DF-RHF iter   4:  -157.29694101182375   -3.87189e-04   7.59394e-05 DIIS
   @DF-RHF iter   5:  -157.29697780632912   -3.67945e-05   1.26690e-05 DIIS
   @DF-RHF iter   6:  -157.29697903517163   -1.22884e-06   2.18829e-06 DIIS
   @DF-RHF iter   7:  -157.29697905932576   -2.41541e-08   7.15418e-07 DIIS
   @DF-RHF iter   8:  -157.29697906165828   -2.33251e-09   9.93785e-08 DIIS
   @DF-RHF iter   9:  -157.29697906174013   -8.18545e-11   2.12833e-08 DIIS
   @DF-RHF iter  10:  -157.29697906174462   -4.49063e-12   3.63928e-09 DIIS
   @DF-RHF iter  11:  -157.29697906174428    3.41061e-13   6.57389e-10 DIIS
   @DF-RHF iter  12:  -157.29697906174422    5.68434e-14   1.39917e-10 DIIS
   @DF-RHF iter  13:  -157.29697906174422    0.00000e+00   2.26913e-11 DIIS

  ==> Post-Iterations <==

    Orbital Energies (a.u.)
    -----------------------

    Doubly Occupied:                                                      

       1A    -11.212875     2A    -11.212290     3A    -11.206110  
       4A    -11.206068     5A     -1.069058     6A     -0.978695  
       7A     -0.859126     8A     -0.788721     9A     -0.644131  
      10A     -0.584172    11A     -0.571582    12A     -0.570497  
      13A     -0.512705    14A     -0.500012    15A     -0.470471  
      16A     -0.465208    17A     -0.447443  

    Virtual:                                                              

      18A      0.231469    19A      0.262573    20A      0.284541  
      21A      0.296239    22A      0.321881    23A      0.339211  
      24A      0.340308    25A      0.340638    26A      0.356039  
      27A      0.359575    28A      0.417951    29A      0.418698  
      30A      0.435497    31A      0.699915    32A      0.705538  
      33A      0.752217    34A      0.752383    35A      0.761543  
      36A      0.847338    37A      0.863301    38A      0.928706  
      39A      0.955660    40A      1.026409    41A      1.064001  
      42A      1.106870    43A      1.141775    44A      1.173338  
      45A      1.192927    46A      1.200814    47A      1.207841  
      48A      1.213939    49A      1.235458    50A      1.236696  
      51A      1.245254    52A      1.278769    53A      1.295897  
      54A      1.625670    55A      1.700144    56A      1.708753  
      57A      1.717598    58A      1.921236    59A      1.933491  
      60A      2.157294    61A      2.203335    62A      2.206676  
      63A      2.288140    64A      2.295703    65A      2.339814  
      66A      2.392273    67A      2.519871    68A      2.603069  
      69A      2.614701    70A      2.645358    71A      2.732835  
      72A      2.741123    73A      2.752689    74A      2.887814  
      75A      3.010263    76A      3.111917    77A      4.568916  
      78A      4.678292    79A      4.795068    80A      4.944461  

    Final Occupation by Irrep:
              A 
    DOCC [    17 ]

  Energy converged.

  @DF-RHF Final Energy:  -157.29697906174422

   => Energetics <=

    Nuclear Repulsion Energy =            131.0769192266829748
    One-Electron Energy =                -470.1494689216023062
    Two-Electron Energy =                 181.7755706331752208
    DFT Exchange-Correlation Energy =       0.0000000000000000
    Empirical Dispersion Energy =           0.0000000000000000
    PCM Polarization Energy =               0.0000000000000000
    EFP Energy =                            0.0000000000000000
    Total Energy =                       -157.2969790617440822


  Saving occupied orbitals to File 180.

*** tstop() called on lski1497 at Thu Feb 16 16:26:43 2017
Module time:
	user time   =       5.59 seconds =       0.09 minutes
	system time =       0.15 seconds =       0.00 minutes
	total time  =          7 seconds =       0.12 minutes
Total time:
	user time   =      31.21 seconds =       0.52 minutes
	system time =       0.89 seconds =       0.01 minutes
	total time  =         37 seconds =       0.62 minutes


Properties will be evaluated at   0.000000,   0.000000,   0.000000 Bohr

Properties computed using the SCF density matrix

  Nuclear Dipole Moment: (a.u.)
     X:     0.0010      Y:     0.0008      Z:    -0.0007

  Electronic Dipole Moment: (a.u.)
     X:    -0.0010      Y:    -0.0010      Z:     0.0006

  Dipole Moment: (a.u.)
     X:     0.0000      Y:    -0.0002      Z:    -0.0001     Total:     0.0002

  Dipole Moment: (Debye)
     X:     0.0001      Y:    -0.0005      Z:    -0.0002     Total:     0.0006


  //>>>>>>>>>>>>>>>>>>>>>>>>>>>>>>>>>>>//
  //               DFMP2               //
  //<<<<<<<<<<<<<<<<<<<<<<<<<<<<<<<<<<<//


*** tstart() called on lski1497
*** at Thu Feb 16 16:26:43 2017


*** tstop() called on lski1497 at Thu Feb 16 16:26:43 2017
Module time:
	user time   =       0.63 seconds =       0.01 minutes
	system time =       0.00 seconds =       0.00 minutes
	total time  =          0 seconds =       0.00 minutes
Total time:
	user time   =      31.86 seconds =       0.53 minutes
	system time =       0.89 seconds =       0.01 minutes
	total time  =         37 seconds =       0.62 minutes
	 --------------------------------------------------------
	                          DF-MP2                         
	      2nd-Order Density-Fitted Moller-Plesset Theory     
	              RMP2 Wavefunction,   1 Threads             
	                                                         
	        Rob Parrish, Justin Turney, Andy Simmonett,      
	           Ed Hohenstein, and C. David Sherrill          
	 --------------------------------------------------------

   => Auxiliary Basis Set <=

  Basis Set: 
    Number of shells: 132
    Number of basis function: 364
    Number of Cartesian functions: 414
    Spherical Harmonics?: true
    Max angular momentum: 3

	 --------------------------------------------------------
	                 NBF =    80, NAUX =   364
	 --------------------------------------------------------
	   CLASS    FOCC     OCC    AOCC    AVIR     VIR    FVIR
	   PAIRS       0      17      17      63      63       0
	 --------------------------------------------------------

DGAS Warning! /src/lib/libfock/apps.cc:80 is not currently checking restricted

         ------------------------------------------------------------
                                     CPHF                           
                                  Rob Parrish                       
         ------------------------------------------------------------

  ==> Geometry <==

    Molecular point group: c1
    Full point group: C1

    Geometry (in Angstrom), charge = 0, multiplicity = 1:

       Center              X                  Y                   Z               Mass       
    ------------   -----------------  -----------------  -----------------  -----------------
           H         -2.336313932278     0.059621521025     0.318145435960     1.007825032070
           H         -2.190413505017     1.703136860057    -0.307621794589     1.007825032070
           H         -1.892513686962     0.326161029936    -1.369440228899     1.007825032070
           C         -1.782372557747     0.699612786663    -0.358392626104    12.000000000000
           H          0.251048175224     1.353160502727    -0.646651342541     1.007825032070
           H         -0.192638278469     1.087025928178     1.045648604083     1.007825032070
           C         -0.294639630647     0.708572497237     0.034311097123    12.000000000000
           H         -0.251063976127    -1.353353933265     0.645890486554     1.007825032070
           H          0.193662692398    -1.086898306370    -1.045754197491     1.007825032070
           C          0.294842188364    -0.708559267411    -0.034314793450    12.000000000000
           H          2.190266991055    -1.702772329766     0.307661273326     1.007825032070
           H          1.892402800202    -0.325445511520     1.369355710228     1.007825032070
           H          2.336643892535    -0.059818670507    -0.318019272413     1.007825032070
           C          1.782079197300    -0.699694640177     0.358462278347    12.000000000000

  Nuclear repulsion =  131.076919226682975
  Reference energy  = -157.296979061744224

  ==> Basis Set <==

  Basis Set: 6-31G(D)
    Number of shells: 44
    Number of basis function: 80
    Number of Cartesian functions: 80
    Spherical Harmonics?: false
    Max angular momentum: 2

  ==> CGRSolver (by Rob Parrish) <==

   Number of roots    =         1
   Preconditioning    =    JACOBI
   Convergence cutoff =     1E-06
   Maximum iterations =       100

  ==> CPHFRHamiltonian (by Rob Parrish) <== 

  ==> DFJK: Density-Fitted J/K Matrices <==

    J tasked:                  Yes
    K tasked:                  Yes
    wK tasked:                  No
    OpenMP threads:              1
    Integrals threads:           1
    Memory (MB):               715
    Algorithm:                Core
    Integral Cache:           NONE
    Schwarz Cutoff:          1E-12
    Fitting Condition:       1E-12

   => Auxiliary Basis Set <=

  Basis Set: 
    Number of shells: 186
    Number of basis function: 574
    Number of Cartesian functions: 574
    Spherical Harmonics?: false
    Max angular momentum: 3

  ==> CPHF Iterations <==

  => Iterations <=

             Iter  Converged  Remaining    Residual
  CGR           1          0          1   7.324E-02
  CGR           2          0          1   8.890E-03
  CGR           3          0          1   2.836E-03
  CGR           4          0          1   3.537E-04
  CGR           5          0          1   5.509E-05
  CGR           6          0          1   9.132E-06
  CGR           7          0          1   1.787E-06
  CGR           8          1          0   2.732E-07

    CGRSolver converged.

  ==> DFCorrGrad: Density-Fitted Correlated Gradients <==

    OpenMP threads:              1
    Integrals threads:           1
    Memory (MB):               715
    Schwarz Cutoff:          0E+00
    Fitting Condition:       1E-12

   => Auxiliary Basis Set <=

  Basis Set: 
    Number of shells: 186
    Number of basis function: 510
    Number of Cartesian functions: 574
    Spherical Harmonics?: true
    Max angular momentum: 3

	-----------------------------------------------------------
	 ==================> DF-MP2 Energies <==================== 
	-----------------------------------------------------------
	 Reference Energy          =    -157.2969790617442243 [Eh]
	 Singles Energy            =      -0.0000000000000000 [Eh]
	 Same-Spin Energy          =      -0.1243194854670174 [Eh]
	 Opposite-Spin Energy      =      -0.4214163602400234 [Eh]
	 Correlation Energy        =      -0.5457358457070408 [Eh]
	 Total Energy              =    -157.8427149074512670 [Eh]
	-----------------------------------------------------------
	 ================> DF-SCS-MP2 Energies <================== 
	-----------------------------------------------------------
	 SCS Same-Spin Scale       =       0.3333333333333333 [-]
	 SCS Opposite-Spin Scale   =       1.2000000000000000 [-]
	 SCS Same-Spin Energy      =      -0.0414398284890058 [Eh]
	 SCS Opposite-Spin Energy  =      -0.5056996322880281 [Eh]
	 SCS Correlation Energy    =      -0.5471394607770339 [Eh]
	 SCS Total Energy          =    -157.8441185225212564 [Eh]
	-----------------------------------------------------------


  -Total Gradient:
     Atom            X                  Y                   Z
    ------   -----------------  -----------------  -----------------
       1        0.005236461750     0.003559838766    -0.002864734666
       2        0.004930471461    -0.004699629894     0.000517470702
       3        0.002890979441     0.002253263338     0.006003623933
       4       -0.016139552634    -0.004337910101    -0.005068146001
       5       -0.004932025025    -0.005928675300     0.001659014460
       6       -0.002981899959    -0.004832630308    -0.005602837411
       7        0.015168564213     0.019357861159     0.007359805592
       8        0.005005305955     0.006012893921    -0.001788581055
       9        0.003046315132     0.004817286804     0.005633634291
      10       -0.015097007059    -0.019424607919    -0.007136487507
      11       -0.005000050538     0.004944839380    -0.000570484310
      12       -0.002878474044    -0.002149858770    -0.005941044058
      13       -0.005111237765    -0.003494439127     0.002819309902
      14        0.015862149074     0.003921768052     0.004979456128


			-----------------------------------------
			 OPTKING 2.0: for geometry optimizations 
			  - R.A. King,  Bethel University        
			-----------------------------------------

	Previous internal coordinate definitions found.
	---Fragment 1 Geometry and Gradient---
	 H          -4.4149934925        0.1126683464        0.6012077444
	 H          -4.1392816423        3.2184622323       -0.5813209443
	 H          -3.5763325711        0.6163550218       -2.5878669880
	 C          -3.3681960009        1.3220765659       -0.6772639114
	 H           0.4744122973        2.5571027640       -1.2219939409
	 H          -0.3640335890        2.0541813036        1.9759894930
	 C          -0.5567882098        1.3390079651        0.0648385769
	 H          -0.4744421567       -2.5574682947        1.2205561314
	 H           0.3659694508       -2.0539401333       -1.9761890356
	 C           0.5571709884       -1.3389829643       -0.0648455619
	 H           4.1390047710       -3.2177733699        0.5813955483
	 H           3.5761230255       -0.6150028880        2.5877072708
	 H           4.4156170270       -0.1130409049       -0.6009693298
	 C           3.3676416300       -1.3222312466        0.6773955350
	             0.0052364618        0.0035598388       -0.0028647347
	             0.0049304715       -0.0046996299        0.0005174707
	             0.0028909794        0.0022532633        0.0060036239
	            -0.0161395526       -0.0043379101       -0.0050681460
	            -0.0049320250       -0.0059286753        0.0016590145
	            -0.0029819000       -0.0048326303       -0.0056028374
	             0.0151685642        0.0193578612        0.0073598056
	             0.0050053060        0.0060128939       -0.0017885811
	             0.0030463151        0.0048172868        0.0056336343
	            -0.0150970071       -0.0194246079       -0.0071364875
	            -0.0050000505        0.0049448394       -0.0005704843
	            -0.0028784740       -0.0021498588       -0.0059410441
	            -0.0051112378       -0.0034944391        0.0028193099
	             0.0158621491        0.0039217681        0.0049794561

	---Fragment 1 Intrafragment Coordinates---
	 - Coordinate -           - BOHR/RAD -       - ANG/DEG -
	 R(1,4)           =         2.047668	       1.083579
	 R(2,4)           =         2.049404	       1.084498
	 R(3,4)           =         2.047381	       1.083427
	 R(4,7)           =         2.907751	       1.538716
	 R(5,7)           =         2.050138	       1.084887
	 R(6,7)           =         2.049665	       1.084636
	 R(7,10)          =         2.903336	       1.536379
	 R(8,10)          =         2.049680	       1.084644
	 R(9,10)          =         2.049623	       1.084614
	 R(10,14)         =         2.906879	       1.538254
	 R(11,14)         =         2.048731	       1.084142
	 R(12,14)         =         2.047664	       1.083577
	 R(13,14)         =         2.048075	       1.083795
	 B(1,4,2)         =         1.901761	     108.962855
	 B(1,4,3)         =         1.904017	     109.092131
	 B(1,4,7)         =         1.915981	     109.777628
	 B(2,4,3)         =         1.901170	     108.929008
	 B(2,4,7)         =         1.924577	     110.270112
	 B(3,4,7)         =         1.916080	     109.783322
	 B(4,7,5)         =         1.906667	     109.243946
	 B(4,7,6)         =         1.908081	     109.324988
	 B(4,7,10)        =         1.932854	     110.744372
	 B(5,7,6)         =         1.907786	     109.308095
	 B(5,7,10)        =         1.903936	     109.087474
	 B(6,7,10)        =         1.904354	     109.111448
	 B(7,10,8)        =         1.904150	     109.099767
	 B(7,10,9)        =         1.904570	     109.123833
	 B(7,10,14)       =         1.932894	     110.746665
	 B(8,10,9)        =         1.907624	     109.298820
	 B(8,10,14)       =         1.907003	     109.263223
	 B(9,10,14)       =         1.907434	     109.287910
	 B(10,14,11)      =         1.924873	     110.287073
	 B(10,14,12)      =         1.916267	     109.794028
	 B(10,14,13)      =         1.916376	     109.800274
	 B(11,14,12)      =         1.901744	     108.961891
	 B(11,14,13)      =         1.901126	     108.926504
	 B(12,14,13)      =         1.903181	     109.044232
	 D(1,4,7,5)       =        -3.139377	    -179.873064
	 D(1,4,7,6)       =        -1.052414	     -60.298882
	 D(1,4,7,10)      =         1.046410	      59.954893
	 D(2,4,7,5)       =        -1.043916	     -59.812006
	 D(2,4,7,6)       =         1.043047	      59.762176
	 D(2,4,7,10)      =        -3.141314	    -179.984049
	 D(3,4,7,5)       =         1.050876	      60.210771
	 D(3,4,7,6)       =         3.137839	     179.784953
	 D(3,4,7,10)      =        -1.046522	     -59.961272
	 D(4,7,10,8)      =        -1.041841	     -59.693104
	 D(4,7,10,9)      =         1.041329	      59.663775
	 D(4,7,10,14)     =        -3.141447	    -179.991669
	 D(5,7,10,8)      =        -3.140869	    -179.958519
	 D(5,7,10,9)      =        -1.057698	     -60.601640
	 D(5,7,10,14)     =         1.042711	      59.742916
	 D(6,7,10,8)      =         1.059205	      60.687969
	 D(6,7,10,9)      =        -3.140810	    -179.955152
	 D(6,7,10,14)     =        -1.040401	     -59.610596
	 D(7,10,14,11)    =         3.141444	     179.991472
	 D(7,10,14,12)    =         1.045636	      59.910510
	 D(7,10,14,13)    =        -1.046629	     -59.967416
	 D(8,10,14,11)    =         1.043540	      59.790411
	 D(8,10,14,12)    =        -1.052269	     -60.290551
	 D(8,10,14,13)    =         3.138652	     179.831523
	 D(9,10,14,11)    =        -1.043040	     -59.761801
	 D(9,10,14,12)    =        -3.138848	    -179.842763
	 D(9,10,14,13)    =         1.052072	      60.279311

	Current energy   :      -157.8427149075

	Energy change for the previous step:
		Projected    :        -0.0055411216
		Actual       :        -0.0041373188

	Performing BFGS update.
	Previous computed or guess Hessian on step 1.
	Steps to be used in Hessian update: 1
	Adding user-defined constraint: Fragment 1; Coordinate 49:
		Value =    -3.141447; Fixed value    =    -3.141580
		Force =    -0.000070; Force constant =     0.525000
	Removing off-diagonal coupling between coordinate 49 and others.
	Taking RFO optimization step.
	Going to follow RFO solution 1.
	Using RFO vector 1.

	Determining step-restricting scale parameter for RS-RFO.
	Maximum step size allowed    0.10000

	 Iter      |step|        alpha        rfo_root  
	------------------------------------------------
	    0     0.16620       1.00000           1
	    1     0.12717       9.87624           1
	    2     0.10758      19.94992           1
	    3     0.10088      25.26649           1
	    4     0.10001      26.05525           1
	    5     0.10000      26.06850           1
	------------------------------------------------
	Norm of target step-size    0.10000
	Projected energy change by RFO approximation:        -0.0019084175

	Back-transformation to cartesian coordinates...
	Successfully converged to displaced geometry.

	--- Internal Coordinate Step in ANG or DEG, aJ/ANG or AJ/DEG ---
	 ---------------------------------------------------------------------------
	   Coordinate                Previous        Force       Change         New 
	   ----------                --------       ------       ------       ------
	    1 R(1,4)          =      1.083579     0.054113     0.008352     1.091931
	    2 R(2,4)          =      1.084498     0.050911     0.007584     1.092082
	    3 R(3,4)          =      1.083427     0.054978     0.008472     1.091899
	    4 R(4,7)          =      1.538716    -0.027670    -0.007581     1.531134
	    5 R(5,7)          =      1.084887     0.058039     0.009041     1.093927
	    6 R(6,7)          =      1.084636     0.059243     0.009209     1.093845
	    7 R(7,10)         =      1.536379    -0.028372    -0.006857     1.529522
	    8 R(8,10)         =      1.084644     0.059445     0.009232     1.093876
	    9 R(9,10)         =      1.084614     0.059468     0.009237     1.093851
	   10 R(10,14)        =      1.538254    -0.025740    -0.007200     1.531055
	   11 R(11,14)        =      1.084142     0.052982     0.007868     1.092010
	   12 R(12,14)        =      1.083577     0.054196     0.008361     1.091938
	   13 R(13,14)        =      1.083795     0.053043     0.008201     1.091996
	   14 B(1,4,2)        =    108.962855    -0.000200    -0.727901   108.234954
	   15 B(1,4,3)        =    109.092131    -0.000181    -0.776399   108.315731
	   16 B(1,4,7)        =    109.777628     0.000159     0.649142   110.426770
	   17 B(2,4,3)        =    108.929008    -0.000195    -0.708414   108.220594
	   18 B(2,4,7)        =    110.270112     0.000253     0.865896   111.136008
	   19 B(3,4,7)        =    109.783322     0.000153     0.632237   110.415558
	   20 B(4,7,5)        =    109.243946    -0.000053     0.056186   109.300132
	   21 B(4,7,6)        =    109.324988    -0.000058     0.020960   109.345949
	   22 B(4,7,10)       =    110.744372     0.000388     1.254554   111.998926
	   23 B(5,7,6)        =    109.308095    -0.000083    -1.035144   108.272952
	   24 B(5,7,10)       =    109.087474    -0.000099    -0.173624   108.913850
	   25 B(6,7,10)       =    109.111448    -0.000099    -0.177292   108.934156
	   26 B(7,10,8)       =    109.099767    -0.000100    -0.175341   108.924426
	   27 B(7,10,9)       =    109.123833    -0.000102    -0.190032   108.933802
	   28 B(7,10,14)      =    110.746665     0.000388     1.253811   112.000476
	   29 B(8,10,9)       =    109.298820    -0.000082    -1.031955   108.266865
	   30 B(8,10,14)      =    109.263223    -0.000053     0.051967   109.315190
	   31 B(9,10,14)      =    109.287910    -0.000056     0.037068   109.324978
	   32 B(10,14,11)     =    110.287073     0.000253     0.857242   111.144315
	   33 B(10,14,12)     =    109.794028     0.000154     0.632014   110.426042
	   34 B(10,14,13)     =    109.800274     0.000152     0.626887   110.427160
	   35 B(11,14,12)     =    108.961891    -0.000198    -0.723779   108.238112
	   36 B(11,14,13)     =    108.926504    -0.000195    -0.706298   108.220207
	   37 B(12,14,13)     =    109.044232    -0.000177    -0.751427   108.292805
	   38 D(1,4,7,5)      =   -179.873064     0.000016     0.537036  -179.336028
	   39 D(1,4,7,6)      =    -60.298882    -0.000022    -0.674650   -60.973533
	   40 D(1,4,7,10)     =     59.954893    -0.000003    -0.081322    59.873571
	   41 D(2,4,7,5)      =    -59.812006     0.000019     0.606503   -59.205503
	   42 D(2,4,7,6)      =     59.762176    -0.000019    -0.605184    59.156992
	   43 D(2,4,7,10)     =   -179.984049    -0.000000    -0.011855  -179.995904
	   44 D(3,4,7,5)      =     60.210771     0.000023     0.688780    60.899551
	   45 D(3,4,7,6)      =    179.784953    -0.000016    -0.522907   179.262046
	   46 D(3,4,7,10)     =    -59.961272     0.000003     0.070422   -59.890851
	   47 D(4,7,10,8)     =    -59.693104     0.000026     0.742282   -58.950822
	   48 D(4,7,10,9)     =     59.663775    -0.000025    -0.715333    58.948443
	   49 D(4,7,10,14)    =   -179.991669    -0.000000    -0.000195  -179.991864
	   50 D(5,7,10,8)     =   -179.958519    -0.000000    -0.006274  -179.964793
	   51 D(5,7,10,9)     =    -60.601640    -0.000050    -1.463889   -62.065529
	   52 D(5,7,10,14)    =     59.742916    -0.000026    -0.748751    58.994165
	   53 D(6,7,10,8)     =     60.687969     0.000050     1.446488    62.134457
	   54 D(6,7,10,9)     =   -179.955152    -0.000000    -0.011127  -179.966279
	   55 D(6,7,10,14)    =    -59.610596     0.000024     0.704011   -58.906585
	   56 D(7,10,14,11)   =    179.991472     0.000000     0.003703   179.995174
	   57 D(7,10,14,12)   =     59.910510    -0.000003    -0.054787    59.855723
	   58 D(7,10,14,13)   =    -59.967416     0.000003     0.080287   -59.887130
	   59 D(8,10,14,11)   =     59.790411    -0.000019    -0.610183    59.180228
	   60 D(8,10,14,12)   =    -60.290551    -0.000022    -0.668673   -60.959224
	   61 D(8,10,14,13)   =    179.831523    -0.000016    -0.533599   179.297924
	   62 D(9,10,14,11)   =    -59.761801     0.000019     0.590378   -59.171423
	   63 D(9,10,14,12)   =   -179.842763     0.000016     0.531888  -179.310875
	   64 D(9,10,14,13)   =     60.279311     0.000022     0.666962    60.946273
	 ---------------------------------------------------------------------------
	 Forces used to impose fixed constraints are not included.
	  Forces zeroed: 49 

  ==> Convergence Check <==

  Measures of convergence in internal coordinates in au.
  Criteria marked as inactive (o), active & met (*), and active & unmet ( ).
  ---------------------------------------------------------------------------------------------
   Step     Total Energy     Delta E     MAX Force     RMS Force      MAX Disp      RMS Disp   
  ---------------------------------------------------------------------------------------------
    Convergence Criteria    1.00e-06 *    3.00e-04 *             o    1.20e-03 *             o
  ---------------------------------------------------------------------------------------------
      2    -157.84271491   -4.14e-03      7.22e-03      3.23e-03 o    2.55e-02      1.25e-02 o  ~
  ---------------------------------------------------------------------------------------------

	Writing optimization data to binary file.
	Structure for next step:
	Cartesian Geometry (in Angstrom)
	    H    -2.3566898731   0.0524156715   0.3143012900
	    H    -2.2102208261   1.7006681409  -0.3126387881
	    H    -1.9114809837   0.3200114492  -1.3780620789
	    C    -1.7870627203   0.6950229841  -0.3601569639
	    H     0.2441228084   1.3576202863  -0.6491148560
	    H    -0.2008316286   1.0905405552   1.0462386573
	    C    -0.3064656868   0.7000446092   0.0299455986
	    H    -0.2442599018  -1.3578146118   0.6484895945
	    H     0.2014809142  -1.0902119734  -1.0464648731
	    C     0.3065800659  -0.6999620077  -0.0300160694
	    H     2.2102927307  -1.7005459455   0.3127853924
	    H     1.9116117055  -0.3194968589   1.3779964308
	    H     2.3568626695  -0.0525318075  -0.3142756003
	    C     1.7870510961  -0.6950120247   0.3602528962
			--------------------------
			 OPTKING Finished Execution 
			--------------------------

    Structure for next step:
    Molecular point group: c1
    Full point group: C1

    Geometry (in Angstrom), charge = 0, multiplicity = 1:

    H           -2.356726506783     0.052384975622     0.314308954143
    H           -2.210257459780     1.700637445060    -0.312631123917
    H           -1.911517617359     0.319980753313    -1.378054414714
    C           -1.787099354005     0.694992288215    -0.360149299718
    H            0.244086174787     1.357589590487    -0.649107191848
    H           -0.200868262207     1.090509859325     1.046246321494
    C           -0.306502320452     0.700013913354     0.029953262734
    H           -0.244296535477    -1.357845307679     0.648497258635
    H            0.201444280518    -1.090242669201    -1.046457208894
    C            0.306543432258    -0.699992703514    -0.030008405233
    H            2.210256097081    -1.700576641360     0.312793056611
    H            1.911575071814    -0.319527554745     1.378004094991
    H            2.356826035838    -0.052562503307    -0.314267936151
    C            1.787014462410    -0.695042720573     0.360260560405

gradient() will perform analytic gradient computation.
    SCF Algorithm Type (re)set to DF.

*** tstart() called on lski1497
*** at Thu Feb 16 16:27:06 2017


         ---------------------------------------------------------
                                   SCF
            by Justin Turney, Rob Parrish, and Andy Simmonett
                              RHF Reference
                        1 Threads,   1000 MiB Core
         ---------------------------------------------------------

  ==> Geometry <==

    Molecular point group: c1
    Full point group: C1

    Geometry (in Angstrom), charge = 0, multiplicity = 1:

       Center              X                  Y                   Z               Mass       
    ------------   -----------------  -----------------  -----------------  -----------------
           H         -2.356726506783     0.052384975622     0.314308954143     1.007825032070
           H         -2.210257459780     1.700637445060    -0.312631123917     1.007825032070
           H         -1.911517617359     0.319980753313    -1.378054414714     1.007825032070
           C         -1.787099354005     0.694992288215    -0.360149299718    12.000000000000
           H          0.244086174787     1.357589590487    -0.649107191848     1.007825032070
           H         -0.200868262207     1.090509859325     1.046246321494     1.007825032070
           C         -0.306502320452     0.700013913354     0.029953262734    12.000000000000
           H         -0.244296535477    -1.357845307679     0.648497258635     1.007825032070
           H          0.201444280518    -1.090242669201    -1.046457208894     1.007825032070
           C          0.306543432258    -0.699992703514    -0.030008405233    12.000000000000
           H          2.210256097081    -1.700576641360     0.312793056611     1.007825032070
           H          1.911575071814    -0.319527554745     1.378004094991     1.007825032070
           H          2.356826035838    -0.052562503307    -0.314267936151     1.007825032070
           C          1.787014462410    -0.695042720573     0.360260560405    12.000000000000

  Running in c1 symmetry.

  Rotational constants: A =      0.77753  B =      0.12209  C =      0.11460 [cm^-1]
  Rotational constants: A =  23309.63500  B =   3660.14195  C =   3435.49138 [MHz]
  Nuclear repulsion =  130.811397213670460

  Charge       = 0
  Multiplicity = 1
  Electrons    = 34
  Nalpha       = 17
  Nbeta        = 17

  ==> Algorithm <==

  SCF Algorithm Type is DF.
  DIIS enabled.
  MOM disabled.
  Fractional occupation disabled.
  Guess Type is READ.
  Energy threshold   = 1.00e-10
  Density threshold  = 1.00e-10
  Integral threshold = 0.00e+00

  ==> Primary Basis <==

  Basis Set: 6-31G(D)
    Number of shells: 44
    Number of basis function: 80
    Number of Cartesian functions: 80
    Spherical Harmonics?: false
    Max angular momentum: 2

  ==> Pre-Iterations <==

   -------------------------------------------------------
    Irrep   Nso     Nmo     Nalpha   Nbeta   Ndocc  Nsocc
   -------------------------------------------------------
     A         80      80       0       0       0       0
   -------------------------------------------------------
    Total      80      80      17      17      17       0
   -------------------------------------------------------

  ==> Integral Setup <==

  ==> DFJK: Density-Fitted J/K Matrices <==

    J tasked:                  Yes
    K tasked:                  Yes
    wK tasked:                  No
    OpenMP threads:              1
    Integrals threads:           1
    Memory (MB):               715
    Algorithm:                Core
    Integral Cache:           NONE
    Schwarz Cutoff:          1E-12
    Fitting Condition:       1E-12

   => Auxiliary Basis Set <=

  Basis Set: 
    Number of shells: 186
    Number of basis function: 574
    Number of Cartesian functions: 574
    Spherical Harmonics?: false
    Max angular momentum: 3

  Minimum eigenvalue in the overlap matrix is 4.5749543217E-03.
  Using Symmetric Orthogonalization.
  SCF Guess was Projection but file not found.
  Switching over to SAD guess.

  SCF Guess: Superposition of Atomic Densities via on-the-fly atomic UHF.

  ==> Iterations <==

                           Total Energy        Delta E     RMS |[F,P]|

   @DF-RHF iter   0:  -158.85572307865809   -1.58856e+02   4.63755e-02 
   @DF-RHF iter   1:  -157.20852257116749    1.64720e+00   3.91659e-03 
   @DF-RHF iter   2:  -157.28908082894944   -8.05583e-02   1.11674e-03 DIIS
   @DF-RHF iter   3:  -157.29726375252861   -8.18292e-03   2.77035e-04 DIIS
   @DF-RHF iter   4:  -157.29768801315319   -4.24261e-04   7.67120e-05 DIIS
   @DF-RHF iter   5:  -157.29772728712160   -3.92740e-05   1.23048e-05 DIIS
   @DF-RHF iter   6:  -157.29772849687126   -1.20975e-06   1.52308e-06 DIIS
   @DF-RHF iter   7:  -157.29772851396766   -1.70964e-08   3.24769e-07 DIIS
   @DF-RHF iter   8:  -157.29772851450630   -5.38648e-10   1.06313e-07 DIIS
   @DF-RHF iter   9:  -157.29772851456826   -6.19593e-11   2.14790e-08 DIIS
   @DF-RHF iter  10:  -157.29772851457213   -3.86535e-12   3.45815e-09 DIIS
   @DF-RHF iter  11:  -157.29772851457219   -5.68434e-14   6.02354e-10 DIIS
   @DF-RHF iter  12:  -157.29772851457224   -5.68434e-14   1.26963e-10 DIIS
   @DF-RHF iter  13:  -157.29772851457230   -5.68434e-14   2.10247e-11 DIIS

  ==> Post-Iterations <==

    Orbital Energies (a.u.)
    -----------------------

    Doubly Occupied:                                                      

       1A    -11.215277     2A    -11.214682     3A    -11.209430  
       4A    -11.209423     5A     -1.069661     6A     -0.978654  
       7A     -0.858737     8A     -0.785773     9A     -0.641119  
      10A     -0.582854    11A     -0.572526    12A     -0.568514  
      13A     -0.512482    14A     -0.496434    15A     -0.465500  
      16A     -0.464847    17A     -0.453052  

    Virtual:                                                              

      18A      0.231146    19A      0.261275    20A      0.282054  
      21A      0.293515    22A      0.320454    23A      0.336719  
      24A      0.337756    25A      0.338830    26A      0.353196  
      27A      0.354278    28A      0.419455    29A      0.421468  
      30A      0.439817    31A      0.700735    32A      0.702014  
      33A      0.753196    34A      0.755213    35A      0.762110  
      36A      0.849860    37A      0.868241    38A      0.930711  
      39A      0.961475    40A      1.025088    41A      1.061730  
      42A      1.111319    43A      1.132892    44A      1.167217  
      45A      1.184502    46A      1.190869    47A      1.201448  
      48A      1.203235    49A      1.227961    50A      1.229922  
      51A      1.237610    52A      1.269097    53A      1.289675  
      54A      1.620690    55A      1.697174    56A      1.706402  
      57A      1.725266    58A      1.916608    59A      1.930789  
      60A      2.153618    61A      2.196792    62A      2.216240  
      63A      2.280432    64A      2.289300    65A      2.339021  
      66A      2.389679    67A      2.502628    68A      2.595177  
      69A      2.603746    70A      2.638773    71A      2.728729  
      72A      2.741499    73A      2.750475    74A      2.893057  
      75A      3.023743    76A      3.109838    77A      4.565196  
      78A      4.673415    79A      4.792127    80A      4.942152  

    Final Occupation by Irrep:
              A 
    DOCC [    17 ]

  Energy converged.

  @DF-RHF Final Energy:  -157.29772851457230

   => Energetics <=

    Nuclear Repulsion Energy =            130.8113972136704604
    One-Electron Energy =                -469.6203288718921840
    Two-Electron Energy =                 181.5112031436493965
    DFT Exchange-Correlation Energy =       0.0000000000000000
    Empirical Dispersion Energy =           0.0000000000000000
    PCM Polarization Energy =               0.0000000000000000
    EFP Energy =                            0.0000000000000000
    Total Energy =                       -157.2977285145722988


  Saving occupied orbitals to File 180.

*** tstop() called on lski1497 at Thu Feb 16 16:27:13 2017
Module time:
	user time   =       5.42 seconds =       0.09 minutes
	system time =       0.15 seconds =       0.00 minutes
	total time  =          7 seconds =       0.12 minutes
Total time:
	user time   =      56.69 seconds =       0.94 minutes
	system time =       1.57 seconds =       0.03 minutes
	total time  =         67 seconds =       1.12 minutes


Properties will be evaluated at   0.000000,   0.000000,   0.000000 Bohr

Properties computed using the SCF density matrix

  Nuclear Dipole Moment: (a.u.)
     X:     0.0005      Y:     0.0003      Z:    -0.0006

  Electronic Dipole Moment: (a.u.)
     X:    -0.0005      Y:    -0.0003      Z:     0.0006

  Dipole Moment: (a.u.)
     X:     0.0000      Y:    -0.0000      Z:    -0.0001     Total:     0.0001

  Dipole Moment: (Debye)
     X:     0.0000      Y:    -0.0000      Z:    -0.0002     Total:     0.0002


  //>>>>>>>>>>>>>>>>>>>>>>>>>>>>>>>>>>>//
  //               DFMP2               //
  //<<<<<<<<<<<<<<<<<<<<<<<<<<<<<<<<<<<//


*** tstart() called on lski1497
*** at Thu Feb 16 16:27:13 2017


*** tstop() called on lski1497 at Thu Feb 16 16:27:13 2017
Module time:
	user time   =       0.63 seconds =       0.01 minutes
	system time =       0.01 seconds =       0.00 minutes
	total time  =          0 seconds =       0.00 minutes
Total time:
	user time   =      57.34 seconds =       0.96 minutes
	system time =       1.58 seconds =       0.03 minutes
	total time  =         67 seconds =       1.12 minutes
	 --------------------------------------------------------
	                          DF-MP2                         
	      2nd-Order Density-Fitted Moller-Plesset Theory     
	              RMP2 Wavefunction,   1 Threads             
	                                                         
	        Rob Parrish, Justin Turney, Andy Simmonett,      
	           Ed Hohenstein, and C. David Sherrill          
	 --------------------------------------------------------

   => Auxiliary Basis Set <=

  Basis Set: 
    Number of shells: 132
    Number of basis function: 364
    Number of Cartesian functions: 414
    Spherical Harmonics?: true
    Max angular momentum: 3

	 --------------------------------------------------------
	                 NBF =    80, NAUX =   364
	 --------------------------------------------------------
	   CLASS    FOCC     OCC    AOCC    AVIR     VIR    FVIR
	   PAIRS       0      17      17      63      63       0
	 --------------------------------------------------------

DGAS Warning! /src/lib/libfock/apps.cc:80 is not currently checking restricted

         ------------------------------------------------------------
                                     CPHF                           
                                  Rob Parrish                       
         ------------------------------------------------------------

  ==> Geometry <==

    Molecular point group: c1
    Full point group: C1

    Geometry (in Angstrom), charge = 0, multiplicity = 1:

       Center              X                  Y                   Z               Mass       
    ------------   -----------------  -----------------  -----------------  -----------------
           H         -2.356726506783     0.052384975622     0.314308954143     1.007825032070
           H         -2.210257459780     1.700637445060    -0.312631123917     1.007825032070
           H         -1.911517617359     0.319980753313    -1.378054414714     1.007825032070
           C         -1.787099354005     0.694992288215    -0.360149299718    12.000000000000
           H          0.244086174787     1.357589590487    -0.649107191848     1.007825032070
           H         -0.200868262207     1.090509859325     1.046246321494     1.007825032070
           C         -0.306502320452     0.700013913354     0.029953262734    12.000000000000
           H         -0.244296535477    -1.357845307679     0.648497258635     1.007825032070
           H          0.201444280518    -1.090242669201    -1.046457208894     1.007825032070
           C          0.306543432258    -0.699992703514    -0.030008405233    12.000000000000
           H          2.210256097081    -1.700576641360     0.312793056611     1.007825032070
           H          1.911575071814    -0.319527554745     1.378004094991     1.007825032070
           H          2.356826035838    -0.052562503307    -0.314267936151     1.007825032070
           C          1.787014462410    -0.695042720573     0.360260560405    12.000000000000

  Nuclear repulsion =  130.811397213670460
  Reference energy  = -157.297728514572299

  ==> Basis Set <==

  Basis Set: 6-31G(D)
    Number of shells: 44
    Number of basis function: 80
    Number of Cartesian functions: 80
    Spherical Harmonics?: false
    Max angular momentum: 2

  ==> CGRSolver (by Rob Parrish) <==

   Number of roots    =         1
   Preconditioning    =    JACOBI
   Convergence cutoff =     1E-06
   Maximum iterations =       100

  ==> CPHFRHamiltonian (by Rob Parrish) <== 

  ==> DFJK: Density-Fitted J/K Matrices <==

    J tasked:                  Yes
    K tasked:                  Yes
    wK tasked:                  No
[...]
    wK tasked:                  No
    OpenMP threads:              1
    Integrals threads:           1
    Memory (MB):               715
    Algorithm:                Core
    Integral Cache:           NONE
    Schwarz Cutoff:          1E-12
    Fitting Condition:       1E-12

   => Auxiliary Basis Set <=

  Basis Set: 
    Number of shells: 186
    Number of basis function: 574
    Number of Cartesian functions: 574
    Spherical Harmonics?: false
    Max angular momentum: 3

  ==> CPHF Iterations <==

  => Iterations <=

             Iter  Converged  Remaining    Residual
  CGR           1          0          1   7.501E-02
  CGR           2          0          1   9.314E-03
  CGR           3          0          1   2.938E-03
  CGR           4          0          1   3.556E-04
  CGR           5          0          1   5.906E-05
  CGR           6          0          1   9.316E-06
  CGR           7          0          1   1.843E-06
  CGR           8          1          0   2.458E-07

    CGRSolver converged.

  ==> DFCorrGrad: Density-Fitted Correlated Gradients <==

    OpenMP threads:              1
    Integrals threads:           1
    Memory (MB):               715
    Schwarz Cutoff:          0E+00
    Fitting Condition:       1E-12

   => Auxiliary Basis Set <=

  Basis Set: 
    Number of shells: 186
    Number of basis function: 510
    Number of Cartesian functions: 574
    Spherical Harmonics?: true
    Max angular momentum: 3

	-----------------------------------------------------------
	 ==================> DF-MP2 Energies <==================== 
	-----------------------------------------------------------
	 Reference Energy          =    -157.2978879055916650 [Eh]
	 Singles Energy            =      -0.0000000000000000 [Eh]
	 Same-Spin Energy          =      -0.1244475942274912 [Eh]
	 Opposite-Spin Energy      =      -0.4221956770219917 [Eh]
	 Correlation Energy        =      -0.5466432712494829 [Eh]
	 Total Energy              =    -157.8445311768411443 [Eh]
	-----------------------------------------------------------
	 ================> DF-SCS-MP2 Energies <================== 
	-----------------------------------------------------------
	 SCS Same-Spin Scale       =       0.3333333333333333 [-]
	 SCS Opposite-Spin Scale   =       1.2000000000000000 [-]
	 SCS Same-Spin Energy      =      -0.0414825314091637 [Eh]
	 SCS Opposite-Spin Energy  =      -0.5066348124263901 [Eh]
	 SCS Correlation Energy    =      -0.5481173438355538 [Eh]
	 SCS Total Energy          =    -157.8460052494272077 [Eh]
	-----------------------------------------------------------


  -Total Gradient:
     Atom            X                  Y                   Z
    ------   -----------------  -----------------  -----------------
       1       -0.000037007179    -0.000043642691     0.000049837870
       2       -0.000005655365     0.000074273480     0.000010143453
       3       -0.000006115821    -0.000026060098    -0.000074936492
       4        0.000136622037    -0.000066349450     0.000025864880
       5        0.000018576245    -0.000001397689    -0.000040677685
       6       -0.000000282566    -0.000011791122     0.000044047219
       7       -0.000005128274     0.000018364372     0.000006411976
       8       -0.000021152399     0.000000305066     0.000040810234
       9        0.000002577724     0.000011677653    -0.000045235932
      10        0.000001949480    -0.000017085197    -0.000004119687
      11        0.000007014086    -0.000078336737    -0.000010256570
      12        0.000004949759     0.000024838295     0.000072560953
      13        0.000035439797     0.000042843312    -0.000049231176
      14       -0.000131787524     0.000072360806    -0.000025219043


			-----------------------------------------
			 OPTKING 2.0: for geometry optimizations 
			  - R.A. King,  Bethel University        
			-----------------------------------------

	Previous internal coordinate definitions found.
	---Fragment 1 Geometry and Gradient---
	 H          -4.4723673037        0.1027240765        0.5870734286
	 H          -4.1831595688        3.2161803927       -0.5924027998
	 H          -3.6327529930        0.6065410616       -2.6061817242
	 C          -3.3773676552        1.3150570417       -0.6804855573
	 H           0.4614178992        2.5805253248       -1.2063903777
	 H          -0.3724395648        2.0800036350        1.9652622820
	 C          -0.5911342948        1.3130396147        0.0517913327
	 H          -0.4614875902       -2.5805606326        1.2062431786
	 H           0.3725689580       -2.0799388954       -1.9653518427
	 C           0.5911415384       -1.3130331073       -0.0518403396
	 H           4.1831737841       -3.2161859876        0.5923758800
	 H           3.6326656606       -0.6066530576        2.6062741671
	 H           4.4723715372       -0.1026506616       -0.5869285882
	 C           3.3773611827       -1.3150623107        0.6805367811
	            -0.0000370072       -0.0000436427        0.0000498379
	            -0.0000056554        0.0000742735        0.0000101435
	            -0.0000061158       -0.0000260601       -0.0000749365
	             0.0001366220       -0.0000663495        0.0000258649
	             0.0000185762       -0.0000013977       -0.0000406777
	            -0.0000002826       -0.0000117911        0.0000440472
	            -0.0000051283        0.0000183644        0.0000064120
	            -0.0000211524        0.0000003051        0.0000408102
	             0.0000025777        0.0000116777       -0.0000452359
	             0.0000019495       -0.0000170852       -0.0000041197
	             0.0000070141       -0.0000783367       -0.0000102566
	             0.0000049498        0.0000248383        0.0000725610
	             0.0000354398        0.0000428433       -0.0000492312
	            -0.0001317875        0.0000723608       -0.0000252190

	---Fragment 1 Intrafragment Coordinates---
	 - Coordinate -           - BOHR/RAD -       - ANG/DEG -
	 R(1,4)           =         2.067724	       1.094192
	 R(2,4)           =         2.066719	       1.093661
	 R(3,4)           =         2.067734	       1.094198
	 R(4,7)           =         2.880856	       1.524483
	 R(5,7)           =         2.073019	       1.096994
	 R(6,7)           =         2.073025	       1.096998
	 R(7,10)          =         2.881800	       1.524983
	 R(8,10)          =         2.073024	       1.096997
	 R(9,10)          =         2.073028	       1.096999
	 R(10,14)         =         2.880868	       1.524490
	 R(11,14)         =         2.066731	       1.093667
	 R(12,14)         =         2.067725	       1.094193
	 R(13,14)         =         2.067718	       1.094189
	 B(1,4,2)         =         1.882557	     107.862573
	 B(1,4,3)         =         1.880318	     107.734263
	 B(1,4,7)         =         1.934717	     110.851131
	 B(2,4,3)         =         1.882557	     107.862581
	 B(2,4,7)         =         1.946464	     111.524200
	 B(3,4,7)         =         1.934716	     110.851047
	 B(4,7,5)         =         1.913845	     109.655226
	 B(4,7,6)         =         1.913882	     109.657370
	 B(4,7,10)        =         1.969559	     112.847419
	 B(5,7,6)         =         1.855054	     106.286775
	 B(5,7,10)        =         1.903961	     109.088904
	 B(6,7,10)        =         1.903982	     109.090133
	 B(7,10,8)        =         1.903965	     109.089150
	 B(7,10,9)        =         1.903981	     109.090061
	 B(7,10,14)       =         1.969558	     112.847349
	 B(8,10,9)        =         1.855057	     106.286941
	 B(8,10,14)       =         1.913866	     109.656421
	 B(9,10,14)       =         1.913857	     109.655921
	 B(10,14,11)      =         1.946461	     111.524006
	 B(10,14,12)      =         1.934713	     110.850899
	 B(10,14,13)      =         1.934706	     110.850499
	 B(11,14,12)      =         1.882559	     107.862709
	 B(11,14,13)      =         1.882563	     107.862911
	 B(12,14,13)      =         1.880327	     107.734826
	 D(1,4,7,5)       =        -3.113222	    -178.374470
	 D(1,4,7,6)       =        -1.082578	     -62.027129
	 D(1,4,7,10)      =         1.043720	      59.800758
	 D(2,4,7,5)       =        -1.015292	     -58.171943
	 D(2,4,7,6)       =         1.015352	      58.175399
	 D(2,4,7,10)      =        -3.141535	    -179.996715
	 D(3,4,7,5)       =         1.082637	      62.030538
	 D(3,4,7,6)       =         3.113281	     178.377879
	 D(3,4,7,10)      =        -1.043606	     -59.794234
	 D(4,7,10,8)      =        -1.009717	     -57.852531
	 D(4,7,10,9)      =         1.009793	      57.856880
	 D(4,7,10,14)     =        -3.141555	    -179.997819
	 D(5,7,10,8)      =        -3.141526	    -179.996164
	 D(5,7,10,9)      =        -1.122016	     -64.286754
	 D(5,7,10,14)     =         1.009822	      57.858548
	 D(6,7,10,8)      =         1.122155	      64.294720
	 D(6,7,10,9)      =        -3.141521	    -179.995870
	 D(6,7,10,14)     =        -1.009683	     -57.850569
	 D(7,10,14,11)    =         3.141576	     179.999041
	 D(7,10,14,12)    =         1.043648	      59.796628
	 D(7,10,14,13)    =        -1.043682	     -59.798561
	 D(8,10,14,11)    =         1.015313	      58.173143
	 D(8,10,14,12)    =        -1.082615	     -62.029270
	 D(8,10,14,13)    =         3.113240	     178.375541
	 D(9,10,14,11)    =        -1.015332	     -58.174253
	 D(9,10,14,12)    =        -3.113260	    -178.376666
	 D(9,10,14,13)    =         1.082595	      62.028145

	Current energy   :      -157.8445311768

	Energy change for the previous step:
		Projected    :        -0.0000295187
		Actual       :        -0.0000072574

	Performing BFGS update.
	Previous computed or guess Hessian on step 1.
	Steps to be used in Hessian update: 4 3
	Adding user-defined constraint: Fragment 1; Coordinate 49:
		Value =    -3.141555; Fixed value    =    -3.141580
		Force =    -0.000015; Force constant =     0.600000
	Removing off-diagonal coupling between coordinate 49 and others.
	Taking RFO optimization step.
	Going to follow RFO solution 1.
	Using RFO vector 1.
	Norm of target step-size    0.00159
	Projected energy change by RFO approximation:        -0.0000003987

	Back-transformation to cartesian coordinates...
	Could not converge backtransformation.
	Using first guess instead.

	--- Internal Coordinate Step in ANG or DEG, aJ/ANG or AJ/DEG ---
	 ---------------------------------------------------------------------------
	   Coordinate                Previous        Force       Change         New 
	   ----------                --------       ------       ------       ------
	    1 R(1,4)          =      1.094192    -0.000624    -0.000120     1.094072
	    2 R(2,4)          =      1.093661    -0.000585    -0.000115     1.093546
	    3 R(3,4)          =      1.094198    -0.000654    -0.000126     1.094072
	    4 R(4,7)          =      1.524483     0.000724     0.000145     1.524628
	    5 R(5,7)          =      1.096994    -0.000274    -0.000054     1.096940
	    6 R(6,7)          =      1.096998    -0.000299    -0.000058     1.096940
	    7 R(7,10)         =      1.524983     0.000759     0.000136     1.525119
	    8 R(8,10)         =      1.096997    -0.000291    -0.000057     1.096940
	    9 R(9,10)         =      1.096999    -0.000306    -0.000059     1.096940
	   10 R(10,14)        =      1.524490     0.000699     0.000138     1.524628
	   11 R(11,14)        =      1.093667    -0.000620    -0.000121     1.093546
	   12 R(12,14)        =      1.094193    -0.000632    -0.000122     1.094072
	   13 R(13,14)        =      1.094189    -0.000610    -0.000118     1.094071
	   14 B(1,4,2)        =    107.862573    -0.000001    -0.002110   107.860463
	   15 B(1,4,3)        =    107.734263    -0.000000    -0.003556   107.730706
	   16 B(1,4,7)        =    110.851131    -0.000000    -0.002433   110.848699
	   17 B(2,4,3)        =    107.862581    -0.000001    -0.002192   107.860390
	   18 B(2,4,7)        =    111.524200     0.000003     0.012444   111.536643
	   19 B(3,4,7)        =    110.851047    -0.000000    -0.002650   110.848396
	   20 B(4,7,5)        =    109.655226    -0.000002    -0.005275   109.649951
	   21 B(4,7,6)        =    109.657370    -0.000002    -0.007034   109.650336
	   22 B(4,7,10)       =    112.847419     0.000006     0.023166   112.870585
	   23 B(5,7,6)        =    106.286775    -0.000000    -0.018731   106.268044
	   24 B(5,7,10)       =    109.088904    -0.000001     0.003423   109.092327
	   25 B(6,7,10)       =    109.090133    -0.000001     0.001987   109.092120
	   26 B(7,10,8)       =    109.089150    -0.000001     0.003188   109.092338
	   27 B(7,10,9)       =    109.090061    -0.000001     0.002140   109.092201
	   28 B(7,10,14)      =    112.847349     0.000006     0.023181   112.870529
	   29 B(8,10,9)       =    106.286941    -0.000000    -0.018868   106.268073
	   30 B(8,10,14)      =    109.656421    -0.000002    -0.006117   109.650305
	   31 B(9,10,14)      =    109.655921    -0.000002    -0.005998   109.649923
	   32 B(10,14,11)     =    111.524006     0.000003     0.012521   111.536527
	   33 B(10,14,12)     =    110.850899    -0.000000    -0.002361   110.848538
	   34 B(10,14,13)     =    110.850499    -0.000000    -0.002047   110.848452
	   35 B(11,14,12)     =    107.862709    -0.000001    -0.002260   107.860449
	   36 B(11,14,13)     =    107.862911    -0.000001    -0.002429   107.860483
	   37 B(12,14,13)     =    107.734826    -0.000000    -0.003966   107.730861
	   38 D(1,4,7,5)      =   -178.374470     0.000000     0.008938  -178.365533
	   39 D(1,4,7,6)      =    -62.027129    -0.000000    -0.020763   -62.047892
	   40 D(1,4,7,10)     =     59.800758    -0.000000    -0.007464    59.793294
	   41 D(2,4,7,5)      =    -58.171943     0.000000     0.012956   -58.158987
	   42 D(2,4,7,6)      =     58.175399    -0.000000    -0.016744    58.158654
	   43 D(2,4,7,10)     =   -179.996715     0.000000    -0.003285  -180.000000
	   44 D(3,4,7,5)      =     62.030538     0.000000     0.016724    62.047262
	   45 D(3,4,7,6)      =    178.377879    -0.000000    -0.012977   178.364902
	   46 D(3,4,7,10)     =    -59.794234     0.000000     0.000322   -59.793912
	   47 D(4,7,10,8)     =    -57.852531     0.000000     0.009255   -57.843275
	   48 D(4,7,10,9)     =     57.856880    -0.000000    -0.010318    57.846561
	   49 D(4,7,10,14)    =   -179.997819    -0.000000    -0.000831  -179.998650
	   50 D(5,7,10,8)     =   -179.996164    -0.000000    -0.002064  -179.998228
	   51 D(5,7,10,9)     =    -64.286754    -0.000000    -0.021638   -64.308391
	   52 D(5,7,10,14)    =     57.858548    -0.000000    -0.012150    57.846398
	   53 D(6,7,10,8)     =     64.294720     0.000000     0.017301    64.312021
	   54 D(6,7,10,9)     =   -179.995870    -0.000000    -0.002273  -179.998143
	   55 D(6,7,10,14)    =    -57.850569     0.000000     0.007215   -57.843354
	   56 D(7,10,14,11)   =    179.999041     0.000000     0.000959   180.000000
	   57 D(7,10,14,12)   =     59.796628    -0.000000    -0.002303    59.794325
	   58 D(7,10,14,13)   =    -59.798561     0.000000     0.005555   -59.793006
	   59 D(8,10,14,11)   =     58.173143    -0.000000    -0.013880    58.159263
	   60 D(8,10,14,12)   =    -62.029270    -0.000000    -0.017810   -62.047079
	   61 D(8,10,14,13)   =    178.375541    -0.000000    -0.009952   178.365589
	   62 D(9,10,14,11)   =    -58.174253     0.000000     0.015874   -58.158379
	   63 D(9,10,14,12)   =   -178.376666     0.000000     0.011945  -178.364721
	   64 D(9,10,14,13)   =     62.028145     0.000000     0.019803    62.047948
	 ---------------------------------------------------------------------------
	 Forces used to impose fixed constraints are not included.
	  Forces zeroed: 49 

  ==> Convergence Check <==

  Measures of convergence in internal coordinates in au.
  Criteria marked as inactive (o), active & met (*), and active & unmet ( ).
  ---------------------------------------------------------------------------------------------
   Step     Total Energy     Delta E     MAX Force     RMS Force      MAX Disp      RMS Disp   
  ---------------------------------------------------------------------------------------------
    Convergence Criteria    1.00e-06 *    3.00e-04 *             o    1.20e-03 *             o
  ---------------------------------------------------------------------------------------------
      5    -157.84453118   -7.26e-06      9.21e-05 *    3.66e-05 o    4.05e-04 *    1.98e-04 o  ~
  ---------------------------------------------------------------------------------------------


  **** Optimization is complete! (in 5 steps) ****

  ==> Optimization Summary <==

  Measures of convergence in internal coordinates in au.
  --------------------------------------------------------------------------------------------------------------- ~
   Step         Total Energy             Delta E       MAX Force       RMS Force        MAX Disp        RMS Disp  ~
  --------------------------------------------------------------------------------------------------------------- ~
      1    -157.838577588611   -157.838577588611      0.01787605      0.00730651      0.02824484      0.01250404  ~
      2    -157.842714907451     -0.004137318840      0.00721810      0.00323498      0.02554968      0.01252730  ~
      3    -157.844199046383     -0.001484138932      0.00184929      0.00092254      0.03422621      0.01232830  ~
      4    -157.844523919406     -0.000324873023      0.00084821      0.00019194      0.00454148      0.00168908  ~
      5    -157.844531176841     -0.000007257435      0.00009207      0.00003657      0.00040458      0.00019848  ~
  --------------------------------------------------------------------------------------------------------------- ~

	Writing optimization data to binary file.
	Final energy is   -157.8445311768411
	Final (previous) structure:
	Cartesian Geometry (in Angstrom)
	    H    -2.3666748455   0.0543592401   0.3106658782
	    H    -2.2136327037   1.7019293625  -0.3134860599
	    H    -1.9223700883   0.3209677059  -1.3791319699
	    C    -1.7872259882   0.6958982144  -0.3600974477
	    H     0.2441718359   1.3655551881  -0.6383942925
	    H    -0.1970865293   1.1006905174   1.0399720085
	    C    -0.3128147960   0.6948306381   0.0274067929
	    H    -0.2442087148  -1.3655738722   0.6383163982
	    H     0.1971550012  -1.1006562587  -1.0400194020
	    C     0.3128186291  -0.6948271945  -0.0274327262
	    H     2.2136402261  -1.7019323232   0.3134718146
	    H     1.9223238740  -0.3210269716   1.3791808886
	    H     2.3666770858  -0.0543203906  -0.3105892319
	    C     1.7872225631  -0.6959010027   0.3601245541
	Saving final (previous) structure.
			--------------------------
			 OPTKING Finished Execution 
			--------------------------

    Final optimized geometry and variables:
    Molecular point group: c1
    Full point group: C1

    Geometry (in Angstrom), charge = 0, multiplicity = 1:

    H           -2.366674845538     0.054359240058     0.310665878196
    H           -2.213632703679     1.701929362527    -0.313486059947
    H           -1.922370088340     0.320967705868    -1.379131969901
    C           -1.787225988157     0.695898214441    -0.360097447695
    H            0.244171835872     1.365555188082    -0.638394292538
    H           -0.197086529284     1.100690517421     1.039972008548
    C           -0.312814796024     0.694830638057     0.027406792890
    H           -0.244208714794    -1.365573872161     0.638316398156
    H            0.197155001221    -1.100656258679    -1.040019402001
    C            0.312818629150    -0.694827194507    -0.027432726214
    H            2.213640226138    -1.701932323247     0.313471814633
    H            1.922323874041    -0.321026971589     1.379180888584
    H            2.366677085848    -0.054320390568    -0.310589231935
    C            1.787222563076    -0.695901002711     0.360124554145

	Cleaning optimization helper files.

*** Psi4 exiting successfully. Buy a developer a beer!
