    -----------------------------------------------------------------------
          Psi4: An Open-Source Ab Initio Electronic Structure Package
                              Psi4 1.0.0 Driver

                          Git: Rev {master} 6a9a71b 

    J. M. Turney, A. C. Simmonett, R. M. Parrish, E. G. Hohenstein,
    F. A. Evangelista, J. T. Fermann, B. J. Mintz, L. A. Burns, J. J. Wilke,
    M. L. Abrams, N. J. Russ, M. L. Leininger, C. L. Janssen, E. T. Seidl,
    W. D. Allen, H. F. Schaefer, R. A. King, E. F. Valeev, C. D. Sherrill,
    and T. D. Crawford, WIREs Comput. Mol. Sci. 2, 556-565 (2012)
    (doi: 10.1002/wcms.93)

                         Additional Contributions by
    A. E. DePrince, U. Bozkaya, A. Yu. Sokolov, D. G. A. Smith, R. Di Remigio,
    R. M. Richard, J. F. Gonthier, H. R. McAlexander, M. Saitow, and
    B. P. Pritchard
    -----------------------------------------------------------------------


    Psi4 started on: Tue Feb 21 18:22:46 2017

    Process ID:  37372
    PSI4DATADIR: /Users/sternc1/anaconda/share/psi4
    Memory level set to 256.000 MB

  ==> Input File <==

--------------------------------------------------------------------------

memory 1000 mb

molecule butane {
  symmetry C1
  0 1 
  H      1.604   0.760   -8.260
  H      1.745   2.388   -8.880
  H      2.043   1.024   -9.930
  C      2.142   1.395   -8.932
  H      4.169   2.051   -9.210
  H      3.731   1.788   -7.539
  C      3.631   1.416   -8.537
  H      3.950   -0.448   -9.556
  H      5.267   0.024   -8.510
  C      4.203   -0.012   -8.612
  H      4.005   -1.856   -7.529
  H      2.543   -0.901   -7.579
  H      3.860   -0.429   -6.532
  C      3.607   -0.865   -7.477
  units Angstrom
}

dih_string = "4 7 10 14 290"
set optking fixed_dihedral = $dih_string

optimize('B3LYP/cc-PVDZ')
--------------------------------------------------------------------------

  Memory set to 1000.000 MiB by Python script.
gradient() will perform analytic gradient computation.

*** tstart() called on lski1497
*** at Tue Feb 21 18:22:48 2017


         ---------------------------------------------------------
                                   SCF
            by Justin Turney, Rob Parrish, and Andy Simmonett
                              RKS Reference
                        1 Threads,   1000 MiB Core
         ---------------------------------------------------------

  ==> Geometry <==

    Molecular point group: c1
    Full point group: C1

    Geometry (in Angstrom), charge = 0, multiplicity = 1:

       Center              X                  Y                   Z               Mass       
    ------------   -----------------  -----------------  -----------------  -----------------
           H         -1.773694326145     0.284031150844     0.123079433612     1.007825032070
           H         -1.632694326145     1.912031150844    -0.496920566388     1.007825032070
           H         -1.334694326145     0.548031150844    -1.546920566388     1.007825032070
           C         -1.235694326145     0.919031150844    -0.548920566388    12.000000000000
           H          0.791305673855     1.575031150844    -0.826920566388     1.007825032070
           H          0.353305673855     1.312031150844     0.844079433612     1.007825032070
           C          0.253305673855     0.940031150844    -0.153920566388    12.000000000000
           H          0.572305673855    -0.923968849156    -1.172920566388     1.007825032070
           H          1.889305673855    -0.451968849156    -0.126920566388     1.007825032070
           C          0.825305673855    -0.487968849156    -0.228920566388    12.000000000000
           H          0.627305673855    -2.331968849156     0.854079433612     1.007825032070
           H         -0.834694326145    -1.376968849156     0.804079433612     1.007825032070
           H          0.482305673855    -0.904968849156     1.851079433612     1.007825032070
           C          0.229305673855    -1.340968849156     0.906079433612    12.000000000000

  Running in c1 symmetry.

  Rotational constants: A =      0.43627  B =      0.16664  C =      0.14253 [cm^-1]
  Rotational constants: A =  13079.18244  B =   4995.86275  C =   4272.99897 [MHz]
  Nuclear repulsion =  134.276613180389177

  Charge       = 0
  Multiplicity = 1
  Electrons    = 34
  Nalpha       = 17
  Nbeta        = 17

  ==> Algorithm <==

  SCF Algorithm Type is DF.
  DIIS enabled.
  MOM disabled.
  Fractional occupation disabled.
  Guess Type is SAD.
  Energy threshold   = 1.00e-08
  Density threshold  = 1.00e-08
  Integral threshold = 0.00e+00

  ==> Primary Basis <==

  Basis Set: CC-PVDZ
    Number of shells: 54
    Number of basis function: 106
    Number of Cartesian functions: 110
    Spherical Harmonics?: true
    Max angular momentum: 2

  ==> DFT Potential <==

   => B3LYP Composite Functional <= 

    B3LYP Hybrid-GGA Exchange-Correlation Functional (VWN1-RPA)

    P.J. Stephens et. al., J. Phys. Chem., 98, 11623-11627, 1994

    Points   =           5000
    Deriv    =              1
    GGA      =           TRUE
    Meta     =          FALSE

    X_LRC        =          FALSE
    X_Hybrid     =           TRUE
    X_Alpha      =   2.000000E-01
    X_Omega      =   0.000000E+00
    C_LRC        =          FALSE
    C_Hybrid     =          FALSE
    C_Alpha      =   0.000000E+00
    C_Omega      =   0.000000E+00

   => Exchange Functionals <=

    0.8000    B3_X
    0.2000      HF 

   => Correlation Functionals <=

    0.1900 VWN3RPA_C
    0.8100   LYP_C

   => Molecular Quadrature <=

    Radial Scheme    =       TREUTLER
    Pruning Scheme   =           FLAT
    Nuclear Scheme   =       TREUTLER

    BS radius alpha  =              1
    Pruning alpha    =              1
    Radial Points    =             75
    Spherical Points =            302
    Total Points     =         312718
    Total Blocks     =            269
    Max Points       =           4835
    Max Functions    =            106

  ==> Pre-Iterations <==

   -------------------------------------------------------
    Irrep   Nso     Nmo     Nalpha   Nbeta   Ndocc  Nsocc
   -------------------------------------------------------
     A        106     106       0       0       0       0
   -------------------------------------------------------
    Total     106     106      17      17      17       0
   -------------------------------------------------------

  ==> Integral Setup <==

  ==> DFJK: Density-Fitted J/K Matrices <==

    J tasked:                  Yes
    K tasked:                  Yes
    wK tasked:                  No
    OpenMP threads:              1
    Integrals threads:           1
    Memory (MB):               715
    Algorithm:                Core
    Integral Cache:           NONE
    Schwarz Cutoff:          1E-12
    Fitting Condition:       1E-12

   => Auxiliary Basis Set <=

  Basis Set: 
    Number of shells: 186
    Number of basis function: 510
    Number of Cartesian functions: 574
    Spherical Harmonics?: true
    Max angular momentum: 3

  Minimum eigenvalue in the overlap matrix is 4.9933718491E-03.
  Using Symmetric Orthogonalization.
  SCF Guess: Superposition of Atomic Densities via on-the-fly atomic UHF.

  ==> Iterations <==

                           Total Energy        Delta E     RMS |[F,P]|

   @DF-RKS iter   0:  -159.02550654301689   -1.59026e+02   3.36779e-02 
   @DF-RKS iter   1:  -158.27457504765877    7.50931e-01   5.19138e-03 
   @DF-RKS iter   2:  -158.20960571100269    6.49693e-02   6.20642e-03 DIIS
   @DF-RKS iter   3:  -158.44616054162455   -2.36555e-01   3.86394e-04 DIIS
   @DF-RKS iter   4:  -158.44699833478867   -8.37793e-04   1.18447e-04 DIIS
   @DF-RKS iter   5:  -158.44706675467117   -6.84199e-05   4.78413e-05 DIIS
   @DF-RKS iter   6:  -158.44707916416749   -1.24095e-05   6.98018e-06 DIIS
   @DF-RKS iter   7:  -158.44707946564878   -3.01481e-07   1.03538e-06 DIIS
   @DF-RKS iter   8:  -158.44707947290897   -7.26018e-09   1.29070e-07 DIIS
   @DF-RKS iter   9:  -158.44707947299582   -8.68567e-11   6.56499e-08 DIIS
   @DF-RKS iter  10:  -158.44707947301896   -2.31353e-11   1.66466e-08 DIIS
   @DF-RKS iter  11:  -158.44707947302103   -2.07478e-12   1.73070e-09 DIIS

  ==> Post-Iterations <==

    Orbital Energies (a.u.)
    -----------------------

    Doubly Occupied:                                                      

       1A    -10.170196     2A    -10.170000     3A    -10.164001  
       4A    -10.163932     5A     -0.796544     6A     -0.718689  
       7A     -0.640786     8A     -0.571426     9A     -0.460016  
      10A     -0.458004    11A     -0.419127    12A     -0.381611  
      13A     -0.381370    14A     -0.359141    15A     -0.332041  
      16A     -0.319290    17A     -0.316161  

    Virtual:                                                              

      18A      0.064759    19A      0.098027    20A      0.099712  
      21A      0.108010    22A      0.135989    23A      0.146511  
      24A      0.156109    25A      0.163011    26A      0.165123  
      27A      0.198032    28A      0.232194    29A      0.236314  
      30A      0.258479    31A      0.408559    32A      0.415288  
      33A      0.433127    34A      0.436183    35A      0.445040  
      36A      0.467712    37A      0.532854    38A      0.596914  
      39A      0.605675    40A      0.626191    41A      0.640470  
      42A      0.656426    43A      0.664328    44A      0.678136  
      45A      0.680857    46A      0.692479    47A      0.696624  
      48A      0.713084    49A      0.720133    50A      0.740987  
      51A      0.765955    52A      0.813161    53A      0.896530  
      54A      0.916002    55A      0.964853    56A      1.108661  
      57A      1.130592    58A      1.186117    59A      1.218811  
      60A      1.274474    61A      1.360275    62A      1.389512  
      63A      1.427129    64A      1.454770    65A      1.471121  
      66A      1.472998    67A      1.579223    68A      1.579689  
      69A      1.625785    70A      1.638679    71A      1.652161  
      72A      1.663183    73A      1.674975    74A      1.688957  
      75A      1.698990    76A      1.717860    77A      1.717973  
      78A      1.727348    79A      1.744351    80A      1.762618  
      81A      1.809745    82A      1.838783    83A      1.894330  
      84A      1.911240    85A      1.995177    86A      2.006478  
      87A      2.027681    88A      2.052144    89A      2.113983  
      90A      2.156044    91A      2.240313    92A      2.276268  
      93A      2.294349    94A      2.315627    95A      2.350010  
      96A      2.365077    97A      2.493632    98A      2.499391  
      99A      2.515965   100A      2.535558   101A      2.540328  
     102A      2.589301   103A      2.655072   104A      2.677820  
     105A      2.727982   106A      2.778805  

    Final Occupation by Irrep:
              A 
    DOCC [    17 ]

  Energy converged.

  @DF-RKS Final Energy:  -158.44707947302103

   => Energetics <=

    Nuclear Repulsion Energy =            134.2766131803891767
    One-Electron Energy =                -476.9362292559852676
    Two-Electron Energy =                 204.8947228836273098
    DFT Exchange-Correlation Energy =     -20.6821862810522461
    Empirical Dispersion Energy =           0.0000000000000000
    PCM Polarization Energy =               0.0000000000000000
    EFP Energy =                            0.0000000000000000
    Total Energy =                       -158.4470794730210343


  Saving occupied orbitals to File 180.

*** tstop() called on lski1497 at Tue Feb 21 18:25:01 2017
Module time:
	user time   =     119.20 seconds =       1.99 minutes
	system time =       1.47 seconds =       0.02 minutes
	total time  =        133 seconds =       2.22 minutes
Total time:
	user time   =     119.20 seconds =       1.99 minutes
	system time =       1.47 seconds =       0.02 minutes
	total time  =        133 seconds =       2.22 minutes


Properties will be evaluated at   0.000000,   0.000000,   0.000000 Bohr

Properties computed using the SCF density matrix

  Nuclear Dipole Moment: (a.u.)
     X:    -0.8062      Y:    -0.3363      Z:     0.2867

  Electronic Dipole Moment: (a.u.)
     X:     0.8301      Y:     0.3457      Z:    -0.2954

  Dipole Moment: (a.u.)
     X:     0.0239      Y:     0.0095      Z:    -0.0088     Total:     0.0272

  Dipole Moment: (Debye)
     X:     0.0609      Y:     0.0240      Z:    -0.0223     Total:     0.0691


*** tstart() called on lski1497
*** at Tue Feb 21 18:25:01 2017


         ------------------------------------------------------------
                                   SCF GRAD                          
                          Rob Parrish, Justin Turney,                
                       Andy Simmonett, and Alex Sokolov              
         ------------------------------------------------------------

  ==> Geometry <==

    Molecular point group: c1
    Full point group: C1

    Geometry (in Angstrom), charge = 0, multiplicity = 1:

       Center              X                  Y                   Z               Mass       
    ------------   -----------------  -----------------  -----------------  -----------------
           H         -1.773694326145     0.284031150844     0.123079433612     1.007825032070
           H         -1.632694326145     1.912031150844    -0.496920566388     1.007825032070
           H         -1.334694326145     0.548031150844    -1.546920566388     1.007825032070
           C         -1.235694326145     0.919031150844    -0.548920566388    12.000000000000
           H          0.791305673855     1.575031150844    -0.826920566388     1.007825032070
           H          0.353305673855     1.312031150844     0.844079433612     1.007825032070
           C          0.253305673855     0.940031150844    -0.153920566388    12.000000000000
           H          0.572305673855    -0.923968849156    -1.172920566388     1.007825032070
           H          1.889305673855    -0.451968849156    -0.126920566388     1.007825032070
           C          0.825305673855    -0.487968849156    -0.228920566388    12.000000000000
           H          0.627305673855    -2.331968849156     0.854079433612     1.007825032070
           H         -0.834694326145    -1.376968849156     0.804079433612     1.007825032070
           H          0.482305673855    -0.904968849156     1.851079433612     1.007825032070
           C          0.229305673855    -1.340968849156     0.906079433612    12.000000000000

  Nuclear repulsion =  134.276613180389177

  ==> Basis Set <==

  Basis Set: CC-PVDZ
    Number of shells: 54
    Number of basis function: 106
    Number of Cartesian functions: 110
    Spherical Harmonics?: true
    Max angular momentum: 2

  ==> DFJKGrad: Density-Fitted SCF Gradients <==

    Gradient:                    1
    J tasked:                  Yes
    K tasked:                  Yes
    wK tasked:                  No
    OpenMP threads:              1
    Integrals threads:           1
    Memory (MB):               715
    Schwarz Cutoff:          0E+00
    Fitting Condition:       1E-12

   => Auxiliary Basis Set <=

  Basis Set: 
    Number of shells: 186
    Number of basis function: 510
    Number of Cartesian functions: 574
    Spherical Harmonics?: true
    Max angular momentum: 3

  ==> DFT Potential <==

   => B3LYP Composite Functional <= 

    B3LYP Hybrid-GGA Exchange-Correlation Functional (VWN1-RPA)

    P.J. Stephens et. al., J. Phys. Chem., 98, 11623-11627, 1994

    Points   =           5000
    Deriv    =              1
    GGA      =           TRUE
    Meta     =          FALSE

    X_LRC        =          FALSE
    X_Hybrid     =           TRUE
    X_Alpha      =   2.000000E-01
    X_Omega      =   0.000000E+00
    C_LRC        =          FALSE
    C_Hybrid     =          FALSE
    C_Alpha      =   0.000000E+00
    C_Omega      =   0.000000E+00

   => Exchange Functionals <=

    0.8000    B3_X
    0.2000      HF 

   => Correlation Functionals <=

    0.1900 VWN3RPA_C
    0.8100   LYP_C

   => Molecular Quadrature <=

    Radial Scheme    =       TREUTLER
    Pruning Scheme   =           FLAT
    Nuclear Scheme   =       TREUTLER

    BS radius alpha  =              1
    Pruning alpha    =              1
    Radial Points    =             75
    Spherical Points =            302
    Total Points     =         312718
    Total Blocks     =            269
    Max Points       =           4835
    Max Functions    =            106


  -Total Gradient:
     Atom            X                  Y                   Z
    ------   -----------------  -----------------  -----------------
       1        0.015006214321     0.010557003716    -0.011122323838
       2        0.012358977527    -0.018668328305     0.000065388335
       3        0.005152478531     0.007595479114     0.021446420594
       4       -0.028470203038    -0.008468210547    -0.009900978691
       5       -0.011611868203    -0.015942195093     0.012151247278
       6       -0.004754767474    -0.010377420808    -0.020931740992
       7        0.017829951213     0.029206629502     0.016827948746
       8        0.002111820948     0.009131469576     0.021650837431
       9       -0.023734839491     0.001316916543     0.000110064229
      10        0.019898755685    -0.013617708607    -0.029345906043
      11       -0.005798219024     0.022633444912    -0.002472989102
      12        0.021064300172     0.004537850645    -0.001600794809
      13       -0.003761796493    -0.006616914984    -0.020727144735
      14       -0.015304718625    -0.011293804992     0.023854942071


*** tstop() called on lski1497 at Tue Feb 21 18:25:45 2017
Module time:
	user time   =      39.14 seconds =       0.65 minutes
	system time =       0.60 seconds =       0.01 minutes
	total time  =         44 seconds =       0.73 minutes
Total time:
	user time   =     158.37 seconds =       2.64 minutes
	system time =       2.07 seconds =       0.03 minutes
	total time  =        177 seconds =       2.95 minutes

			-----------------------------------------
			 OPTKING 2.0: for geometry optimizations 
			  - R.A. King,  Bethel University        
			-----------------------------------------

	Internal coordinates to be generated automatically.
	Detected frag 1 with atoms:  1 2 3 4 5 6 7 8 9 10 11 12 13 14
	---Fragment 1 Bond Connectivity---
	 1 : 4
	 2 : 4
	 3 : 4
	 4 : 1 2 3 7
	 5 : 7
	 6 : 7
	 7 : 4 5 6 10
	 8 : 10
	 9 : 10
	 10 : 7 8 9 14
	 11 : 14
	 12 : 14
	 13 : 14
	 14 : 10 11 12 13

	Assuming in current code that numbering for constraints corresponds to unified fragment.
	Fixed dihedral atom list: 
	     4     7    10    14
	---Fragment 1 Geometry and Gradient---
	 H          -3.3517965199        0.5367410883        0.2325864221
	 H          -3.0853451351        3.6132152326       -0.9390437803
	 H          -2.5222067475        1.0356287874       -2.9232562198
	 C          -2.3351238604        1.7367171827       -1.0373095392
	 H           1.4953510110        2.9763775259       -1.5626534041
	 H           0.6676509648        2.4793795529        1.5950789639
	 C           0.4786783515        1.7764014315       -0.2908677167
	 H           1.0815009879       -1.7460480802       -2.2164986461
	 H           3.5702703049       -0.8540973455       -0.2398451111
	 C           1.5596016995       -0.9221274863       -0.4325971767
	 H           1.1854359252       -4.4067824753        1.6139762253
	 H          -1.5773436811       -2.6020940184        1.5194899186
	 H           0.9114256359       -1.7101432837        3.4980331797
	 C           0.4333249243       -2.5340638776        1.7122419842
	             0.0150062143        0.0105570037       -0.0111223238
	             0.0123589775       -0.0186683283        0.0000653883
	             0.0051524785        0.0075954791        0.0214464206
	            -0.0284702030       -0.0084682105       -0.0099009787
	            -0.0116118682       -0.0159421951        0.0121512473
	            -0.0047547675       -0.0103774208       -0.0209317410
	             0.0178299512        0.0292066295        0.0168279487
	             0.0021118209        0.0091314696        0.0216508374
	            -0.0237348395        0.0013169165        0.0001100642
	             0.0198987557       -0.0136177086       -0.0293459060
	            -0.0057982190        0.0226334449       -0.0024729891
	             0.0210643002        0.0045378506       -0.0016007948
	            -0.0037617965       -0.0066169150       -0.0207271447
	            -0.0153047186       -0.0112938050        0.0238549421

	Previous optimization step data not found.  Starting new optimization.

	---Fragment 1 Intrafragment Coordinates---
	 - Coordinate -           - BOHR/RAD -       - ANG/DEG -
	 R(1,4)           =         2.021436	       1.069698
	 R(2,4)           =         2.023298	       1.070683
	 R(3,4)           =         2.020723	       1.069320
	 R(4,7)           =         2.911397	       1.540645
	 R(5,7)           =         2.022623	       1.070326
	 R(6,7)           =         2.021555	       1.069761
	 R(7,10)          =         2.910419	       1.540128
	 R(8,10)          =         2.022308	       1.070159
	 R(9,10)          =         2.021032	       1.069484
	 R(10,14)         =         2.909841	       1.539821
	 R(11,14)         =         2.020495	       1.069200
	 R(12,14)         =         2.021032	       1.069484
	 R(13,14)         =         2.023975	       1.071042
	 B(1,4,2)         =         1.910870	     109.484805
	 B(1,4,3)         =         1.911121	     109.499161
	 B(1,4,7)         =         1.910399	     109.457783
	 B(2,4,3)         =         1.910042	     109.437340
	 B(2,4,7)         =         1.910564	     109.467262
	 B(3,4,7)         =         1.910803	     109.480971
	 B(4,7,5)         =         1.909937	     109.431343
	 B(4,7,6)         =         1.911630	     109.528316
	 B(4,7,10)        =         1.911154	     109.501062
	 B(5,7,6)         =         1.910605	     109.469614
	 B(5,7,10)        =         1.910047	     109.437654
	 B(6,7,10)        =         1.910425	     109.459295
	 B(7,10,8)        =         1.910182	     109.445340
	 B(7,10,9)        =         1.910957	     109.489770
	 B(7,10,14)       =         1.911322	     109.510685
	 B(8,10,9)        =         1.910327	     109.453695
	 B(8,10,14)       =         1.910285	     109.451279
	 B(9,10,14)       =         1.910726	     109.476530
	 B(10,14,11)      =         1.910828	     109.482389
	 B(10,14,12)      =         1.910726	     109.476530
	 B(10,14,13)      =         1.910724	     109.476432
	 B(11,14,12)      =         1.911865	     109.541805
	 B(11,14,13)      =         1.909525	     109.407696
	 B(12,14,13)      =         1.910131	     109.442436
	 D(1,4,7,5)       =         3.140997	     179.965873
	 D(1,4,7,6)       =        -1.047644	     -60.025575
	 D(1,4,7,10)      =         1.047427	      60.013132
	 D(2,4,7,5)       =        -1.047689	     -60.028143
	 D(2,4,7,6)       =         1.046856	      59.980409
	 D(2,4,7,10)      =        -3.141259	    -179.980883
	 D(3,4,7,5)       =         1.046044	      59.933911
	 D(3,4,7,6)       =         3.140588	     179.942463
	 D(3,4,7,10)      =        -1.047526	     -60.018830
	 D(4,7,10,8)      =         0.872690	      50.001438
	 D(4,7,10,9)      =         2.966632	     169.975482
	 D(4,7,10,14)     =        -1.221424	     -69.982444
	 D(5,7,10,8)      =        -1.220813	     -69.947437
	 D(5,7,10,9)      =         0.873129	      50.026606
	 D(5,7,10,14)     =         2.968258	     170.068680
	 D(6,7,10,8)      =         2.968497	     170.082364
	 D(6,7,10,9)      =        -1.220746	     -69.943592
	 D(6,7,10,14)     =         0.874383	      50.098482
	 D(7,10,14,11)    =        -3.140783	    -179.953594
	 D(7,10,14,12)    =         1.046322	      59.949828
	 D(7,10,14,13)    =        -1.047570	     -60.021361
	 D(8,10,14,11)    =         1.048352	      60.066159
	 D(8,10,14,12)    =        -1.047728	     -60.030419
	 D(8,10,14,13)    =         3.141565	     179.998391
	 D(9,10,14,11)    =        -1.045512	     -59.903422
	 D(9,10,14,12)    =         3.141593	     180.000000
	 D(9,10,14,13)    =         1.047700	      60.028811

	Current energy   :      -158.4470794730

	Generating empirical Hessian (Schlegel '84) for each fragment.
	Adding user-defined constraint: Fragment 1; Coordinate 49:
		Value =    -1.221424; Fixed value    =    -1.221730
		Force =    -0.000153; Force constant =     0.500000
	Removing off-diagonal coupling between coordinate 49 and others.
	Taking RFO optimization step.
	Going to follow RFO solution 1.
	Using RFO vector 1.

	Determining step-restricting scale parameter for RS-RFO.
	Maximum step size allowed    0.10000

	 Iter      |step|        alpha        rfo_root  
	------------------------------------------------
	    0     0.27852       1.00000           1
	    1     0.20185       6.09077           1
	    2     0.14758      19.24315           1
	    3     0.11639      39.19115           1
	    4     0.10305      54.71897           1
	    5     0.10014      59.04683           1
	    6     0.10000      59.26632           1
	------------------------------------------------
	Norm of target step-size    0.10000
	Projected energy change by RFO approximation:        -0.0080233399

	Back-transformation to cartesian coordinates...
	Could not converge backtransformation.
	Using first guess instead.

	--- Internal Coordinate Step in ANG or DEG, aJ/ANG or AJ/DEG ---
	 ---------------------------------------------------------------------------
	   Coordinate                Previous        Force       Change         New 
	   ----------                --------       ------       ------       ------
	    1 R(1,4)          =      1.069698     0.171384     0.013480     1.083177
	    2 R(2,4)          =      1.070683     0.180368     0.013946     1.084629
	    3 R(3,4)          =      1.069320     0.190555     0.014624     1.083944
	    4 R(4,7)          =      1.540645     0.032289     0.003024     1.543669
	    5 R(5,7)          =      1.070326     0.188951     0.014539     1.084865
	    6 R(6,7)          =      1.069761     0.194272     0.014897     1.084658
	    7 R(7,10)         =      1.540128     0.059994     0.005256     1.545383
	    8 R(8,10)         =      1.070159     0.192107     0.014740     1.084899
	    9 R(9,10)         =      1.069484     0.194084     0.014914     1.084398
	   10 R(10,14)        =      1.539821     0.035928     0.003333     1.543155
	   11 R(11,14)        =      1.069200     0.189619     0.014622     1.083822
	   12 R(12,14)        =      1.069484     0.172660     0.013575     1.083059
	   13 R(13,14)        =      1.071042     0.180190     0.013866     1.084907
	   14 B(1,4,2)        =    109.484805    -0.000406    -0.481400   109.003404
	   15 B(1,4,3)        =    109.499161    -0.000292    -0.359405   109.139756
	   16 B(1,4,7)        =    109.457783     0.000445     0.529730   109.987513
	   17 B(2,4,3)        =    109.437340    -0.000293    -0.346227   109.091113
	   18 B(2,4,7)        =    109.467262     0.000371     0.451210   109.918472
	   19 B(3,4,7)        =    109.480971     0.000175     0.197719   109.678690
	   20 B(4,7,5)        =    109.431343    -0.000417    -0.443343   108.988000
	   21 B(4,7,6)        =    109.528316    -0.000277    -0.296198   109.232119
	   22 B(4,7,10)       =    109.501062     0.001299     1.453006   110.954069
	   23 B(5,7,6)        =    109.469614     0.000071    -0.015164   109.454449
	   24 B(5,7,10)       =    109.437654    -0.000302    -0.304099   109.133555
	   25 B(6,7,10)       =    109.459295    -0.000374    -0.399548   109.059747
	   26 B(7,10,8)       =    109.445340    -0.000376    -0.401300   109.044040
	   27 B(7,10,9)       =    109.489770    -0.000307    -0.309932   109.179838
	   28 B(7,10,14)      =    109.510685     0.001301     1.454588   110.965273
	   29 B(8,10,9)       =    109.453695     0.000071    -0.014444   109.439251
	   30 B(8,10,14)      =    109.451279    -0.000270    -0.287116   109.164164
	   31 B(9,10,14)      =    109.476530    -0.000420    -0.447506   109.029024
	   32 B(10,14,11)     =    109.482389     0.000373     0.453668   109.936057
	   33 B(10,14,12)     =    109.476530     0.000443     0.526973   110.003503
	   34 B(10,14,13)     =    109.476432     0.000177     0.199701   109.676133
	   35 B(11,14,12)     =    109.541805    -0.000409    -0.486147   109.055658
	   36 B(11,14,13)     =    109.407696    -0.000293    -0.345928   109.061768
	   37 B(12,14,13)     =    109.442436    -0.000290    -0.357256   109.085181
	   38 D(1,4,7,5)      =    179.965873     0.000043     0.248774   180.214647
	   39 D(1,4,7,6)      =    -60.025575    -0.000035    -0.216291   -60.241866
	   40 D(1,4,7,10)     =     60.013132     0.000004     0.006257    60.019390
	   41 D(2,4,7,5)      =    -60.028143     0.000043     0.265296   -59.762846
	   42 D(2,4,7,6)      =     59.980409    -0.000034    -0.199769    59.780641
	   43 D(2,4,7,10)     =   -179.980883     0.000005     0.022780  -179.958103
	   44 D(3,4,7,5)      =     59.933911     0.000038     0.240526    60.174437
	   45 D(3,4,7,6)      =    179.942463    -0.000040    -0.224539   179.717924
	   46 D(3,4,7,10)     =    -60.018830    -0.000001    -0.001990   -60.020820
	   47 D(4,7,10,8)     =     50.001438     0.000031     0.214075    50.215514
	   48 D(4,7,10,9)     =    169.975482    -0.000044    -0.232579   169.742903
	   49 D(4,7,10,14)    =    -69.982444    -0.000022    -0.078282   -70.060726
	   50 D(5,7,10,8)     =    -69.947437     0.000009     0.054270   -69.893167
	   51 D(5,7,10,9)     =     50.026606    -0.000067    -0.392384    49.634222
	   52 D(5,7,10,14)    =    170.068680    -0.000045    -0.238087   169.830593
	   53 D(6,7,10,8)     =    170.082364     0.000084     0.496765   170.579129
	   54 D(6,7,10,9)     =    -69.943592     0.000008     0.050111   -69.893481
	   55 D(6,7,10,14)    =     50.098482     0.000030     0.204408    50.302889
	   56 D(7,10,14,11)   =   -179.953594     0.000005     0.022923  -179.930670
	   57 D(7,10,14,12)   =     59.949828     0.000005     0.011237    59.961065
	   58 D(7,10,14,13)   =    -60.021361    -0.000001     0.001155   -60.020206
	   59 D(8,10,14,11)   =     60.066159    -0.000035    -0.201699    59.864461
	   60 D(8,10,14,12)   =    -60.030419    -0.000034    -0.213385   -60.243804
	   61 D(8,10,14,13)   =    179.998391    -0.000040    -0.223467   179.774924
	   62 D(9,10,14,11)   =    -59.903422     0.000042     0.258726   -59.644696
	   63 D(9,10,14,12)   =    180.000000     0.000042     0.247040   180.247040
	   64 D(9,10,14,13)   =     60.028811     0.000037     0.236958    60.265768
	 ---------------------------------------------------------------------------
	 Forces used to impose fixed constraints are not included.
	  Forces zeroed: 49 

  ==> Convergence Check <==

  Measures of convergence in internal coordinates in au.
  Criteria marked as inactive (o), active & met (*), and active & unmet ( ).
  --------------------------------------------------------------------------------------------- ~
   Step     Total Energy     Delta E     MAX Force     RMS Force      MAX Disp      RMS Disp    ~
  --------------------------------------------------------------------------------------------- ~
    Convergence Criteria    1.00e-06 *    3.00e-04 *             o    1.20e-03 *             o  ~
  --------------------------------------------------------------------------------------------- ~
      1    -158.44707947   -1.58e+02      2.36e-02      9.90e-03 o    2.82e-02      1.26e-02 o  ~
  ---------------------------------------------------------------------------------------------

	Writing optimization data to binary file.
	Structure for next step:
	Cartesian Geometry (in Angstrom)
	    H    -1.8141823410   0.3206665961   0.1178834745
	    H    -1.6363476934   1.9584563489  -0.5152268815
	    H    -1.3570848344   0.5689389803  -1.5695837452
	    C    -1.2469961197   0.9470985551  -0.5597270423
	    H     0.7959642726   1.5741560000  -0.8473635464
	    H     0.3467305244   1.3239169707   0.8475718280
	    C     0.2444315104   0.9397474101  -0.1616016816
	    H     0.5744050041  -0.9374287167  -1.1748467016
	    H     1.9026571429  -0.4434256560  -0.1129131141
	    C     0.8244299490  -0.4915592226  -0.2179274356
	    H     0.6653621688  -2.3646186839   0.8604484909
	    H    -0.8301633619  -1.4286042641   0.8222934095
	    H     0.4959384237  -0.9296901711   1.8763237674
	    C     0.2471347886  -1.3662180350   0.9147812486
			--------------------------
			 OPTKING Finished Execution 
			--------------------------

    Structure for next step:
    Molecular point group: c1
    Full point group: C1

    Geometry (in Angstrom), charge = 0, multiplicity = 1:

    H           -1.813572422111     0.320866440089     0.117654964600
    H           -1.635737774487     1.958656192873    -0.515455391340
    H           -1.356474915503     0.569138824328    -1.569812255094
    C           -1.246386200841     0.947298399141    -0.559955552135
    H            0.796574191479     1.574355843966    -0.847592056216
    H            0.347340443291     1.324116814711     0.847343318144
    C            0.245041429250     0.939947254097    -0.161830191506
    H            0.575014922955    -0.937228872671    -1.175075211448
    H            1.903267061741    -0.443225812024    -0.113141623994
    C            0.825039867927    -0.491359378550    -0.218155945466
    H            0.665972087662    -2.364418839933     0.860219981048
    H           -0.829553443012    -1.428404420109     0.822064899598
    H            0.496548342583    -0.929490327071     1.876095257558
    C            0.247744707493    -1.366018190979     0.914552738709

gradient() will perform analytic gradient computation.

*** tstart() called on lski1497
*** at Tue Feb 21 18:25:46 2017


         ---------------------------------------------------------
                                   SCF
            by Justin Turney, Rob Parrish, and Andy Simmonett
                              RKS Reference
                        1 Threads,   1000 MiB Core
         ---------------------------------------------------------

  ==> Geometry <==

    Molecular point group: c1
    Full point group: C1

    Geometry (in Angstrom), charge = 0, multiplicity = 1:

       Center              X                  Y                   Z               Mass       
    ------------   -----------------  -----------------  -----------------  -----------------
           H         -1.813572422111     0.320866440089     0.117654964600     1.007825032070
           H         -1.635737774487     1.958656192873    -0.515455391340     1.007825032070
           H         -1.356474915503     0.569138824328    -1.569812255094     1.007825032070
           C         -1.246386200841     0.947298399141    -0.559955552135    12.000000000000
           H          0.796574191479     1.574355843966    -0.847592056216     1.007825032070
           H          0.347340443291     1.324116814711     0.847343318144     1.007825032070
           C          0.245041429250     0.939947254097    -0.161830191506    12.000000000000
           H          0.575014922955    -0.937228872671    -1.175075211448     1.007825032070
           H          1.903267061741    -0.443225812024    -0.113141623994     1.007825032070
           C          0.825039867927    -0.491359378550    -0.218155945466    12.000000000000
           H          0.665972087662    -2.364418839933     0.860219981048     1.007825032070
           H         -0.829553443012    -1.428404420109     0.822064899598     1.007825032070
           H          0.496548342583    -0.929490327071     1.876095257558     1.007825032070
           C          0.247744707493    -1.366018190979     0.914552738709    12.000000000000

  Running in c1 symmetry.

  Rotational constants: A =      0.43812  B =      0.16109  C =      0.13853 [cm^-1]
  Rotational constants: A =  13134.46458  B =   4829.31289  C =   4152.90058 [MHz]
  Nuclear repulsion =  132.965848520597632

  Charge       = 0
  Multiplicity = 1
  Electrons    = 34
  Nalpha       = 17
  Nbeta        = 17

  ==> Algorithm <==

  SCF Algorithm Type is DF.
  DIIS enabled.
  MOM disabled.
  Fractional occupation disabled.
  Guess Type is READ.
  Energy threshold   = 1.00e-08
  Density threshold  = 1.00e-08
  Integral threshold = 0.00e+00

  ==> Primary Basis <==

  Basis Set: CC-PVDZ
    Number of shells: 54
    Number of basis function: 106
    Number of Cartesian functions: 110
    Spherical Harmonics?: true
    Max angular momentum: 2

  ==> DFT Potential <==

   => B3LYP Composite Functional <= 

    B3LYP Hybrid-GGA Exchange-Correlation Functional (VWN1-RPA)

    P.J. Stephens et. al., J. Phys. Chem., 98, 11623-11627, 1994

    Points   =           5000
    Deriv    =              1
    GGA      =           TRUE
    Meta     =          FALSE

    X_LRC        =          FALSE
    X_Hybrid     =           TRUE
    X_Alpha      =   2.000000E-01
    X_Omega      =   0.000000E+00
    C_LRC        =          FALSE
    C_Hybrid     =          FALSE
    C_Alpha      =   0.000000E+00
    C_Omega      =   0.000000E+00

   => Exchange Functionals <=

    0.8000    B3_X
    0.2000      HF 

   => Correlation Functionals <=

    0.1900 VWN3RPA_C
    0.8100   LYP_C

   => Molecular Quadrature <=

    Radial Scheme    =       TREUTLER
    Pruning Scheme   =           FLAT
    Nuclear Scheme   =       TREUTLER

    BS radius alpha  =              1
    Pruning alpha    =              1
    Radial Points    =             75
    Spherical Points =            302
    Total Points     =         312759
    Total Blocks     =            266
    Max Points       =           4845
    Max Functions    =            106

  ==> Pre-Iterations <==

   -------------------------------------------------------
    Irrep   Nso     Nmo     Nalpha   Nbeta   Ndocc  Nsocc
   -------------------------------------------------------
     A        106     106       0       0       0       0
   -------------------------------------------------------
    Total     106     106      17      17      17       0
   -------------------------------------------------------

  ==> Integral Setup <==

  ==> DFJK: Density-Fitted J/K Matrices <==

    J tasked:                  Yes
    K tasked:                  Yes
    wK tasked:                  No
    OpenMP threads:              1
    Integrals threads:           1
    Memory (MB):               715
    Algorithm:                Core
    Integral Cache:           NONE
    Schwarz Cutoff:          1E-12
    Fitting Condition:       1E-12

   => Auxiliary Basis Set <=

  Basis Set: 
    Number of shells: 186
    Number of basis function: 510
    Number of Cartesian functions: 574
    Spherical Harmonics?: true
    Max angular momentum: 3

  Minimum eigenvalue in the overlap matrix is 5.0939211848E-03.
  Using Symmetric Orthogonalization.
  SCF Guess was Projection but file not found.
  Switching over to SAD guess.

  SCF Guess: Superposition of Atomic Densities via on-the-fly atomic UHF.

  ==> Iterations <==

                           Total Energy        Delta E     RMS |[F,P]|

   @DF-RKS iter   0:  -158.94743047145312   -1.58947e+02   3.28266e-02 
   @DF-RKS iter   1:  -158.28552810208561    6.61902e-01   5.09991e-03 
   @DF-RKS iter   2:  -158.21687044367926    6.86577e-02   6.16447e-03 DIIS
   @DF-RKS iter   3:  -158.45233415597650   -2.35464e-01   3.77831e-04 DIIS
   @DF-RKS iter   4:  -158.45314667834293   -8.12522e-04   1.17481e-04 DIIS
   @DF-RKS iter   5:  -158.45321428961381   -6.76113e-05   4.82807e-05 DIIS
   @DF-RKS iter   6:  -158.45322698436792   -1.26948e-05   7.01953e-06 DIIS
   @DF-RKS iter   7:  -158.45322729014006   -3.05772e-07   1.03821e-06 DIIS
   @DF-RKS iter   8:  -158.45322729747863   -7.33857e-09   1.40900e-07 DIIS
   @DF-RKS iter   9:  -158.45322729757783   -9.91918e-11   7.53024e-08 DIIS
   @DF-RKS iter  10:  -158.45322729760915   -3.13207e-11   1.65945e-08 DIIS
   @DF-RKS iter  11:  -158.45322729761031   -1.16529e-12   1.84109e-09 DIIS

  ==> Post-Iterations <==

    Orbital Energies (a.u.)
    -----------------------

    Doubly Occupied:                                                      

       1A    -10.174970     2A    -10.174794     3A    -10.169232  
       4A    -10.169184     5A     -0.792403     6A     -0.716769  
       7A     -0.637790     8A     -0.567323     9A     -0.455684  
      10A     -0.455443    11A     -0.416697    12A     -0.380659  
      13A     -0.379219    14A     -0.357756    15A     -0.329127  
      16A     -0.319114    17A     -0.317472  

    Virtual:                                                              

      18A      0.061716    19A      0.095482    20A      0.097485  
      21A      0.105896    22A      0.133657    23A      0.143316  
      24A      0.153075    25A      0.158942    26A      0.161035  
      27A      0.194557    28A      0.223446    29A      0.234005  
      30A      0.259001    31A      0.408459    32A      0.408834  
      33A      0.431466    34A      0.436043    35A      0.442849  
      36A      0.469980    37A      0.531884    38A      0.590562  
      39A      0.602079    40A      0.626060    41A      0.630359  
      42A      0.650544    43A      0.656771    44A      0.668659  
      45A      0.674501    46A      0.685499    47A      0.689093  
      48A      0.701120    49A      0.711025    50A      0.727811  
      51A      0.760485    52A      0.806789    53A      0.895740  
      54A      0.908767    55A      0.963760    56A      1.105532  
      57A      1.131473    58A      1.183741    59A      1.202470  
      60A      1.264746    61A      1.354053    62A      1.383921  
      63A      1.421128    64A      1.442659    65A      1.460931  
      66A      1.464662    67A      1.572236    68A      1.577616  
      69A      1.614781    70A      1.631261    71A      1.643016  
      72A      1.652230    73A      1.664090    74A      1.681207  
      75A      1.685600    76A      1.699879    77A      1.706787  
      78A      1.717348    79A      1.730733    80A      1.740758  
      81A      1.798872    82A      1.821361    83A      1.882883  
      84A      1.889272    85A      1.987675    86A      1.988831  
      87A      2.028509    88A      2.034120    89A      2.098160  
      90A      2.137974    91A      2.218677    92A      2.254174  
      93A      2.271601    94A      2.285160    95A      2.318648  
      96A      2.337251    97A      2.458756    98A      2.465288  
      99A      2.477119   100A      2.505613   101A      2.512053  
     102A      2.554726   103A      2.628868   104A      2.643019  
     105A      2.702260   106A      2.745863  

    Final Occupation by Irrep:
              A 
    DOCC [    17 ]

  Energy converged.

  @DF-RKS Final Energy:  -158.45322729761031

   => Energetics <=

    Nuclear Repulsion Energy =            132.9658485205976319
    One-Electron Energy =                -474.3773430347093836
    Two-Electron Energy =                 203.5928477850075637
    DFT Exchange-Correlation Energy =     -20.6345805685061627
    Empirical Dispersion Energy =           0.0000000000000000
    PCM Polarization Energy =               0.0000000000000000
    EFP Energy =                            0.0000000000000000
    Total Energy =                       -158.4532272976103116


  Saving occupied orbitals to File 180.

*** tstop() called on lski1497 at Tue Feb 21 18:28:01 2017
Module time:
	user time   =     119.23 seconds =       1.99 minutes
	system time =       1.52 seconds =       0.03 minutes
	total time  =        135 seconds =       2.25 minutes
Total time:
	user time   =     278.32 seconds =       4.64 minutes
	system time =       3.62 seconds =       0.06 minutes
	total time  =        313 seconds =       5.22 minutes


Properties will be evaluated at   0.000000,   0.000000,   0.000000 Bohr

Properties computed using the SCF density matrix

  Nuclear Dipole Moment: (a.u.)
     X:    -0.7974      Y:    -0.3334      Z:     0.2834

  Electronic Dipole Moment: (a.u.)
     X:     0.8193      Y:     0.3423      Z:    -0.2913

  Dipole Moment: (a.u.)
     X:     0.0218      Y:     0.0089      Z:    -0.0079     Total:     0.0249

  Dipole Moment: (Debye)
     X:     0.0555      Y:     0.0226      Z:    -0.0202     Total:     0.0633


*** tstart() called on lski1497
*** at Tue Feb 21 18:28:01 2017


         ------------------------------------------------------------
                                   SCF GRAD                          
                          Rob Parrish, Justin Turney,                
                       Andy Simmonett, and Alex Sokolov              
         ------------------------------------------------------------

  ==> Geometry <==

    Molecular point group: c1
    Full point group: C1

    Geometry (in Angstrom), charge = 0, multiplicity = 1:

       Center              X                  Y                   Z               Mass       
    ------------   -----------------  -----------------  -----------------  -----------------
           H         -1.813572422111     0.320866440089     0.117654964600     1.007825032070
           H         -1.635737774487     1.958656192873    -0.515455391340     1.007825032070
           H         -1.356474915503     0.569138824328    -1.569812255094     1.007825032070
           C         -1.246386200841     0.947298399141    -0.559955552135    12.000000000000
           H          0.796574191479     1.574355843966    -0.847592056216     1.007825032070
           H          0.347340443291     1.324116814711     0.847343318144     1.007825032070
           C          0.245041429250     0.939947254097    -0.161830191506    12.000000000000
           H          0.575014922955    -0.937228872671    -1.175075211448     1.007825032070
           H          1.903267061741    -0.443225812024    -0.113141623994     1.007825032070
           C          0.825039867927    -0.491359378550    -0.218155945466    12.000000000000
           H          0.665972087662    -2.364418839933     0.860219981048     1.007825032070
           H         -0.829553443012    -1.428404420109     0.822064899598     1.007825032070
           H          0.496548342583    -0.929490327071     1.876095257558     1.007825032070
           C          0.247744707493    -1.366018190979     0.914552738709    12.000000000000

  Nuclear repulsion =  132.965848520597632

  ==> Basis Set <==

  Basis Set: CC-PVDZ
    Number of shells: 54
    Number of basis function: 106
    Number of Cartesian functions: 110
    Spherical Harmonics?: true
    Max angular momentum: 2

  ==> DFJKGrad: Density-Fitted SCF Gradients <==

    Gradient:                    1
    J tasked:                  Yes
    K tasked:                  Yes
    wK tasked:                  No
    OpenMP threads:              1
    Integrals threads:           1
    Memory (MB):               715
    Schwarz Cutoff:          0E+00
    Fitting Condition:       1E-12

   => Auxiliary Basis Set <=

  Basis Set: 
    Number of shells: 186
    Number of basis function: 510
    Number of Cartesian functions: 574
    Spherical Harmonics?: true
    Max angular momentum: 3

  ==> DFT Potential <==

   => B3LYP Composite Functional <= 

    B3LYP Hybrid-GGA Exchange-Correlation Functional (VWN1-RPA)

    P.J. Stephens et. al., J. Phys. Chem., 98, 11623-11627, 1994

    Points   =           5000
    Deriv    =              1
    GGA      =           TRUE
    Meta     =          FALSE

    X_LRC        =          FALSE
    X_Hybrid     =           TRUE
    X_Alpha      =   2.000000E-01
    X_Omega      =   0.000000E+00
    C_LRC        =          FALSE
    C_Hybrid     =          FALSE
    C_Alpha      =   0.000000E+00
    C_Omega      =   0.000000E+00

   => Exchange Functionals <=

    0.8000    B3_X
    0.2000      HF 

   => Correlation Functionals <=

    0.1900 VWN3RPA_C
    0.8100   LYP_C

   => Molecular Quadrature <=

    Radial Scheme    =       TREUTLER
    Pruning Scheme   =           FLAT
    Nuclear Scheme   =       TREUTLER

    BS radius alpha  =              1
    Pruning alpha    =              1
    Radial Points    =             75
    Spherical Points =            302
    Total Points     =         312759
    Total Blocks     =            266
    Max Points       =           4845
    Max Functions    =            106


  -Total Gradient:
     Atom            X                  Y                   Z
    ------   -----------------  -----------------  -----------------
       1        0.009457208965     0.005387062471    -0.005605506119
       2        0.007208970277    -0.009638615411     0.000408816572
       3        0.003924667483     0.003999021760     0.011534861054
       4       -0.020575384510    -0.004986718226    -0.006727855271
       5       -0.006862868089    -0.009388070449     0.005154561846
       6       -0.003921209718    -0.007217804238    -0.010755372748
       7        0.012947541752     0.020877927619     0.011123248348
       8       -0.000938203930     0.005094581928     0.012379109252
       9       -0.012837227814     0.001203138242     0.001670251631
      10        0.014725055108    -0.009351930667    -0.020416254385
      11       -0.002732627333     0.012117615745    -0.002007498597
      12        0.011667645083     0.003487670488    -0.001824131415
      13       -0.001491695213    -0.002778329894    -0.011790913937
      14       -0.010572552999    -0.008805834318     0.016857011526


*** tstop() called on lski1497 at Tue Feb 21 18:28:44 2017
Module time:
	user time   =      38.94 seconds =       0.65 minutes
	system time =       0.61 seconds =       0.01 minutes
	total time  =         43 seconds =       0.72 minutes
Total time:
	user time   =     317.28 seconds =       5.29 minutes
	system time =       4.23 seconds =       0.07 minutes
	total time  =        356 seconds =       5.93 minutes

			-----------------------------------------
			 OPTKING 2.0: for geometry optimizations 
			  - R.A. King,  Bethel University        
			-----------------------------------------

	Previous internal coordinate definitions found.
	---Fragment 1 Geometry and Gradient---
	 H          -3.4271551999        0.6063496970        0.2223356613
	 H          -3.0910964190        3.7013237930       -0.9740695234
	 H          -2.5633660964        1.0755165096       -2.9665152422
	 C          -2.3553285754        1.7901345405       -1.0581626401
	 H           1.5053070664        2.9751013808       -1.6017168587
	 H           0.6563783127        2.5022181478        1.6012468118
	 C           0.4630611925        1.7762428896       -0.3058147420
	 H           1.0866207267       -1.7711058932       -2.2205703352
	 H           3.5966535044       -0.8375753998       -0.2138066836
	 C           1.5590993991       -0.9285346583       -0.4122549912
	 H           1.2585048578       -4.4681040709        1.6255801782
	 H          -1.5676288199       -2.6992931610        1.5534775237
	 H           0.9383403792       -1.7564821613        3.5453062360
	 C           0.4681696480       -2.5814002735        1.7282542102
	             0.0094572090        0.0053870625       -0.0056055061
	             0.0072089703       -0.0096386154        0.0004088166
	             0.0039246675        0.0039990218        0.0115348611
	            -0.0205753845       -0.0049867182       -0.0067278553
	            -0.0068628681       -0.0093880704        0.0051545618
	            -0.0039212097       -0.0072178042       -0.0107553727
	             0.0129475418        0.0208779276        0.0111232483
	            -0.0009382039        0.0050945819        0.0123791093
	            -0.0128372278        0.0012031382        0.0016702516
	             0.0147250551       -0.0093519307       -0.0204162544
	            -0.0027326273        0.0121176157       -0.0020074986
	             0.0116676451        0.0034876705       -0.0018241314
	            -0.0014916952       -0.0027783299       -0.0117909139
	            -0.0105725530       -0.0088058343        0.0168570115

	---Fragment 1 Intrafragment Coordinates---
	 - Coordinate -           - BOHR/RAD -       - ANG/DEG -
	 R(1,4)           =         2.046909	       1.083177
	 R(2,4)           =         2.049651	       1.084629
	 R(3,4)           =         2.048357	       1.083944
	 R(4,7)           =         2.917112	       1.543669
	 R(5,7)           =         2.050098	       1.084865
	 R(6,7)           =         2.049706	       1.084658
	 R(7,10)          =         2.920351	       1.545383
	 R(8,10)          =         2.050163	       1.084899
	 R(9,10)          =         2.049215	       1.084398
	 R(10,14)         =         2.916140	       1.543155
	 R(11,14)         =         2.048127	       1.083822
	 R(12,14)         =         2.046685	       1.083059
	 R(13,14)         =         2.050178	       1.084907
	 B(1,4,2)         =         1.902468	     109.003404
	 B(1,4,3)         =         1.904848	     109.139756
	 B(1,4,7)         =         1.919644	     109.987513
	 B(2,4,3)         =         1.903999	     109.091113
	 B(2,4,7)         =         1.918439	     109.918472
	 B(3,4,7)         =         1.914254	     109.678690
	 B(4,7,5)         =         1.902199	     108.988000
	 B(4,7,6)         =         1.906460	     109.232119
	 B(4,7,10)        =         1.936514	     110.954069
	 B(5,7,6)         =         1.910341	     109.454449
	 B(5,7,10)        =         1.904740	     109.133555
	 B(6,7,10)        =         1.903452	     109.059747
	 B(7,10,8)        =         1.903178	     109.044040
	 B(7,10,9)        =         1.905548	     109.179838
	 B(7,10,14)       =         1.936709	     110.965273
	 B(8,10,9)        =         1.910075	     109.439251
	 B(8,10,14)       =         1.905274	     109.164164
	 B(9,10,14)       =         1.902915	     109.029024
	 B(10,14,11)      =         1.918746	     109.936057
	 B(10,14,12)      =         1.919923	     110.003503
	 B(10,14,13)      =         1.914210	     109.676133
	 B(11,14,12)      =         1.903380	     109.055658
	 B(11,14,13)      =         1.903487	     109.061768
	 B(12,14,13)      =         1.903896	     109.085181
	 D(1,4,7,5)       =        -3.137846	    -179.785353
	 D(1,4,7,6)       =        -1.051419	     -60.241866
	 D(1,4,7,10)      =         1.047536	      60.019390
	 D(2,4,7,5)       =        -1.043058	     -59.762846
	 D(2,4,7,6)       =         1.043369	      59.780641
	 D(2,4,7,10)      =        -3.140861	    -179.958103
	 D(3,4,7,5)       =         1.050242	      60.174437
	 D(3,4,7,6)       =         3.136669	     179.717924
	 D(3,4,7,10)      =        -1.047561	     -60.020820
	 D(4,7,10,8)      =         0.876426	      50.215514
	 D(4,7,10,9)      =         2.962573	     169.742903
	 D(4,7,10,14)     =        -1.222790	     -70.060726
	 D(5,7,10,8)      =        -1.219866	     -69.893167
	 D(5,7,10,9)      =         0.866281	      49.634222
	 D(5,7,10,14)     =         2.964103	     169.830593
	 D(6,7,10,8)      =         2.977167	     170.579129
	 D(6,7,10,9)      =        -1.219871	     -69.893481
	 D(6,7,10,14)     =         0.877951	      50.302889
	 D(7,10,14,11)    =        -3.140383	    -179.930670
	 D(7,10,14,12)    =         1.046518	      59.961065
	 D(7,10,14,13)    =        -1.047550	     -60.020206
	 D(8,10,14,11)    =         1.044832	      59.864461
	 D(8,10,14,12)    =        -1.051453	     -60.243804
	 D(8,10,14,13)    =         3.137664	     179.774924
	 D(9,10,14,11)    =        -1.040996	     -59.644696
	 D(9,10,14,12)    =        -3.137281	    -179.752960
	 D(9,10,14,13)    =         1.051836	      60.265768

	Current energy   :      -158.4532272976

	Energy change for the previous step:
		Projected    :        -0.0080233399
		Actual       :        -0.0061478246

	Performing BFGS update.
	Previous computed or guess Hessian on step 1.
	Steps to be used in Hessian update: 1
	Adding user-defined constraint: Fragment 1; Coordinate 49:
		Value =    -1.222790; Fixed value    =    -1.221730
		Force =     0.000557; Force constant =     0.525000
	Removing off-diagonal coupling between coordinate 49 and others.
	Taking RFO optimization step.
	Going to follow RFO solution 1.
	Using RFO vector 1.

	Determining step-restricting scale parameter for RS-RFO.
	Maximum step size allowed    0.10000

	 Iter      |step|        alpha        rfo_root  
	------------------------------------------------
	    0     0.20016       1.00000           1
	    1     0.15137       7.00034           1
	    2     0.12044      18.40876           1
	    3     0.10496      30.28339           1
	    4     0.10040      35.21902           1
	    5     0.10000      35.69209           1
	------------------------------------------------
	Norm of target step-size    0.10000
	Projected energy change by RFO approximation:        -0.0041348634

	Back-transformation to cartesian coordinates...
	Could not converge backtransformation.
	Using first guess instead.

	--- Internal Coordinate Step in ANG or DEG, aJ/ANG or AJ/DEG ---
	 ---------------------------------------------------------------------------
	   Coordinate                Previous        Force       Change         New 
	   ----------                --------       ------       ------       ------
	    1 R(1,4)          =      1.083177     0.095356     0.012647     1.095824
	    2 R(2,4)          =      1.084629     0.095222     0.011553     1.096182
	    3 R(3,4)          =      1.083944     0.103325     0.012768     1.096712
	    4 R(4,7)          =      1.543669    -0.000487    -0.002200     1.541469
	    5 R(5,7)          =      1.084865     0.100821     0.012256     1.097121
	    6 R(6,7)          =      1.084658     0.106548     0.013229     1.097886
	    7 R(7,10)         =      1.545383     0.012555    -0.000982     1.544401
	    8 R(8,10)         =      1.084899     0.105421     0.013102     1.098001
	    9 R(9,10)         =      1.084398     0.103390     0.012538     1.096936
	   10 R(10,14)        =      1.543155     0.001679    -0.001881     1.541273
	   11 R(11,14)        =      1.083822     0.099818     0.012053     1.095875
	   12 R(12,14)        =      1.083059     0.095986     0.012718     1.095777
	   13 R(13,14)        =      1.084907     0.098134     0.012198     1.097105
	   14 B(1,4,2)        =    109.003404    -0.000302    -0.721607   108.281797
	   15 B(1,4,3)        =    109.139756    -0.000245    -0.667463   108.472293
	   16 B(1,4,7)        =    109.987513     0.000337     0.830611   110.818123
	   17 B(2,4,3)        =    109.091113    -0.000233    -0.585489   108.505625
	   18 B(2,4,7)        =    109.918472     0.000256     0.593646   110.512118
	   19 B(3,4,7)        =    109.678690     0.000175     0.500563   110.179253
	   20 B(4,7,5)        =    108.988000    -0.000212    -0.285881   108.702119
	   21 B(4,7,6)        =    109.232119    -0.000150    -0.178738   109.053381
	   22 B(4,7,10)       =    110.954069     0.000766     1.448726   112.402794
	   23 B(5,7,6)        =    109.454449    -0.000035    -0.452064   109.002385
	   24 B(5,7,10)       =    109.133555    -0.000174    -0.283311   108.850243
	   25 B(6,7,10)       =    109.059747    -0.000201    -0.282624   108.777122
	   26 B(7,10,8)       =    109.044040    -0.000202    -0.284281   108.759759
	   27 B(7,10,9)       =    109.179838    -0.000177    -0.292085   108.887753
	   28 B(7,10,14)      =    110.965273     0.000765     1.445586   112.410859
	   29 B(8,10,9)       =    109.439251    -0.000034    -0.450163   108.989088
	   30 B(8,10,14)      =    109.164164    -0.000144    -0.158058   109.006105
	   31 B(9,10,14)      =    109.029024    -0.000214    -0.295133   108.733892
	   32 B(10,14,11)     =    109.936057     0.000256     0.590801   110.526858
	   33 B(10,14,12)     =    110.003503     0.000335     0.822638   110.826142
	   34 B(10,14,13)     =    109.676133     0.000176     0.502897   110.179030
	   35 B(11,14,12)     =    109.055658    -0.000304    -0.731922   108.323736
	   36 B(11,14,13)     =    109.061768    -0.000232    -0.579686   108.482082
	   37 B(12,14,13)     =    109.085181    -0.000242    -0.654896   108.430284
	   38 D(1,4,7,5)      =   -179.785353     0.000032     0.417927  -179.367426
	   39 D(1,4,7,6)      =    -60.241866    -0.000027    -0.401062   -60.642928
	   40 D(1,4,7,10)     =     60.019390     0.000004     0.049171    60.068561
	   41 D(2,4,7,5)      =    -59.762846     0.000032     0.433251   -59.329596
	   42 D(2,4,7,6)      =     59.780641    -0.000027    -0.385739    59.394902
	   43 D(2,4,7,10)     =   -179.958103     0.000004     0.064495  -179.893609
	   44 D(3,4,7,5)      =     60.174437     0.000028     0.399619    60.574056
	   45 D(3,4,7,6)      =    179.717924    -0.000031    -0.419370   179.298553
	   46 D(3,4,7,10)     =    -60.020820    -0.000000     0.030863   -59.989957
	   47 D(4,7,10,8)     =     50.215514     0.000030     0.483310    50.698824
	   48 D(4,7,10,9)     =    169.742903    -0.000031    -0.397476   169.345427
	   49 D(4,7,10,14)    =    -70.060726    -0.000008    -0.044655   -70.105382
	   50 D(5,7,10,8)     =    -69.893167     0.000007     0.113394   -69.779773
	   51 D(5,7,10,9)     =     49.634222    -0.000055    -0.767392    48.866830
	   52 D(5,7,10,14)    =    169.830593    -0.000032    -0.414571   169.416021
	   53 D(6,7,10,8)     =    170.579129     0.000067     0.990045   171.569175
	   54 D(6,7,10,9)     =    -69.893481     0.000006     0.109259   -69.784222
	   55 D(6,7,10,14)    =     50.302889     0.000029     0.462080    50.764969
	   56 D(7,10,14,11)   =   -179.930670     0.000004     0.063740  -179.866930
	   57 D(7,10,14,12)   =     59.961065     0.000005     0.066710    60.027775
	   58 D(7,10,14,13)   =    -60.020206     0.000000     0.036908   -59.983298
	   59 D(8,10,14,11)   =     59.864461    -0.000027    -0.393872    59.470589
	   60 D(8,10,14,12)   =    -60.243804    -0.000026    -0.390902   -60.634706
	   61 D(8,10,14,13)   =    179.774924    -0.000031    -0.420703   179.354221
	   62 D(9,10,14,11)   =    -59.644696     0.000031     0.415602   -59.229094
	   63 D(9,10,14,12)   =   -179.752960     0.000032     0.418571  -179.334389
	   64 D(9,10,14,13)   =     60.265768     0.000027     0.388770    60.654538
	 ---------------------------------------------------------------------------
	 Forces used to impose fixed constraints are not included.
	  Forces zeroed: 49 

  ==> Convergence Check <==

  Measures of convergence in internal coordinates in au.
  Criteria marked as inactive (o), active & met (*), and active & unmet ( ).
  ---------------------------------------------------------------------------------------------
   Step     Total Energy     Delta E     MAX Force     RMS Force      MAX Disp      RMS Disp   
  ---------------------------------------------------------------------------------------------
    Convergence Criteria    1.00e-06 *    3.00e-04 *             o    1.20e-03 *             o
  ---------------------------------------------------------------------------------------------
      2    -158.45322730   -6.15e-03      1.29e-02      5.53e-03 o    2.53e-02      1.26e-02 o  ~
  ---------------------------------------------------------------------------------------------

	Writing optimization data to binary file.
	Structure for next step:
	Cartesian Geometry (in Angstrom)
	    H    -1.8532908537   0.3571920105   0.1112601445
	    H    -1.6351897392   1.9983256273  -0.5330875966
	    H    -1.3797441547   0.5878971357  -1.5880658909
	    C    -1.2525092640   0.9717252458  -0.5686231302
	    H     0.8018480437   1.5694666725  -0.8630173955
	    H     0.3434017740   1.3351064281   0.8482184966
	    C     0.2357868907   0.9359222895  -0.1688485663
	    H     0.5795152308  -0.9478054473  -1.1762783751
	    H     1.9115289897  -0.4325624336  -0.1025191792
	    C     0.8212094504  -0.4927215096  -0.2066961932
	    H     0.7015083233  -2.3894131323   0.8653169163
	    H    -0.8240942234  -1.4791081750   0.8407692493
	    H     0.5059962063  -0.9540357222   1.8989122156
	    C     0.2648516243  -1.3857550614   0.9195722372
			--------------------------
			 OPTKING Finished Execution 
			--------------------------

    Structure for next step:
    Molecular point group: c1
    Full point group: C1

    Geometry (in Angstrom), charge = 0, multiplicity = 1:

    H           -1.852893188742     0.357323950809     0.111110001031
    H           -1.634792074201     1.998457567522    -0.533237740041
    H           -1.379346489759     0.588029075929    -1.588216034398
    C           -1.252111599003     0.971857186017    -0.568773273685
    H            0.802245708658     1.569598612726    -0.863167538946
    H            0.343799438970     1.335238368401     0.848068353129
    C            0.236184555638     0.936054229758    -0.168998709748
    H            0.579912895802    -0.947673507049    -1.176428518581
    H            1.911926654671    -0.432430493370    -0.102669322693
    C            0.821607115376    -0.492589569379    -0.206846336628
    H            0.701905988205    -2.389281192075     0.865166772819
    H           -0.823696558409    -1.478976234694     0.840619105862
    H            0.506393871296    -0.953903781941     1.898762072126
    C            0.265249289277    -1.385623121141     0.919422093738

gradient() will perform analytic gradient computation.

*** tstart() called on lski1497
*** at Tue Feb 21 18:28:45 2017


         ---------------------------------------------------------
                                   SCF
            by Justin Turney, Rob Parrish, and Andy Simmonett
                              RKS Reference
                        1 Threads,   1000 MiB Core
         ---------------------------------------------------------

  ==> Geometry <==

    Molecular point group: c1
    Full point group: C1

    Geometry (in Angstrom), charge = 0, multiplicity = 1:

       Center              X                  Y                   Z               Mass       
    ------------   -----------------  -----------------  -----------------  -----------------
           H         -1.852893188742     0.357323950809     0.111110001031     1.007825032070
           H         -1.634792074201     1.998457567522    -0.533237740041     1.007825032070
           H         -1.379346489759     0.588029075929    -1.588216034398     1.007825032070
           C         -1.252111599003     0.971857186017    -0.568773273685    12.000000000000
           H          0.802245708658     1.569598612726    -0.863167538946     1.007825032070
           H          0.343799438970     1.335238368401     0.848068353129     1.007825032070
           C          0.236184555638     0.936054229758    -0.168998709748    12.000000000000
           H          0.579912895802    -0.947673507049    -1.176428518581     1.007825032070
           H          1.911926654671    -0.432430493370    -0.102669322693     1.007825032070
           C          0.821607115376    -0.492589569379    -0.206846336628    12.000000000000
           H          0.701905988205    -2.389281192075     0.865166772819     1.007825032070
           H         -0.823696558409    -1.478976234694     0.840619105862     1.007825032070
           H          0.506393871296    -0.953903781941     1.898762072126     1.007825032070
           C          0.265249289277    -1.385623121141     0.919422093738    12.000000000000

  Running in c1 symmetry.

  Rotational constants: A =      0.44203  B =      0.15686  C =      0.13555 [cm^-1]
  Rotational constants: A =  13251.82909  B =   4702.60559  C =   4063.80481 [MHz]
  Nuclear repulsion =  132.046621808927171

  Charge       = 0
  Multiplicity = 1
  Electrons    = 34
  Nalpha       = 17
  Nbeta        = 17

  ==> Algorithm <==

  SCF Algorithm Type is DF.
  DIIS enabled.
  MOM disabled.
  Fractional occupation disabled.
  Guess Type is READ.
  Energy threshold   = 1.00e-08
  Density threshold  = 1.00e-08
  Integral threshold = 0.00e+00

  ==> Primary Basis <==

  Basis Set: CC-PVDZ
    Number of shells: 54
    Number of basis function: 106
    Number of Cartesian functions: 110
    Spherical Harmonics?: true
    Max angular momentum: 2

  ==> DFT Potential <==

   => B3LYP Composite Functional <= 

    B3LYP Hybrid-GGA Exchange-Correlation Functional (VWN1-RPA)

    P.J. Stephens et. al., J. Phys. Chem., 98, 11623-11627, 1994

    Points   =           5000
    Deriv    =              1
    GGA      =           TRUE
    Meta     =          FALSE

    X_LRC        =          FALSE
    X_Hybrid     =           TRUE
    X_Alpha      =   2.000000E-01
    X_Omega      =   0.000000E+00
    C_LRC        =          FALSE
    C_Hybrid     =          FALSE
    C_Alpha      =   0.000000E+00
    C_Omega      =   0.000000E+00

   => Exchange Functionals <=

    0.8000    B3_X
    0.2000      HF 

   => Correlation Functionals <=

    0.1900 VWN3RPA_C
    0.8100   LYP_C

   => Molecular Quadrature <=

    Radial Scheme    =       TREUTLER
    Pruning Scheme   =           FLAT
    Nuclear Scheme   =       TREUTLER

    BS radius alpha  =              1
    Pruning alpha    =              1
    Radial Points    =             75
    Spherical Points =            302
    Total Points     =         312778
    Total Blocks     =            264
    Max Points       =           4867
    Max Functions    =            106

  ==> Pre-Iterations <==

   -------------------------------------------------------
    Irrep   Nso     Nmo     Nalpha   Nbeta   Ndocc  Nsocc
   -------------------------------------------------------
     A        106     106       0       0       0       0
   -------------------------------------------------------
    Total     106     106      17      17      17       0
   -------------------------------------------------------

  ==> Integral Setup <==

  ==> DFJK: Density-Fitted J/K Matrices <==

    J tasked:                  Yes
    K tasked:                  Yes
    wK tasked:                  No
    OpenMP threads:              1
    Integrals threads:           1
    Memory (MB):               715
    Algorithm:                Core
    Integral Cache:           NONE
    Schwarz Cutoff:          1E-12
    Fitting Condition:       1E-12

   => Auxiliary Basis Set <=

  Basis Set: 
    Number of shells: 186
    Number of basis function: 510
    Number of Cartesian functions: 574
    Spherical Harmonics?: true
    Max angular momentum: 3

  Minimum eigenvalue in the overlap matrix is 5.1135091884E-03.
  Using Symmetric Orthogonalization.
  SCF Guess was Projection but file not found.
  Switching over to SAD guess.

  SCF Guess: Superposition of Atomic Densities via on-the-fly atomic UHF.

  ==> Iterations <==

                           Total Energy        Delta E     RMS |[F,P]|

   @DF-RKS iter   0:  -158.89288323866882   -1.58893e+02   3.22501e-02 
   @DF-RKS iter   1:  -158.29086573556407    6.02018e-01   5.05107e-03 
   @DF-RKS iter   2:  -158.21668479650631    7.41809e-02   6.18353e-03 DIIS
   @DF-RKS iter   3:  -158.45533177196759   -2.38647e-01   3.73798e-04 DIIS
   @DF-RKS iter   4:  -158.45613793754751   -8.06166e-04   1.16042e-04 DIIS
   @DF-RKS iter   5:  -158.45620424465207   -6.63071e-05   4.83403e-05 DIIS
   @DF-RKS iter   6:  -158.45621699273937   -1.27481e-05   7.10096e-06 DIIS
   @DF-RKS iter   7:  -158.45621730522834   -3.12489e-07   1.05379e-06 DIIS
   @DF-RKS iter   8:  -158.45621731279107   -7.56273e-09   1.58971e-07 DIIS
   @DF-RKS iter   9:  -158.45621731291178   -1.20707e-10   8.85541e-08 DIIS
   @DF-RKS iter  10:  -158.45621731295503   -4.32578e-11   1.61589e-08 DIIS
   @DF-RKS iter  11:  -158.45621731295699   -1.96110e-12   1.95162e-09 DIIS

  ==> Post-Iterations <==

    Orbital Energies (a.u.)
    -----------------------

    Doubly Occupied:                                                      

       1A    -10.178646     2A    -10.178478     3A    -10.173424  
       4A    -10.173400     5A     -0.790312     6A     -0.715740  
       7A     -0.635856     8A     -0.564035     9A     -0.453400  
      10A     -0.452465    11A     -0.414731    12A     -0.379659  
      13A     -0.378187    14A     -0.356580    15A     -0.326611  
      16A     -0.319039    17A     -0.318559  

    Virtual:                                                              

      18A      0.059199    19A      0.092895    20A      0.095481  
      21A      0.103759    22A      0.131955    23A      0.140935  
      24A      0.150204    25A      0.155400    26A      0.157269  
      27A      0.191602    28A      0.216681    29A      0.233857  
      30A      0.262213    31A      0.403220    32A      0.406655  
      33A      0.431150    34A      0.434818    35A      0.441625  
      36A      0.473037    37A      0.532132    38A      0.587710  
      39A      0.601078    40A      0.623186    41A      0.626993  
      42A      0.644842    43A      0.649887    44A      0.661049  
      45A      0.669268    46A      0.678848    47A      0.684057  
      48A      0.688099    49A      0.705330    50A      0.717539  
      51A      0.756187    52A      0.800732    53A      0.896100  
      54A      0.903947    55A      0.963442    56A      1.103445  
      57A      1.131511    58A      1.181426    59A      1.188702  
      60A      1.257450    61A      1.349129    62A      1.379177  
      63A      1.418005    64A      1.434045    65A      1.450355  
      66A      1.459682    67A      1.569152    68A      1.578254  
      69A      1.606734    70A      1.625397    71A      1.634961  
      72A      1.647170    73A      1.656035    74A      1.671822  
      75A      1.677083    76A      1.686872    77A      1.698718  
      78A      1.710091    79A      1.719594    80A      1.723169  
      81A      1.790375    82A      1.803432    83A      1.872330  
      84A      1.874736    85A      1.972443    86A      1.984911  
      87A      2.026793    88A      2.034821    89A      2.084933  
      90A      2.123424    91A      2.201281    92A      2.234643  
      93A      2.252809    94A      2.261612    95A      2.292894  
      96A      2.311079    97A      2.424895    98A      2.436021  
      99A      2.449887   100A      2.487009   101A      2.493723  
     102A      2.530369   103A      2.615651   104A      2.616536  
     105A      2.685343   106A      2.723453  

    Final Occupation by Irrep:
              A 
    DOCC [    17 ]

  Energy converged.

  @DF-RKS Final Energy:  -158.45621731295699

   => Energetics <=

    Nuclear Repulsion Energy =            132.0466218089271706
    One-Electron Energy =                -472.5789515829227412
    Two-Electron Energy =                 202.6745887896065597
    DFT Exchange-Correlation Energy =     -20.5984763285679975
    Empirical Dispersion Energy =           0.0000000000000000
    PCM Polarization Energy =               0.0000000000000000
    EFP Energy =                            0.0000000000000000
    Total Energy =                       -158.4562173129569942


  Saving occupied orbitals to File 180.

*** tstop() called on lski1497 at Tue Feb 21 18:31:00 2017
Module time:
	user time   =     120.31 seconds =       2.01 minutes
	system time =       1.52 seconds =       0.03 minutes
	total time  =        135 seconds =       2.25 minutes
Total time:
	user time   =     438.32 seconds =       7.31 minutes
	system time =       5.78 seconds =       0.10 minutes
	total time  =        492 seconds =       8.20 minutes


Properties will be evaluated at   0.000000,   0.000000,   0.000000 Bohr

Properties computed using the SCF density matrix

  Nuclear Dipole Moment: (a.u.)
     X:    -0.7917      Y:    -0.3315      Z:     0.2812

  Electronic Dipole Moment: (a.u.)
     X:     0.8122      Y:     0.3401      Z:    -0.2886

  Dipole Moment: (a.u.)
     X:     0.0205      Y:     0.0086      Z:    -0.0074     Total:     0.0234

  Dipole Moment: (Debye)
     X:     0.0521      Y:     0.0218      Z:    -0.0188     Total:     0.0595


*** tstart() called on lski1497
*** at Tue Feb 21 18:31:00 2017


         ------------------------------------------------------------
                                   SCF GRAD                          
                          Rob Parrish, Justin Turney,                
                       Andy Simmonett, and Alex Sokolov              
         ------------------------------------------------------------

  ==> Geometry <==

    Molecular point group: c1
    Full point group: C1

    Geometry (in Angstrom), charge = 0, multiplicity = 1:

       Center              X                  Y                   Z               Mass       
    ------------   -----------------  -----------------  -----------------  -----------------
           H         -1.852893188742     0.357323950809     0.111110001031     1.007825032070
           H         -1.634792074201     1.998457567522    -0.533237740041     1.007825032070
           H         -1.379346489759     0.588029075929    -1.588216034398     1.007825032070
           C         -1.252111599003     0.971857186017    -0.568773273685    12.000000000000
           H          0.802245708658     1.569598612726    -0.863167538946     1.007825032070
           H          0.343799438970     1.335238368401     0.848068353129     1.007825032070
           C          0.236184555638     0.936054229758    -0.168998709748    12.000000000000
           H          0.579912895802    -0.947673507049    -1.176428518581     1.007825032070
           H          1.911926654671    -0.432430493370    -0.102669322693     1.007825032070
           C          0.821607115376    -0.492589569379    -0.206846336628    12.000000000000
           H          0.701905988205    -2.389281192075     0.865166772819     1.007825032070
           H         -0.823696558409    -1.478976234694     0.840619105862     1.007825032070
           H          0.506393871296    -0.953903781941     1.898762072126     1.007825032070
           C          0.265249289277    -1.385623121141     0.919422093738    12.000000000000

  Nuclear repulsion =  132.046621808927171

  ==> Basis Set <==

  Basis Set: CC-PVDZ
    Number of shells: 54
    Number of basis function: 106
    Number of Cartesian functions: 110
    Spherical Harmonics?: true
    Max angular momentum: 2

  ==> DFJKGrad: Density-Fitted SCF Gradients <==

    Gradient:                    1
    J tasked:                  Yes
    K tasked:                  Yes
    wK tasked:                  No
    OpenMP threads:              1
    Integrals threads:           1
    Memory (MB):               715
    Schwarz Cutoff:          0E+00
    Fitting Condition:       1E-12

   => Auxiliary Basis Set <=

  Basis Set: 
    Number of shells: 186
    Number of basis function: 510
    Number of Cartesian functions: 574
    Spherical Harmonics?: true
    Max angular momentum: 3

  ==> DFT Potential <==

   => B3LYP Composite Functional <= 

    B3LYP Hybrid-GGA Exchange-Correlation Functional (VWN1-RPA)

    P.J. Stephens et. al., J. Phys. Chem., 98, 11623-11627, 1994

    Points   =           5000
    Deriv    =              1
    GGA      =           TRUE
    Meta     =          FALSE

    X_LRC        =          FALSE
    X_Hybrid     =           TRUE
    X_Alpha      =   2.000000E-01
    X_Omega      =   0.000000E+00
    C_LRC        =          FALSE
    C_Hybrid     =          FALSE
    C_Alpha      =   0.000000E+00
    C_Omega      =   0.000000E+00

   => Exchange Functionals <=

    0.8000    B3_X
    0.2000      HF 

   => Correlation Functionals <=

    0.1900 VWN3RPA_C
    0.8100   LYP_C

   => Molecular Quadrature <=

    Radial Scheme    =       TREUTLER
    Pruning Scheme   =           FLAT
    Nuclear Scheme   =       TREUTLER

    BS radius alpha  =              1
    Pruning alpha    =              1
[...]
  Basis Set: CC-PVDZ
    Number of shells: 54
    Number of basis function: 106
    Number of Cartesian functions: 110
    Spherical Harmonics?: true
    Max angular momentum: 2

  ==> DFJKGrad: Density-Fitted SCF Gradients <==

    Gradient:                    1
    J tasked:                  Yes
    K tasked:                  Yes
    wK tasked:                  No
    OpenMP threads:              1
    Integrals threads:           1
    Memory (MB):               715
    Schwarz Cutoff:          0E+00
    Fitting Condition:       1E-12

   => Auxiliary Basis Set <=

  Basis Set: 
    Number of shells: 186
    Number of basis function: 510
    Number of Cartesian functions: 574
    Spherical Harmonics?: true
    Max angular momentum: 3

  ==> DFT Potential <==

   => B3LYP Composite Functional <= 

    B3LYP Hybrid-GGA Exchange-Correlation Functional (VWN1-RPA)

    P.J. Stephens et. al., J. Phys. Chem., 98, 11623-11627, 1994

    Points   =           5000
    Deriv    =              1
    GGA      =           TRUE
    Meta     =          FALSE

    X_LRC        =          FALSE
    X_Hybrid     =           TRUE
    X_Alpha      =   2.000000E-01
    X_Omega      =   0.000000E+00
    C_LRC        =          FALSE
    C_Hybrid     =          FALSE
    C_Alpha      =   0.000000E+00
    C_Omega      =   0.000000E+00

   => Exchange Functionals <=

    0.8000    B3_X
    0.2000      HF 

   => Correlation Functionals <=

    0.1900 VWN3RPA_C
    0.8100   LYP_C

   => Molecular Quadrature <=

    Radial Scheme    =       TREUTLER
    Pruning Scheme   =           FLAT
    Nuclear Scheme   =       TREUTLER

    BS radius alpha  =              1
    Pruning alpha    =              1
    Radial Points    =             75
    Spherical Points =            302
    Total Points     =         312796
    Total Blocks     =            263
    Max Points       =           4990
    Max Functions    =            106


  -Total Gradient:
     Atom            X                  Y                   Z
    ------   -----------------  -----------------  -----------------
       1        0.000004218562     0.000003951894    -0.000002161661
       2       -0.000002898744    -0.000000806429    -0.000001910815
       3       -0.000001155812     0.000003233381     0.000005535192
       4        0.000167776865     0.000063290077    -0.000560618527
       5        0.000003594543    -0.000003470331     0.000010886527
       6       -0.000010243732    -0.000000709774    -0.000005742802
       7       -0.000054217952    -0.000012213375     0.000924819526
       8       -0.000002797907    -0.000004672164     0.000010370238
       9       -0.000006543320     0.000002371092    -0.000009846978
      10       -0.000541946763    -0.000238052788    -0.000712874788
      11       -0.000000997145    -0.000000978168     0.000003175423
      12        0.000006163090     0.000000311280    -0.000001607022
      13       -0.000001569065    -0.000004532433    -0.000004855420
      14        0.000436834494     0.000190691189     0.000346177026


*** tstop() called on lski1497 at Tue Feb 21 18:44:24 2017
Module time:
	user time   =      39.32 seconds =       0.66 minutes
	system time =       0.68 seconds =       0.01 minutes
	total time  =         46 seconds =       0.77 minutes
Total time:
	user time   =    1128.42 seconds =      18.81 minutes
	system time =      15.57 seconds =       0.26 minutes
	total time  =       1296 seconds =      21.60 minutes

			-----------------------------------------
			 OPTKING 2.0: for geometry optimizations 
			  - R.A. King,  Bethel University        
			-----------------------------------------

	Previous internal coordinate definitions found.
	---Fragment 1 Geometry and Gradient---
	 H          -3.5873189819        0.8173104825        0.2234179571
	 H          -3.0539543697        3.8620201679       -1.0806964012
	 H          -2.6738642131        1.1243389141       -2.9968310759
	 C          -2.3714276470        1.8940211298       -1.0817993128
	 H           1.5280866937        2.9500322220       -1.6348506131
	 H           0.6818745018        2.5795908815        1.5691965402
	 C           0.4214408118        1.7512612626       -0.3323846369
	 H           1.1687432600       -1.8039931704       -2.2273916652
	 H           3.6109919845       -0.7962317416       -0.1929236107
	 C           1.5347435467       -0.9314207900       -0.3633565019
	 H           1.4396701443       -4.5385701863        1.6548275474
	 H          -1.5184881278       -2.9571594970        1.5925264044
	 H           0.9278384783       -1.8561094157        3.6178289018
	 C           0.5392410943       -2.6618938318        1.7334393733
	             0.0000042186        0.0000039519       -0.0000021617
	            -0.0000028987       -0.0000008064       -0.0000019108
	            -0.0000011558        0.0000032334        0.0000055352
	             0.0001677769        0.0000632901       -0.0005606185
	             0.0000035945       -0.0000034703        0.0000108865
	            -0.0000102437       -0.0000007098       -0.0000057428
	            -0.0000542180       -0.0000122134        0.0009248195
	            -0.0000027979       -0.0000046722        0.0000103702
	            -0.0000065433        0.0000023711       -0.0000098470
	            -0.0005419468       -0.0002380528       -0.0007128748
	            -0.0000009971       -0.0000009782        0.0000031754
	             0.0000061631        0.0000003113       -0.0000016070
	            -0.0000015691       -0.0000045324       -0.0000048554
	             0.0004368345        0.0001906912        0.0003461770

	---Fragment 1 Intrafragment Coordinates---
	 - Coordinate -           - BOHR/RAD -       - ANG/DEG -
	 R(1,4)           =         2.083576	       1.102581
	 R(2,4)           =         2.082994	       1.102273
	 R(3,4)           =         2.085959	       1.103842
	 R(4,7)           =         2.895189	       1.532068
	 R(5,7)           =         2.087615	       1.104718
	 R(6,7)           =         2.090447	       1.106217
	 R(7,10)          =         2.904683	       1.537092
	 R(8,10)          =         2.090446	       1.106217
	 R(9,10)          =         2.087614	       1.104718
	 R(10,14)         =         2.895188	       1.532068
	 R(11,14)         =         2.082995	       1.102273
	 R(12,14)         =         2.083576	       1.102581
	 R(13,14)         =         2.085958	       1.103841
	 B(1,4,2)         =         1.872019	     107.258771
	 B(1,4,3)         =         1.875296	     107.446563
	 B(1,4,7)         =         1.955521	     112.043113
	 B(2,4,3)         =         1.877157	     107.553186
	 B(2,4,7)         =         1.941784	     111.256028
	 B(3,4,7)         =         1.938321	     111.057599
	 B(4,7,5)         =         1.898168	     108.757014
	 B(4,7,6)         =         1.913573	     109.639652
	 B(4,7,10)        =         1.996008	     114.362832
	 B(5,7,6)         =         1.848301	     105.899845
	 B(5,7,10)        =         1.897068	     108.693991
	 B(6,7,10)        =         1.904887	     109.141985
	 B(7,10,8)        =         1.904887	     109.141975
	 B(7,10,9)        =         1.897067	     108.693955
	 B(7,10,14)       =         1.996007	     114.362798
	 B(8,10,9)        =         1.848302	     105.899897
	 B(8,10,14)       =         1.913574	     109.639720
	 B(9,10,14)       =         1.898167	     108.756979
	 B(10,14,11)      =         1.941783	     111.255958
	 B(10,14,12)      =         1.955520	     112.043054
	 B(10,14,13)      =         1.938322	     111.057651
	 B(11,14,12)      =         1.872018	     107.258714
	 B(11,14,13)      =         1.877158	     107.553227
	 B(12,14,13)      =         1.875298	     107.446661
	 D(1,4,7,5)       =        -3.084316	    -176.718310
	 D(1,4,7,6)       =        -1.070820	     -61.353455
	 D(1,4,7,10)      =         1.074936	      61.589284
	 D(2,4,7,5)       =        -0.988816	     -56.654961
	 D(2,4,7,6)       =         1.024681	      58.709895
	 D(2,4,7,10)      =        -3.112749	    -178.347367
	 D(3,4,7,5)       =         1.101583	      63.116048
	 D(3,4,7,6)       =         3.115079	     178.480904
	 D(3,4,7,10)      =        -1.022350	     -58.576358
	 D(4,7,10,8)      =         0.930135	      53.292832
	 D(4,7,10,9)      =         2.938335	     168.354207
	 D(4,7,10,14)     =        -1.220315	     -69.918904
	 D(5,7,10,8)      =        -1.194401	     -68.434151
	 D(5,7,10,9)      =         0.813799	      46.627224
	 D(5,7,10,14)     =         2.938334	     168.354113
	 D(6,7,10,8)      =         3.080585	     176.504510
	 D(6,7,10,9)      =        -1.194401	     -68.434114
	 D(6,7,10,14)     =         0.930134	      53.292774
	 D(7,10,14,11)    =        -3.112754	    -178.347657
	 D(7,10,14,12)    =         1.074934	      61.589154
	 D(7,10,14,13)    =        -1.022355	     -58.576609
	 D(8,10,14,11)    =         1.024676	      58.709589
	 D(8,10,14,12)    =        -1.070822	     -61.353600
	 D(8,10,14,13)    =         3.115075	     178.480637
	 D(9,10,14,11)    =        -0.988822	     -56.655347
	 D(9,10,14,12)    =        -3.084320	    -176.718536
	 D(9,10,14,13)    =         1.101577	      63.115701

	Current energy   :      -158.4574149763

	Energy change for the previous step:
		Projected    :         0.0000003592
		Actual       :        -0.0000007876

	Performing BFGS update.
	Previous computed or guess Hessian on step 1.
	Steps to be used in Hessian update: 6 5
	Adding user-defined constraint: Fragment 1; Coordinate 49:
		Value =    -1.220315; Fixed value    =    -1.221730
		Force =    -0.000920; Force constant =     0.650000
	Removing off-diagonal coupling between coordinate 49 and others.
	Taking RFO optimization step.
	Going to follow RFO solution 1.
	Rejecting RFO root 1 because normalization gives large value.
	Using RFO vector 2.
	Norm of target step-size    0.00303
	Projected energy change by RFO approximation:        -0.0000003745

	Back-transformation to cartesian coordinates...
	Successfully converged to displaced geometry.

	--- Internal Coordinate Step in ANG or DEG, aJ/ANG or AJ/DEG ---
	 ---------------------------------------------------------------------------
	   Coordinate                Previous        Force       Change         New 
	   ----------                --------       ------       ------       ------
	    1 R(1,4)          =      1.102581     0.000049    -0.000055     1.102526
	    2 R(2,4)          =      1.102273    -0.000006    -0.000073     1.102200
	    3 R(3,4)          =      1.103842     0.000058    -0.000051     1.103791
	    4 R(4,7)          =      1.532068     0.000129     0.000055     1.532123
	    5 R(5,7)          =      1.104718     0.000056     0.000025     1.104743
	    6 R(6,7)          =      1.106217     0.000052    -0.000014     1.106202
	    7 R(7,10)         =      1.537092    -0.000115    -0.000019     1.537074
	    8 R(8,10)         =      1.106217     0.000053    -0.000014     1.106202
	    9 R(9,10)         =      1.104718     0.000058     0.000025     1.104742
	   10 R(10,14)        =      1.532068     0.000130     0.000055     1.532122
	   11 R(11,14)        =      1.102273    -0.000007    -0.000075     1.102198
	   12 R(12,14)        =      1.102581     0.000050    -0.000055     1.102526
	   13 R(13,14)        =      1.103841     0.000060    -0.000045     1.103797
	   14 B(1,4,2)        =    107.258771     0.000000     0.005847   107.264617
	   15 B(1,4,3)        =    107.446563    -0.000000     0.000328   107.446891
	   16 B(1,4,7)        =    112.043113     0.000000    -0.004557   112.038556
	   17 B(2,4,3)        =    107.553186     0.000000     0.003051   107.556237
	   18 B(2,4,7)        =    111.256028    -0.000000     0.004700   111.260727
	   19 B(3,4,7)        =    111.057599    -0.000000    -0.008754   111.048845
	   20 B(4,7,5)        =    108.757014     0.000001    -0.019932   108.737082
	   21 B(4,7,6)        =    109.639652    -0.000001     0.012222   109.651874
	   22 B(4,7,10)       =    114.362832    -0.000000    -0.006868   114.355964
	   23 B(5,7,6)        =    105.899845     0.000000    -0.002075   105.897770
	   24 B(5,7,10)       =    108.693991     0.000000     0.009094   108.703085
	   25 B(6,7,10)       =    109.141985    -0.000000     0.007711   109.149696
	   26 B(7,10,8)       =    109.141975    -0.000000     0.007926   109.149901
	   27 B(7,10,9)       =    108.693955     0.000000     0.009056   108.703010
	   28 B(7,10,14)      =    114.362798    -0.000000    -0.006923   114.355875
	   29 B(8,10,9)       =    105.899897     0.000000    -0.002118   105.897779
	   30 B(8,10,14)      =    109.639720    -0.000001     0.012334   109.652054
	   31 B(9,10,14)      =    108.756979     0.000001    -0.020125   108.736855
	   32 B(10,14,11)     =    111.255958    -0.000000     0.004833   111.260791
	   33 B(10,14,12)     =    112.043054     0.000000    -0.004562   112.038492
	   34 B(10,14,13)     =    111.057651    -0.000000    -0.008635   111.049016
	   35 B(11,14,12)     =    107.258714     0.000000     0.005829   107.264543
	   36 B(11,14,13)     =    107.553227     0.000000     0.002976   107.556203
	   37 B(12,14,13)     =    107.446661    -0.000000     0.000155   107.446817
	   38 D(1,4,7,5)      =   -176.718310     0.000000    -0.035327  -176.753638
	   39 D(1,4,7,6)      =    -61.353455     0.000000    -0.042226   -61.395681
	   40 D(1,4,7,10)     =     61.589284    -0.000000    -0.027622    61.561662
	   41 D(2,4,7,5)      =    -56.654961     0.000000    -0.027719   -56.682679
	   42 D(2,4,7,6)      =     58.709895     0.000000    -0.034617    58.675277
	   43 D(2,4,7,10)     =   -178.347367    -0.000000    -0.020013  -178.367380
	   44 D(3,4,7,5)      =     63.116048     0.000000    -0.026587    63.089462
	   45 D(3,4,7,6)      =    178.480904     0.000000    -0.033485   178.447418
	   46 D(3,4,7,10)     =    -58.576358    -0.000000    -0.018882   -58.595239
	   47 D(4,7,10,8)     =     53.292832     0.000000     0.023970    53.316802
	   48 D(4,7,10,9)     =    168.354207     0.000000     0.030609   168.384816
	   49 D(4,7,10,14)    =    -69.918904     0.000001     0.006669   -69.912235
	   50 D(5,7,10,8)     =    -68.434151     0.000000     0.047595   -68.386557
	   51 D(5,7,10,9)     =     46.627224     0.000000     0.054233    46.681458
	   52 D(5,7,10,14)    =    168.354113     0.000000     0.030294   168.384407
	   53 D(6,7,10,8)     =    176.504510     0.000000     0.040999   176.545509
	   54 D(6,7,10,9)     =    -68.434114     0.000000     0.047637   -68.386477
	   55 D(6,7,10,14)    =     53.292774     0.000000     0.023698    53.316472
	   56 D(7,10,14,11)   =   -178.347657    -0.000000    -0.018204  -178.365862
	   57 D(7,10,14,12)   =     61.589154    -0.000000    -0.025879    61.563274
	   58 D(7,10,14,13)   =    -58.576609    -0.000000    -0.016998   -58.593607
	   59 D(8,10,14,11)   =     58.709589     0.000000    -0.033136    58.676452
	   60 D(8,10,14,12)   =    -61.353600     0.000000    -0.040812   -61.394412
	   61 D(8,10,14,13)   =    178.480637     0.000000    -0.031930   178.448707
	   62 D(9,10,14,11)   =    -56.655347     0.000000    -0.026140   -56.681487
	   63 D(9,10,14,12)   =   -176.718536     0.000000    -0.033815  -176.752351
	   64 D(9,10,14,13)   =     63.115701     0.000000    -0.024934    63.090768
	 ---------------------------------------------------------------------------
	 Forces used to impose fixed constraints are not included.
	  Forces zeroed: 49 

  ==> Convergence Check <==

  Measures of convergence in internal coordinates in au.
  Criteria marked as inactive (o), active & met (*), and active & unmet ( ).
  ---------------------------------------------------------------------------------------------
   Step     Total Energy     Delta E     MAX Force     RMS Force      MAX Disp      RMS Disp   
  ---------------------------------------------------------------------------------------------
    Convergence Criteria    1.00e-06 *    3.00e-04 *             o    1.20e-03 *             o
  ---------------------------------------------------------------------------------------------
      7    -158.45741498   -7.88e-07 *    1.91e-05 *    7.33e-06 o    9.47e-04 *    3.79e-04 o  ~
  ---------------------------------------------------------------------------------------------


  **** Optimization is complete! (in 7 steps) ****

  ==> Optimization Summary <==

  Measures of convergence in internal coordinates in au.
  --------------------------------------------------------------------------------------------------------------- ~
   Step         Total Energy             Delta E       MAX Force       RMS Force        MAX Disp        RMS Disp  ~
  --------------------------------------------------------------------------------------------------------------- ~
      1    -158.447079473021   -158.447079473021      0.02358037      0.00990271      0.02818314      0.01257203  ~
      2    -158.453227297610     -0.006147824589      0.01293260      0.00552771      0.02528503      0.01256725  ~
      3    -158.456217312957     -0.002990015347      0.00461420      0.00217944      0.03509870      0.01252209  ~
      4    -158.457178935326     -0.000961622369      0.00151983      0.00067116      0.04131866      0.01250950  ~
      5    -158.457404183688     -0.000225248362      0.00067786      0.00017353      0.00891631      0.00401948  ~
      6    -158.457414188639     -0.000010004951      0.00012516      0.00003628      0.00129122      0.00037267  ~
      7    -158.457414976288     -0.000000787649      0.00003154      0.00000832      0.00094655      0.00037929  ~
  --------------------------------------------------------------------------------------------------------------- ~

	Writing optimization data to binary file.
	Final energy is   -158.4574149762879
	Final (previous) structure:
	Cartesian Geometry (in Angstrom)
	    H    -1.8983274452   0.4325020797   0.1182276909
	    H    -1.6160830485   2.0436930520  -0.5718799049
	    H    -1.4149480005   0.5949745281  -1.5858547034
	    C    -1.2549054626   1.0022728145  -0.5724635406
	    H     0.8086286510   1.5610898165  -0.8651256839
	    H     0.3608324455   1.3650607020   0.8303830449
	    C     0.2230168724   0.9267275465  -0.1758903744
	    H     0.6184722959  -0.9546320702  -1.1786849038
	    H     1.9108546586  -0.4213476904  -0.1020907778
	    C     0.8121513059  -0.4928866537  -0.1922799794
	    H     0.7618406283  -2.4017079022   0.8756970222
	    H    -0.8035493088  -1.5648614080   0.8427286773
	    H     0.4909909760  -0.9822107994   1.9144725994
	    C     0.2853540970  -1.4086135475   0.9172966088
	Saving final (previous) structure.
			--------------------------
			 OPTKING Finished Execution 
			--------------------------

    Final optimized geometry and variables:
    Molecular point group: c1
    Full point group: C1

    Geometry (in Angstrom), charge = 0, multiplicity = 1:

    H           -1.898327445168     0.432502079707     0.118227690864
    H           -1.616083048523     2.043693051953    -0.571879904911
    H           -1.414948000456     0.594974528057    -1.585854703356
    C           -1.254905462628     1.002272814486    -0.572463540615
    H            0.808628651034     1.561089816504    -0.865125683904
    H            0.360832445451     1.365060701975     0.830383044888
    C            0.223016872364     0.926727546472    -0.175890374352
    H            0.618472295909    -0.954632070205    -1.178684903840
    H            1.910854658597    -0.421347690386    -0.102090777758
    C            0.812151305927    -0.492886653657    -0.192279979391
    H            0.761840628258    -2.401707902178     0.875697022243
    H           -0.803549308769    -1.564861408001     0.842728677302
    H            0.490990975980    -0.982210799432     1.914472599406
    C            0.285354097045    -1.408613547460     0.917296608812

	Cleaning optimization helper files.

*** Psi4 exiting successfully. Buy a developer a beer!
