    -----------------------------------------------------------------------
          Psi4: An Open-Source Ab Initio Electronic Structure Package
                              Psi4 1.0.0 Driver

                          Git: Rev {master} 6a9a71b 

    J. M. Turney, A. C. Simmonett, R. M. Parrish, E. G. Hohenstein,
    F. A. Evangelista, J. T. Fermann, B. J. Mintz, L. A. Burns, J. J. Wilke,
    M. L. Abrams, N. J. Russ, M. L. Leininger, C. L. Janssen, E. T. Seidl,
    W. D. Allen, H. F. Schaefer, R. A. King, E. F. Valeev, C. D. Sherrill,
    and T. D. Crawford, WIREs Comput. Mol. Sci. 2, 556-565 (2012)
    (doi: 10.1002/wcms.93)

                         Additional Contributions by
    A. E. DePrince, U. Bozkaya, A. Yu. Sokolov, D. G. A. Smith, R. Di Remigio,
    R. M. Richard, J. F. Gonthier, H. R. McAlexander, M. Saitow, and
    B. P. Pritchard
    -----------------------------------------------------------------------


    Psi4 started on: Mon Feb 20 17:31:08 2017

    Process ID:  28178
    PSI4DATADIR: /Users/sternc1/anaconda/share/psi4
    Memory level set to 256.000 MB

  ==> Input File <==

--------------------------------------------------------------------------

memory 1000 mb

molecule butane {
  symmetry C1
  0 1 
  H      1.604   0.760   -8.260
  H      1.745   2.388   -8.880
  H      2.043   1.024   -9.930
  C      2.142   1.395   -8.932
  H      4.169   2.051   -9.210
  H      3.731   1.788   -7.539
  C      3.631   1.416   -8.537
  H      5.006   -0.037   -9.318
  H      4.567   -0.302   -7.649
  C      4.203   -0.012   -8.612
  H      3.495   -1.978   -9.109
  H      2.733   -0.697   -10.020
  H      2.293   -0.961   -8.350
  C      3.097   -0.986   -9.057
  units Angstrom
}

dih_string = "4 7 10 14 360.01"
set optking fixed_dihedral = $dih_string

optimize('MP2/6-31G(d)')
--------------------------------------------------------------------------

  Memory set to 1000.000 MiB by Python script.
gradient() will perform analytic gradient computation.
    SCF Algorithm Type (re)set to DF.

*** tstart() called on lski1497
*** at Mon Feb 20 17:31:10 2017


         ---------------------------------------------------------
                                   SCF
            by Justin Turney, Rob Parrish, and Andy Simmonett
                              RHF Reference
                        1 Threads,   1000 MiB Core
         ---------------------------------------------------------

  ==> Geometry <==

    Molecular point group: c1
    Full point group: C1

    Geometry (in Angstrom), charge = 0, multiplicity = 1:

       Center              X                  Y                   Z               Mass       
    ------------   -----------------  -----------------  -----------------  -----------------
           H         -1.641751988320     0.315365705977     0.531788210494     1.007825032070
           H         -1.500751988320     1.943365705977    -0.088211789506     1.007825032070
           H         -1.202751988320     0.579365705977    -1.138211789506     1.007825032070
           C         -1.103751988320     0.950365705977    -0.140211789506    12.000000000000
           H          0.923248011680     1.606365705977    -0.418211789506     1.007825032070
           H          0.485248011680     1.343365705977     1.252788210494     1.007825032070
           C          0.385248011680     0.971365705977     0.254788210494    12.000000000000
           H          1.760248011680    -0.481634294023    -0.526211789506     1.007825032070
           H          1.321248011680    -0.746634294023     1.142788210494     1.007825032070
           C          0.957248011680    -0.456634294023     0.179788210494    12.000000000000
           H          0.249248011680    -2.422634294023    -0.317211789506     1.007825032070
           H         -0.512751988320    -1.141634294023    -1.228211789506     1.007825032070
           H         -0.952751988320    -1.405634294023     0.441788210494     1.007825032070
           C         -0.148751988320    -1.430634294023    -0.265211789506    12.000000000000

  Running in c1 symmetry.

  Rotational constants: A =      0.37737  B =      0.21144  C =      0.15038 [cm^-1]
  Rotational constants: A =  11313.23143  B =   6338.94822  C =   4508.41915 [MHz]
  Nuclear repulsion =  136.585801064848738

  Charge       = 0
  Multiplicity = 1
  Electrons    = 34
  Nalpha       = 17
  Nbeta        = 17

  ==> Algorithm <==

  SCF Algorithm Type is DF.
  DIIS enabled.
  MOM disabled.
  Fractional occupation disabled.
  Guess Type is SAD.
  Energy threshold   = 1.00e-10
  Density threshold  = 1.00e-10
  Integral threshold = 0.00e+00

  ==> Primary Basis <==

  Basis Set: 6-31G(D)
    Number of shells: 44
    Number of basis function: 80
    Number of Cartesian functions: 80
    Spherical Harmonics?: false
    Max angular momentum: 2

  ==> Pre-Iterations <==

   -------------------------------------------------------
    Irrep   Nso     Nmo     Nalpha   Nbeta   Ndocc  Nsocc
   -------------------------------------------------------
     A         80      80       0       0       0       0
   -------------------------------------------------------
    Total      80      80      17      17      17       0
   -------------------------------------------------------

  ==> Integral Setup <==

  ==> DFJK: Density-Fitted J/K Matrices <==

    J tasked:                  Yes
    K tasked:                  Yes
    wK tasked:                  No
    OpenMP threads:              1
    Integrals threads:           1
    Memory (MB):               715
    Algorithm:                Core
    Integral Cache:           NONE
    Schwarz Cutoff:          1E-12
    Fitting Condition:       1E-12

   => Auxiliary Basis Set <=

  Basis Set: 
    Number of shells: 186
    Number of basis function: 574
    Number of Cartesian functions: 574
    Spherical Harmonics?: false
    Max angular momentum: 3

  Minimum eigenvalue in the overlap matrix is 3.2228854634E-03.
  Using Symmetric Orthogonalization.
  SCF Guess: Superposition of Atomic Densities via on-the-fly atomic UHF.

  ==> Iterations <==

                           Total Energy        Delta E     RMS |[F,P]|

   @DF-RHF iter   0:  -158.91723023652537   -1.58917e+02   4.66998e-02 
   @DF-RHF iter   1:  -157.16327397257101    1.75396e+00   4.55668e-03 
   @DF-RHF iter   2:  -157.25955897163021   -9.62850e-02   1.46098e-03 DIIS
   @DF-RHF iter   3:  -157.26971667591124   -1.01577e-02   5.82220e-04 DIIS
   @DF-RHF iter   4:  -157.27137039783707   -1.65372e-03   8.65879e-05 DIIS
   @DF-RHF iter   5:  -157.27142609846067   -5.57006e-05   1.90132e-05 DIIS
   @DF-RHF iter   6:  -157.27142868527869   -2.58682e-06   4.99300e-06 DIIS
   @DF-RHF iter   7:  -157.27142882316207   -1.37883e-07   1.28923e-06 DIIS
   @DF-RHF iter   8:  -157.27142883508429   -1.19222e-08   3.09056e-07 DIIS
   @DF-RHF iter   9:  -157.27142883589073   -8.06438e-10   8.22973e-08 DIIS
   @DF-RHF iter  10:  -157.27142883594229   -5.15570e-11   2.37050e-08 DIIS
   @DF-RHF iter  11:  -157.27142883594558   -3.29692e-12   5.33972e-09 DIIS
   @DF-RHF iter  12:  -157.27142883594558    0.00000e+00   1.15081e-09 DIIS
   @DF-RHF iter  13:  -157.27142883594576   -1.70530e-13   1.87993e-10 DIIS
   @DF-RHF iter  14:  -157.27142883594558    1.70530e-13   4.45858e-11 DIIS

  ==> Post-Iterations <==

    Orbital Energies (a.u.)
    -----------------------

    Doubly Occupied:                                                      

       1A    -11.206455     2A    -11.205861     3A    -11.197595  
       4A    -11.197565     5A     -1.078134     6A     -0.965666  
       7A     -0.890254     8A     -0.769079     9A     -0.652365  
      10A     -0.627218    11A     -0.562031    12A     -0.540714  
      13A     -0.536183    14A     -0.511006    15A     -0.455960  
      16A     -0.452096    17A     -0.450941  

    Virtual:                                                              

      18A      0.229355    19A      0.272844    20A      0.279121  
      21A      0.305138    22A      0.308487    23A      0.315282  
      24A      0.356701    25A      0.360934    26A      0.385341  
      27A      0.386078    28A      0.431291    29A      0.458729  
      30A      0.494171    31A      0.702110    32A      0.735227  
      33A      0.760627    34A      0.769102    35A      0.799599  
      36A      0.804703    37A      0.863619    38A      0.929906  
      39A      0.932323    40A      1.011812    41A      1.131897  
      42A      1.156097    43A      1.157851    44A      1.193622  
      45A      1.195663    46A      1.211926    47A      1.218892  
      48A      1.220214    49A      1.242134    50A      1.275437  
      51A      1.282261    52A      1.282955    53A      1.338817  
      54A      1.616743    55A      1.702142    56A      1.703403  
      57A      1.753227    58A      1.935358    59A      2.114033  
      60A      2.183616    61A      2.272523    62A      2.273853  
      63A      2.282469    64A      2.335199    65A      2.378193  
      66A      2.434207    67A      2.550189    68A      2.583431  
      69A      2.649999    70A      2.711514    71A      2.724838  
      72A      2.757660    73A      2.840218    74A      2.905392  
      75A      3.003853    76A      3.103963    77A      4.593414  
      78A      4.725310    79A      4.781886    80A      5.046888  

    Final Occupation by Irrep:
              A 
    DOCC [    17 ]

  Energy converged.

  @DF-RHF Final Energy:  -157.27142883594558

   => Energetics <=

    Nuclear Repulsion Energy =            136.5858010648487380
    One-Electron Energy =                -481.1162145860710666
    Two-Electron Energy =                 187.2589846852767153
    DFT Exchange-Correlation Energy =       0.0000000000000000
    Empirical Dispersion Energy =           0.0000000000000000
    PCM Polarization Energy =               0.0000000000000000
    EFP Energy =                            0.0000000000000000
    Total Energy =                       -157.2714288359456134


  Saving occupied orbitals to File 180.

*** tstop() called on lski1497 at Mon Feb 20 17:31:17 2017
Module time:
	user time   =       4.93 seconds =       0.08 minutes
	system time =       0.16 seconds =       0.00 minutes
	total time  =          7 seconds =       0.12 minutes
Total time:
	user time   =       4.93 seconds =       0.08 minutes
	system time =       0.16 seconds =       0.00 minutes
	total time  =          7 seconds =       0.12 minutes


Properties will be evaluated at   0.000000,   0.000000,   0.000000 Bohr

Properties computed using the SCF density matrix

  Nuclear Dipole Moment: (a.u.)
     X:    -1.0045      Y:    -0.3847      Z:    -0.3254

  Electronic Dipole Moment: (a.u.)
     X:     1.0368      Y:     0.3965      Z:     0.3353

  Dipole Moment: (a.u.)
     X:     0.0323      Y:     0.0118      Z:     0.0099     Total:     0.0358

  Dipole Moment: (Debye)
     X:     0.0820      Y:     0.0301      Z:     0.0252     Total:     0.0909


  //>>>>>>>>>>>>>>>>>>>>>>>>>>>>>>>>>>>//
  //               DFMP2               //
  //<<<<<<<<<<<<<<<<<<<<<<<<<<<<<<<<<<<//


*** tstart() called on lski1497
*** at Mon Feb 20 17:31:17 2017


*** tstop() called on lski1497 at Mon Feb 20 17:31:18 2017
Module time:
	user time   =       0.52 seconds =       0.01 minutes
	system time =       0.01 seconds =       0.00 minutes
	total time  =          1 seconds =       0.02 minutes
Total time:
	user time   =       5.47 seconds =       0.09 minutes
	system time =       0.17 seconds =       0.00 minutes
	total time  =          8 seconds =       0.13 minutes
	 --------------------------------------------------------
	                          DF-MP2                         
	      2nd-Order Density-Fitted Moller-Plesset Theory     
	              RMP2 Wavefunction,   1 Threads             
	                                                         
	        Rob Parrish, Justin Turney, Andy Simmonett,      
	           Ed Hohenstein, and C. David Sherrill          
	 --------------------------------------------------------

   => Auxiliary Basis Set <=

  Basis Set: 
    Number of shells: 132
    Number of basis function: 364
    Number of Cartesian functions: 414
    Spherical Harmonics?: true
    Max angular momentum: 3

	 --------------------------------------------------------
	                 NBF =    80, NAUX =   364
	 --------------------------------------------------------
	   CLASS    FOCC     OCC    AOCC    AVIR     VIR    FVIR
	   PAIRS       0      17      17      63      63       0
	 --------------------------------------------------------

DGAS Warning! /src/lib/libfock/apps.cc:80 is not currently checking restricted

         ------------------------------------------------------------
                                     CPHF                           
                                  Rob Parrish                       
         ------------------------------------------------------------

  ==> Geometry <==

    Molecular point group: c1
    Full point group: C1

    Geometry (in Angstrom), charge = 0, multiplicity = 1:

       Center              X                  Y                   Z               Mass       
    ------------   -----------------  -----------------  -----------------  -----------------
           H         -1.641751988320     0.315365705977     0.531788210494     1.007825032070
           H         -1.500751988320     1.943365705977    -0.088211789506     1.007825032070
           H         -1.202751988320     0.579365705977    -1.138211789506     1.007825032070
           C         -1.103751988320     0.950365705977    -0.140211789506    12.000000000000
           H          0.923248011680     1.606365705977    -0.418211789506     1.007825032070
           H          0.485248011680     1.343365705977     1.252788210494     1.007825032070
           C          0.385248011680     0.971365705977     0.254788210494    12.000000000000
           H          1.760248011680    -0.481634294023    -0.526211789506     1.007825032070
           H          1.321248011680    -0.746634294023     1.142788210494     1.007825032070
           C          0.957248011680    -0.456634294023     0.179788210494    12.000000000000
           H          0.249248011680    -2.422634294023    -0.317211789506     1.007825032070
           H         -0.512751988320    -1.141634294023    -1.228211789506     1.007825032070
           H         -0.952751988320    -1.405634294023     0.441788210494     1.007825032070
           C         -0.148751988320    -1.430634294023    -0.265211789506    12.000000000000

  Nuclear repulsion =  136.585801064848738
  Reference energy  = -157.271428835945585

  ==> Basis Set <==

  Basis Set: 6-31G(D)
    Number of shells: 44
    Number of basis function: 80
    Number of Cartesian functions: 80
    Spherical Harmonics?: false
    Max angular momentum: 2

  ==> CGRSolver (by Rob Parrish) <==

   Number of roots    =         1
   Preconditioning    =    JACOBI
   Convergence cutoff =     1E-06
   Maximum iterations =       100

  ==> CPHFRHamiltonian (by Rob Parrish) <== 

  ==> DFJK: Density-Fitted J/K Matrices <==

    J tasked:                  Yes
    K tasked:                  Yes
    wK tasked:                  No
    OpenMP threads:              1
    Integrals threads:           1
    Memory (MB):               715
    Algorithm:                Core
    Integral Cache:           NONE
    Schwarz Cutoff:          1E-12
    Fitting Condition:       1E-12

   => Auxiliary Basis Set <=

  Basis Set: 
    Number of shells: 186
    Number of basis function: 574
    Number of Cartesian functions: 574
    Spherical Harmonics?: false
    Max angular momentum: 3

  ==> CPHF Iterations <==

  => Iterations <=

             Iter  Converged  Remaining    Residual
  CGR           1          0          1   7.624E-02
  CGR           2          0          1   8.686E-03
  CGR           3          0          1   2.087E-03
  CGR           4          0          1   4.161E-04
  CGR           5          0          1   7.777E-05
  CGR           6          0          1   1.323E-05
  CGR           7          0          1   1.547E-06
  CGR           8          1          0   3.697E-07

    CGRSolver converged.

  ==> DFCorrGrad: Density-Fitted Correlated Gradients <==

    OpenMP threads:              1
    Integrals threads:           1
    Memory (MB):               715
    Schwarz Cutoff:          0E+00
    Fitting Condition:       1E-12

   => Auxiliary Basis Set <=

  Basis Set: 
    Number of shells: 186
    Number of basis function: 510
    Number of Cartesian functions: 574
    Spherical Harmonics?: true
    Max angular momentum: 3

	-----------------------------------------------------------
	 ==================> DF-MP2 Energies <==================== 
	-----------------------------------------------------------
	 Reference Energy          =    -157.2714288359455850 [Eh]
	 Singles Energy            =      -0.0000000000000000 [Eh]
	 Same-Spin Energy          =      -0.1253702682146448 [Eh]
	 Opposite-Spin Energy      =      -0.4216681301043890 [Eh]
	 Correlation Energy        =      -0.5470383983190338 [Eh]
	 Total Energy              =    -157.8184672342646309 [Eh]
	-----------------------------------------------------------
	 ================> DF-SCS-MP2 Energies <================== 
	-----------------------------------------------------------
	 SCS Same-Spin Scale       =       0.3333333333333333 [-]
	 SCS Opposite-Spin Scale   =       1.2000000000000000 [-]
	 SCS Same-Spin Energy      =      -0.0417900894048816 [Eh]
	 SCS Opposite-Spin Energy  =      -0.5060017561252668 [Eh]
	 SCS Correlation Energy    =      -0.5477918455301484 [Eh]
	 SCS Total Energy          =    -157.8192206814757412 [Eh]
	-----------------------------------------------------------


  -Total Gradient:
     Atom            X                  Y                   Z
    ------   -----------------  -----------------  -----------------
       1        0.012218599486     0.001458063333    -0.006792314497
       2        0.008803506733    -0.014674900058    -0.000051371933
       3        0.007244618349    -0.001323361219     0.012175093431
       4       -0.021855508055    -0.020220474739    -0.009259741797
       5       -0.007717594444    -0.013553398994     0.007100379348
       6       -0.002234564160    -0.010456243030    -0.013879629515
       7        0.018930388790     0.020274494717     0.008619751924
       8       -0.015073903494     0.003844058337     0.008486854669
       9       -0.009359937540     0.007125915593    -0.013166647115
      10        0.028135434264    -0.002644013514     0.006981317248
      11       -0.003869522078     0.017032241807     0.001680443032
      12        0.004742559595     0.004892291437     0.012565781736
      13        0.008864411138     0.007963468584    -0.005909333693
      14       -0.028828488583     0.000281857746    -0.008550582840


			-----------------------------------------
			 OPTKING 2.0: for geometry optimizations 
			  - R.A. King,  Bethel University        
			-----------------------------------------

	Internal coordinates to be generated automatically.
	Detected frag 1 with atoms:  1 2 3 4 5 6 7 8 9 10 11 12 13 14
	---Fragment 1 Bond Connectivity---
	 1 : 4
	 2 : 4
	 3 : 4
	 4 : 1 2 3 7
	 5 : 7
	 6 : 7
	 7 : 4 5 6 10
	 8 : 10
	 9 : 10
	 10 : 7 8 9 14
	 11 : 14
	 12 : 14
	 13 : 14
	 14 : 10 11 12 13

	Assuming in current code that numbering for constraints corresponds to unified fragment.
	Fixed dihedral atom list: 
	     4     7    10    14
	---Fragment 1 Geometry and Gradient---
	 H          -3.1024616360        0.5959548160        1.0049340785
	 H          -2.8360102513        3.6724289603       -0.1666961239
	 H          -2.2728718637        1.0948425151       -2.1509085634
	 C          -2.0857889766        1.7959309104       -0.2649618828
	 H           1.7446858948        3.0355912536       -0.7903057477
	 H           0.9169858486        2.5385932806        2.3674266203
	 C           0.7280132353        1.8356151592        0.4814799397
	 H           3.3263866680       -0.9101569119       -0.9943961701
	 H           2.4967968957       -1.4109343371        2.1595567457
	 C           1.8089365833       -0.8629137586        0.3397504798
	 H           0.4710104812       -4.5781153358       -0.5994434083
	 H          -0.9689608320       -2.1573761596       -2.3209839153
	 H          -1.8004403305       -2.6562638587        0.8348587266
	 C          -0.2811005196       -2.7035070120       -0.5011776494
	             0.0122185995        0.0014580633       -0.0067923145
	             0.0088035067       -0.0146749001       -0.0000513719
	             0.0072446183       -0.0013233612        0.0121750934
	            -0.0218555081       -0.0202204747       -0.0092597418
	            -0.0077175944       -0.0135533990        0.0071003793
	            -0.0022345642       -0.0104562430       -0.0138796295
	             0.0189303888        0.0202744947        0.0086197519
	            -0.0150739035        0.0038440583        0.0084868547
	            -0.0093599375        0.0071259156       -0.0131666471
	             0.0281354343       -0.0026440135        0.0069813172
	            -0.0038695221        0.0170322418        0.0016804430
	             0.0047425596        0.0048922914        0.0125657817
	             0.0088644111        0.0079634686       -0.0059093337
	            -0.0288284886        0.0002818577       -0.0085505828

	Previous optimization step data not found.  Starting new optimization.

	---Fragment 1 Intrafragment Coordinates---
	 - Coordinate -           - BOHR/RAD -       - ANG/DEG -
	 R(1,4)           =         2.021436	       1.069698
	 R(2,4)           =         2.023298	       1.070683
	 R(3,4)           =         2.020723	       1.069320
	 R(4,7)           =         2.911397	       1.540645
	 R(5,7)           =         2.022623	       1.070326
	 R(6,7)           =         2.021555	       1.069761
	 R(7,10)          =         2.910419	       1.540128
	 R(8,10)          =         2.021097	       1.069519
	 R(9,10)          =         2.021181	       1.069563
	 R(10,14)         =         2.909158	       1.539460
	 R(11,14)         =         2.022247	       1.070127
	 R(12,14)         =         2.020670	       1.069292
	 R(13,14)         =         2.023763	       1.070930
	 B(1,4,2)         =         1.910870	     109.484805
	 B(1,4,3)         =         1.911121	     109.499161
	 B(1,4,7)         =         1.910399	     109.457783
	 B(2,4,3)         =         1.910042	     109.437340
	 B(2,4,7)         =         1.910564	     109.467262
	 B(3,4,7)         =         1.910803	     109.480971
	 B(4,7,5)         =         1.909937	     109.431343
	 B(4,7,6)         =         1.911630	     109.528316
	 B(4,7,10)        =         1.911154	     109.501062
	 B(5,7,6)         =         1.910605	     109.469614
	 B(5,7,10)        =         1.910047	     109.437654
	 B(6,7,10)        =         1.910425	     109.459295
	 B(7,10,8)        =         1.909926	     109.430678
	 B(7,10,9)        =         1.911287	     109.508677
	 B(7,10,14)       =         1.911212	     109.504376
	 B(8,10,9)        =         1.909734	     109.419706
	 B(8,10,14)       =         1.911130	     109.499680
	 B(9,10,14)       =         1.910510	     109.464178
	 B(10,14,11)      =         1.910647	     109.471985
	 B(10,14,12)      =         1.911227	     109.505266
	 B(10,14,13)      =         1.911089	     109.497319
	 B(11,14,12)      =         1.910687	     109.474289
	 B(11,14,13)      =         1.910213	     109.447136
	 B(12,14,13)      =         1.909937	     109.431306
	 D(1,4,7,5)       =         3.140997	     179.965873
	 D(1,4,7,6)       =        -1.047644	     -60.025575
	 D(1,4,7,10)      =         1.047427	      60.013132
	 D(2,4,7,5)       =        -1.047689	     -60.028143
	 D(2,4,7,6)       =         1.046856	      59.980409
	 D(2,4,7,10)      =        -3.141259	    -179.980883
	 D(3,4,7,5)       =         1.046044	      59.933911
	 D(3,4,7,6)       =         3.140588	     179.942463
	 D(3,4,7,10)      =        -1.047526	     -60.018830
	 D(4,7,10,8)      =         2.095109	     120.040906
	 D(4,7,10,9)      =        -2.094815	    -120.024080
	 D(4,7,10,14)     =         0.000185	       0.010589
	 D(5,7,10,8)      =         0.001606	       0.092031
	 D(5,7,10,9)      =         2.094867	     120.027044
	 D(5,7,10,14)     =        -2.093318	    -119.938287
	 D(6,7,10,8)      =        -2.092269	    -119.878168
	 D(6,7,10,9)      =         0.000992	       0.056845
	 D(6,7,10,14)     =         2.095992	     120.091515
	 D(7,10,14,11)    =         3.141528	     179.996267
	 D(7,10,14,12)    =         1.046695	      59.971179
	 D(7,10,14,13)    =        -1.047490	     -60.016781
	 D(8,10,14,11)    =         1.047340	      60.008175
	 D(8,10,14,12)    =        -1.047493	     -60.016914
	 D(8,10,14,13)    =         3.141508	     179.995127
	 D(9,10,14,11)    =        -1.046183	     -59.941843
	 D(9,10,14,12)    =        -3.141016	    -179.966932
	 D(9,10,14,13)    =         1.047985	      60.045109

	Current energy   :      -157.8184672343

	Generating empirical Hessian (Schlegel '84) for each fragment.
	Adding user-defined constraint: Fragment 1; Coordinate 49:
		Value =     0.000185; Fixed value    =     0.000175
		Force =    -0.000005; Force constant =     0.500000
	Removing off-diagonal coupling between coordinate 49 and others.
	Taking RFO optimization step.
	Going to follow RFO solution 1.
	Using RFO vector 1.

	Determining step-restricting scale parameter for RS-RFO.
	Maximum step size allowed    0.10000

	 Iter      |step|        alpha        rfo_root  
	------------------------------------------------
	    0     0.53746       1.00000           1
	    1     0.34879       4.14333           1
	    2     0.22902      12.64489           1
	    3     0.15865      30.29866           1
	    4     0.12078      56.05684           1
	    5     0.10428      77.43371           1
	    6     0.10025      84.36974           1
	    7     0.10000      84.83304           1
	------------------------------------------------
	Norm of target step-size    0.10000
	Projected energy change by RFO approximation:        -0.0143974434

	Back-transformation to cartesian coordinates...
	Could not converge backtransformation.
	Using first guess instead.

	--- Internal Coordinate Step in ANG or DEG, aJ/ANG or AJ/DEG ---
	 ---------------------------------------------------------------------------
	   Coordinate                Previous        Force       Change         New 
	   ----------                --------       ------       ------       ------
	    1 R(1,4)          =      1.069698     0.092915     0.004372     1.074070
	    2 R(2,4)          =      1.070683     0.139044     0.006987     1.077670
	    3 R(3,4)          =      1.069320     0.095360     0.004465     1.073785
	    4 R(4,7)          =      1.540645     0.038848     0.003773     1.544418
	    5 R(5,7)          =      1.070326     0.134989     0.005424     1.075750
	    6 R(6,7)          =      1.069761     0.138357     0.005554     1.075315
	    7 R(7,10)         =      1.540128     0.341993     0.014212     1.554340
	    8 R(8,10)         =      1.069519     0.140138     0.005623     1.075141
	    9 R(9,10)         =      1.069563     0.139831     0.005613     1.075176
	   10 R(10,14)        =      1.539460     0.043754     0.003979     1.543439
	   11 R(11,14)        =      1.070127     0.142609     0.007125     1.077253
	   12 R(12,14)        =      1.069292     0.095642     0.004480     1.073772
	   13 R(13,14)        =      1.070930     0.085438     0.004081     1.075010
	   14 B(1,4,2)        =    109.484805    -0.000470    -0.226700   109.258104
	   15 B(1,4,3)        =    109.499161    -0.000312    -0.261572   109.237589
	   16 B(1,4,7)        =    109.457783     0.000642     0.361060   109.818843
	   17 B(2,4,3)        =    109.437340    -0.000462    -0.222521   109.214819
	   18 B(2,4,7)        =    109.467262    -0.000030    -0.008833   109.458429
	   19 B(3,4,7)        =    109.480971     0.000632     0.355266   109.836237
	   20 B(4,7,5)        =    109.431343    -0.001757    -0.885558   108.545784
	   21 B(4,7,6)        =    109.528316    -0.001769    -0.892159   108.636158
	   22 B(4,7,10)       =    109.501062     0.005937     3.030525   112.531587
	   23 B(5,7,6)        =    109.469614     0.000749     0.310998   109.780611
	   24 B(5,7,10)       =    109.437654    -0.001579    -0.785671   108.651983
	   25 B(6,7,10)       =    109.459295    -0.001581    -0.786507   108.672788
	   26 B(7,10,8)       =    109.430678    -0.001580    -0.785617   108.645062
	   27 B(7,10,9)       =    109.508677    -0.001589    -0.791106   108.717571
	   28 B(7,10,14)      =    109.504376     0.005940     3.031717   112.536093
	   29 B(8,10,9)       =    109.419706     0.000753     0.313030   109.732736
	   30 B(8,10,14)      =    109.499680    -0.001766    -0.890062   108.609618
	   31 B(9,10,14)      =    109.464178    -0.001763    -0.888360   108.575818
	   32 B(10,14,11)     =    109.471985    -0.000025    -0.006452   109.465533
	   33 B(10,14,12)     =    109.505266     0.000634     0.356747   109.862013
	   34 B(10,14,13)     =    109.497319     0.000632     0.356478   109.853797
	   35 B(11,14,12)     =    109.474289    -0.000468    -0.225642   109.248647
	   36 B(11,14,13)     =    109.447136    -0.000467    -0.226040   109.221096
	   37 B(12,14,13)     =    109.431306    -0.000306    -0.258824   109.172482
	   38 D(1,4,7,5)      =    179.965873     0.000188     0.400255   180.366128
	   39 D(1,4,7,6)      =    -60.025575    -0.000097    -0.277777   -60.303352
	   40 D(1,4,7,10)     =     60.013132     0.000046     0.061912    60.075045
	   41 D(2,4,7,5)      =    -60.028143     0.000142     0.338399   -59.689744
	   42 D(2,4,7,6)      =     59.980409    -0.000143    -0.339633    59.640776
	   43 D(2,4,7,10)     =   -179.980883     0.000000     0.000056  -179.980827
	   44 D(3,4,7,5)      =     59.933911     0.000097     0.278012    60.211923
	   45 D(3,4,7,6)      =    179.942463    -0.000188    -0.400020   179.542443
	   46 D(3,4,7,10)     =    -60.018830    -0.000045    -0.060331   -60.079161
	   47 D(4,7,10,8)     =    120.040906     0.000117     0.279685   120.320591
	   48 D(4,7,10,9)     =   -120.024080    -0.000116    -0.278190  -120.302271
	   49 D(4,7,10,14)    =      0.010589     0.000001     0.001958     0.012548
	   50 D(5,7,10,8)     =      0.092031    -0.000001    -0.001268     0.090762
	   51 D(5,7,10,9)     =    120.027044    -0.000234    -0.559143   119.467900
	   52 D(5,7,10,14)    =   -119.938287    -0.000116    -0.278995  -120.217281
	   53 D(6,7,10,8)     =   -119.878168     0.000232     0.556051  -119.322117
	   54 D(6,7,10,9)     =      0.056845    -0.000001    -0.001824     0.055021
	   55 D(6,7,10,14)    =    120.091515     0.000116     0.278324   120.369839
	   56 D(7,10,14,11)   =    179.996267     0.000001     0.001873   179.998141
	   57 D(7,10,14,12)   =     59.971179     0.000047     0.063464    60.034643
	   58 D(7,10,14,13)   =    -60.016781    -0.000045    -0.060495   -60.077275
	   59 D(8,10,14,11)   =     60.008175    -0.000142    -0.338508    59.669667
	   60 D(8,10,14,12)   =    -60.016914    -0.000096    -0.276918   -60.293831
	   61 D(8,10,14,13)   =    179.995127    -0.000188    -0.400876   179.594251
	   62 D(9,10,14,11)   =    -59.941843     0.000141     0.336478   -59.605365
	   63 D(9,10,14,12)   =   -179.966932     0.000187     0.398068  -179.568864
	   64 D(9,10,14,13)   =     60.045109     0.000095     0.274109    60.319218
	 ---------------------------------------------------------------------------
	 Forces used to impose fixed constraints are not included.
	  Forces zeroed: 49 

  ==> Convergence Check <==

  Measures of convergence in internal coordinates in au.
  Criteria marked as inactive (o), active & met (*), and active & unmet ( ).
  --------------------------------------------------------------------------------------------- ~
   Step     Total Energy     Delta E     MAX Force     RMS Force      MAX Disp      RMS Disp    ~
  --------------------------------------------------------------------------------------------- ~
    Convergence Criteria    1.00e-06 *    3.00e-04 *             o    1.20e-03 *             o  ~
  --------------------------------------------------------------------------------------------- ~
      1    -157.81846723   -1.58e+02      7.81e-02      1.86e-02 o    5.29e-02      1.27e-02 o  ~
  ---------------------------------------------------------------------------------------------

	Writing optimization data to binary file.
	Structure for next step:
	Cartesian Geometry (in Angstrom)
	    H    -1.7009015890   0.4153723322   0.5343331128
	    H    -1.4764856768   2.0490257537  -0.0651271134
	    H    -1.2607721210   0.6799125739  -1.1398684996
	    C    -1.1285268976   1.0313966083  -0.1338943097
	    H     0.9185745905   1.5995792345  -0.4269346974
	    H     0.4775262552   1.3348053558   1.2558777360
	    C     0.3662699921   0.9717466401   0.2498399905
	    H     1.7520017462  -0.4790968886  -0.5345328806
	    H     1.3098653228  -0.7458640370   1.1464989565
	    C     0.9435673559  -0.4694247106   0.1741767571
	    H     0.3403165388  -2.4842000808  -0.3028811063
	    H    -0.4856634669  -1.2539465351  -1.2411583574
	    H    -0.9265092763  -1.5185860239   0.4328906228
	    C    -0.1107906103  -1.5066003388  -0.2671852645
			--------------------------
			 OPTKING Finished Execution 
			--------------------------

    Structure for next step:
    Molecular point group: c1
    Full point group: C1

    Geometry (in Angstrom), charge = 0, multiplicity = 1:

    H           -1.697216183537     0.416762411966     0.535509520763
    H           -1.472800271316     2.050415833453    -0.063950705399
    H           -1.257086715559     0.681302653622    -1.138692091613
    C           -1.124841492092     1.032786688101    -0.132717901767
    H            0.922259995984     1.600969314248    -0.425758289389
    H            0.481211660724     1.336195435564     1.257054143942
    C            0.369955397600     0.973136719902     0.251016398496
    H            1.755687151709    -0.477706808874    -0.533356472607
    H            1.313550728288    -0.744473957225     1.147675364467
    C            0.947252761375    -0.468034630823     0.175353165092
    H            0.344001944267    -2.482810001073    -0.301704698323
    H           -0.481978061456    -1.252556455310    -1.239981949448
    H           -0.922823870854    -1.517195944111     0.434067030719
    C           -0.107105204850    -1.505210258990    -0.266008856534

gradient() will perform analytic gradient computation.
    SCF Algorithm Type (re)set to DF.

*** tstart() called on lski1497
*** at Mon Feb 20 17:31:42 2017


         ---------------------------------------------------------
                                   SCF
            by Justin Turney, Rob Parrish, and Andy Simmonett
                              RHF Reference
                        1 Threads,   1000 MiB Core
         ---------------------------------------------------------

  ==> Geometry <==

    Molecular point group: c1
    Full point group: C1

    Geometry (in Angstrom), charge = 0, multiplicity = 1:

       Center              X                  Y                   Z               Mass       
    ------------   -----------------  -----------------  -----------------  -----------------
           H         -1.697216183537     0.416762411966     0.535509520763     1.007825032070
           H         -1.472800271316     2.050415833453    -0.063950705399     1.007825032070
           H         -1.257086715559     0.681302653622    -1.138692091613     1.007825032070
           C         -1.124841492092     1.032786688101    -0.132717901767    12.000000000000
           H          0.922259995984     1.600969314248    -0.425758289389     1.007825032070
           H          0.481211660724     1.336195435564     1.257054143942     1.007825032070
           C          0.369955397600     0.973136719902     0.251016398496    12.000000000000
           H          1.755687151709    -0.477706808874    -0.533356472607     1.007825032070
           H          1.313550728288    -0.744473957225     1.147675364467     1.007825032070
           C          0.947252761375    -0.468034630823     0.175353165092    12.000000000000
           H          0.344001944267    -2.482810001073    -0.301704698323     1.007825032070
           H         -0.481978061456    -1.252556455310    -1.239981949448     1.007825032070
           H         -0.922823870854    -1.517195944111     0.434067030719     1.007825032070
           C         -0.107105204850    -1.505210258990    -0.266008856534    12.000000000000

  Running in c1 symmetry.

  Rotational constants: A =      0.38537  B =      0.19337  C =      0.14226 [cm^-1]
  Rotational constants: A =  11553.10365  B =   5797.16929  C =   4264.73087 [MHz]
  Nuclear repulsion =  134.548626464702238

  Charge       = 0
  Multiplicity = 1
  Electrons    = 34
  Nalpha       = 17
  Nbeta        = 17

  ==> Algorithm <==

  SCF Algorithm Type is DF.
  DIIS enabled.
  MOM disabled.
  Fractional occupation disabled.
  Guess Type is READ.
  Energy threshold   = 1.00e-10
  Density threshold  = 1.00e-10
  Integral threshold = 0.00e+00

  ==> Primary Basis <==

  Basis Set: 6-31G(D)
    Number of shells: 44
    Number of basis function: 80
    Number of Cartesian functions: 80
    Spherical Harmonics?: false
    Max angular momentum: 2

  ==> Pre-Iterations <==

   -------------------------------------------------------
    Irrep   Nso     Nmo     Nalpha   Nbeta   Ndocc  Nsocc
   -------------------------------------------------------
     A         80      80       0       0       0       0
   -------------------------------------------------------
    Total      80      80      17      17      17       0
   -------------------------------------------------------

  ==> Integral Setup <==

  ==> DFJK: Density-Fitted J/K Matrices <==

    J tasked:                  Yes
    K tasked:                  Yes
    wK tasked:                  No
    OpenMP threads:              1
    Integrals threads:           1
    Memory (MB):               715
    Algorithm:                Core
    Integral Cache:           NONE
    Schwarz Cutoff:          1E-12
    Fitting Condition:       1E-12

   => Auxiliary Basis Set <=

  Basis Set: 
    Number of shells: 186
    Number of basis function: 574
    Number of Cartesian functions: 574
    Spherical Harmonics?: false
    Max angular momentum: 3

  Minimum eigenvalue in the overlap matrix is 3.6385605795E-03.
  Using Symmetric Orthogonalization.
  SCF Guess was Projection but file not found.
  Switching over to SAD guess.

  SCF Guess: Superposition of Atomic Densities via on-the-fly atomic UHF.

  ==> Iterations <==

                           Total Energy        Delta E     RMS |[F,P]|

   @DF-RHF iter   0:  -158.78646019046425   -1.58786e+02   4.57731e-02 
   @DF-RHF iter   1:  -157.17387939768639    1.61258e+00   4.56218e-03 
   @DF-RHF iter   2:  -157.27033032960128   -9.64509e-02   1.49716e-03 DIIS
   @DF-RHF iter   3:  -157.28071894048105   -1.03886e-02   5.88545e-04 DIIS
   @DF-RHF iter   4:  -157.28244766486881   -1.72872e-03   8.41518e-05 DIIS
   @DF-RHF iter   5:  -157.28250064531551   -5.29804e-05   1.76811e-05 DIIS
   @DF-RHF iter   6:  -157.28250288343531   -2.23812e-06   4.53817e-06 DIIS
   @DF-RHF iter   7:  -157.28250299081077   -1.07375e-07   1.15223e-06 DIIS
   @DF-RHF iter   8:  -157.28250300002384   -9.21307e-09   2.71402e-07 DIIS
   @DF-RHF iter   9:  -157.28250300063166   -6.07827e-10   7.42999e-08 DIIS
   @DF-RHF iter  10:  -157.28250300067435   -4.26894e-11   2.13211e-08 DIIS
   @DF-RHF iter  11:  -157.28250300067663   -2.27374e-12   4.75677e-09 DIIS
   @DF-RHF iter  12:  -157.28250300067691   -2.84217e-13   1.03361e-09 DIIS
   @DF-RHF iter  13:  -157.28250300067680    1.13687e-13   2.06519e-10 DIIS
   @DF-RHF iter  14:  -157.28250300067680    0.00000e+00   7.18437e-11 DIIS

  ==> Post-Iterations <==

    Orbital Energies (a.u.)
    -----------------------

    Doubly Occupied:                                                      

       1A    -11.209863     2A    -11.209313     3A    -11.201878  
       4A    -11.201852     5A     -1.068907     6A     -0.969725  
       7A     -0.883509     8A     -0.769310     9A     -0.646053  
      10A     -0.618069    11A     -0.566762    12A     -0.533643  
      13A     -0.527753    14A     -0.521401    15A     -0.454289  
      16A     -0.453792    17A     -0.452112  

    Virtual:                                                              

      18A      0.226283    19A      0.275309    20A      0.280289  
      21A      0.300591    22A      0.305842    23A      0.313681  
      24A      0.352406    25A      0.361188    26A      0.373616  
      27A      0.381474    28A      0.427595    29A      0.439932  
      30A      0.491576    31A      0.704876    32A      0.733194  
      33A      0.743583    34A      0.780959    35A      0.787319  
      36A      0.811124    37A      0.858344    38A      0.919095  
      39A      0.933360    40A      1.010187    41A      1.122914  
      42A      1.148981    43A      1.155288    44A      1.171766  
      45A      1.184640    46A      1.199523    47A      1.211611  
      48A      1.213425    49A      1.222610    50A      1.268480  
      51A      1.270803    52A      1.280210    53A      1.325278  
      54A      1.605981    55A      1.699112    56A      1.706341  
      57A      1.709240    58A      1.933169    59A      2.091420  
      60A      2.177280    61A      2.187516    62A      2.264835  
      63A      2.280296    64A      2.327434    65A      2.369493  
      66A      2.427815    67A      2.547248    68A      2.591641  
      69A      2.643506    70A      2.695522    71A      2.710946  
      72A      2.743521    73A      2.818557    74A      2.895571  
      75A      2.989858    76A      3.090063    77A      4.565013  
      78A      4.724353    79A      4.769167    80A      5.025324  

    Final Occupation by Irrep:
              A 
    DOCC [    17 ]

  Energy converged.

  @DF-RHF Final Energy:  -157.28250300067680

   => Energetics <=

    Nuclear Repulsion Energy =            134.5486264647022381
    One-Electron Energy =                -477.0857970335413256
    Two-Electron Energy =                 185.2546675681622901
    DFT Exchange-Correlation Energy =       0.0000000000000000
    Empirical Dispersion Energy =           0.0000000000000000
    PCM Polarization Energy =               0.0000000000000000
    EFP Energy =                            0.0000000000000000
    Total Energy =                       -157.2825030006767975


  Saving occupied orbitals to File 180.

*** tstop() called on lski1497 at Mon Feb 20 17:31:51 2017
Module time:
	user time   =       4.84 seconds =       0.08 minutes
	system time =       0.13 seconds =       0.00 minutes
	total time  =          9 seconds =       0.15 minutes
Total time:
	user time   =      27.39 seconds =       0.46 minutes
	system time =       0.82 seconds =       0.01 minutes
	total time  =         41 seconds =       0.68 minutes


Properties will be evaluated at   0.000000,   0.000000,   0.000000 Bohr

Properties computed using the SCF density matrix

  Nuclear Dipole Moment: (a.u.)
     X:    -0.9517      Y:    -0.3648      Z:    -0.3086

  Electronic Dipole Moment: (a.u.)
     X:     0.9821      Y:     0.3760      Z:     0.3179

  Dipole Moment: (a.u.)
     X:     0.0303      Y:     0.0112      Z:     0.0094     Total:     0.0337

  Dipole Moment: (Debye)
     X:     0.0771      Y:     0.0286      Z:     0.0239     Total:     0.0856


  //>>>>>>>>>>>>>>>>>>>>>>>>>>>>>>>>>>>//
  //               DFMP2               //
  //<<<<<<<<<<<<<<<<<<<<<<<<<<<<<<<<<<<//


*** tstart() called on lski1497
*** at Mon Feb 20 17:31:51 2017


*** tstop() called on lski1497 at Mon Feb 20 17:31:51 2017
Module time:
	user time   =       0.50 seconds =       0.01 minutes
	system time =       0.01 seconds =       0.00 minutes
	total time  =          0 seconds =       0.00 minutes
Total time:
	user time   =      27.91 seconds =       0.47 minutes
	system time =       0.83 seconds =       0.01 minutes
	total time  =         41 seconds =       0.68 minutes
	 --------------------------------------------------------
	                          DF-MP2                         
	      2nd-Order Density-Fitted Moller-Plesset Theory     
	              RMP2 Wavefunction,   1 Threads             
	                                                         
	        Rob Parrish, Justin Turney, Andy Simmonett,      
	           Ed Hohenstein, and C. David Sherrill          
	 --------------------------------------------------------

   => Auxiliary Basis Set <=

  Basis Set: 
    Number of shells: 132
    Number of basis function: 364
    Number of Cartesian functions: 414
    Spherical Harmonics?: true
    Max angular momentum: 3

	 --------------------------------------------------------
	                 NBF =    80, NAUX =   364
	 --------------------------------------------------------
	   CLASS    FOCC     OCC    AOCC    AVIR     VIR    FVIR
	   PAIRS       0      17      17      63      63       0
	 --------------------------------------------------------

DGAS Warning! /src/lib/libfock/apps.cc:80 is not currently checking restricted

         ------------------------------------------------------------
                                     CPHF                           
                                  Rob Parrish                       
         ------------------------------------------------------------

  ==> Geometry <==

    Molecular point group: c1
    Full point group: C1

    Geometry (in Angstrom), charge = 0, multiplicity = 1:

       Center              X                  Y                   Z               Mass       
    ------------   -----------------  -----------------  -----------------  -----------------
           H         -1.697216183537     0.416762411966     0.535509520763     1.007825032070
           H         -1.472800271316     2.050415833453    -0.063950705399     1.007825032070
           H         -1.257086715559     0.681302653622    -1.138692091613     1.007825032070
           C         -1.124841492092     1.032786688101    -0.132717901767    12.000000000000
           H          0.922259995984     1.600969314248    -0.425758289389     1.007825032070
           H          0.481211660724     1.336195435564     1.257054143942     1.007825032070
           C          0.369955397600     0.973136719902     0.251016398496    12.000000000000
           H          1.755687151709    -0.477706808874    -0.533356472607     1.007825032070
           H          1.313550728288    -0.744473957225     1.147675364467     1.007825032070
           C          0.947252761375    -0.468034630823     0.175353165092    12.000000000000
           H          0.344001944267    -2.482810001073    -0.301704698323     1.007825032070
           H         -0.481978061456    -1.252556455310    -1.239981949448     1.007825032070
           H         -0.922823870854    -1.517195944111     0.434067030719     1.007825032070
           C         -0.107105204850    -1.505210258990    -0.266008856534    12.000000000000

  Nuclear repulsion =  134.548626464702238
  Reference energy  = -157.282503000676797

  ==> Basis Set <==

  Basis Set: 6-31G(D)
    Number of shells: 44
    Number of basis function: 80
    Number of Cartesian functions: 80
    Spherical Harmonics?: false
    Max angular momentum: 2

  ==> CGRSolver (by Rob Parrish) <==

   Number of roots    =         1
   Preconditioning    =    JACOBI
   Convergence cutoff =     1E-06
   Maximum iterations =       100

  ==> CPHFRHamiltonian (by Rob Parrish) <== 

  ==> DFJK: Density-Fitted J/K Matrices <==

    J tasked:                  Yes
    K tasked:                  Yes
    wK tasked:                  No
    OpenMP threads:              1
    Integrals threads:           1
    Memory (MB):               715
    Algorithm:                Core
    Integral Cache:           NONE
    Schwarz Cutoff:          1E-12
    Fitting Condition:       1E-12

   => Auxiliary Basis Set <=

  Basis Set: 
    Number of shells: 186
    Number of basis function: 574
    Number of Cartesian functions: 574
    Spherical Harmonics?: false
    Max angular momentum: 3

  ==> CPHF Iterations <==

  => Iterations <=

             Iter  Converged  Remaining    Residual
  CGR           1          0          1   7.476E-02
  CGR           2          0          1   8.567E-03
  CGR           3          0          1   2.125E-03
  CGR           4          0          1   4.227E-04
  CGR           5          0          1   7.449E-05
  CGR           6          0          1   1.304E-05
  CGR           7          0          1   1.567E-06
  CGR           8          1          0   3.833E-07

    CGRSolver converged.

  ==> DFCorrGrad: Density-Fitted Correlated Gradients <==

    OpenMP threads:              1
    Integrals threads:           1
    Memory (MB):               715
    Schwarz Cutoff:          0E+00
    Fitting Condition:       1E-12

   => Auxiliary Basis Set <=

  Basis Set: 
    Number of shells: 186
    Number of basis function: 510
    Number of Cartesian functions: 574
    Spherical Harmonics?: true
    Max angular momentum: 3

	-----------------------------------------------------------
	 ==================> DF-MP2 Energies <==================== 
	-----------------------------------------------------------
	 Reference Energy          =    -157.2825030006767975 [Eh]
	 Singles Energy            =      -0.0000000000000000 [Eh]
	 Same-Spin Energy          =      -0.1245897419615036 [Eh]
	 Opposite-Spin Energy      =      -0.4215355841575483 [Eh]
	 Correlation Energy        =      -0.5461253261190518 [Eh]
	 Total Energy              =    -157.8286283267958368 [Eh]
	-----------------------------------------------------------
	 ================> DF-SCS-MP2 Energies <================== 
	-----------------------------------------------------------
	 SCS Same-Spin Scale       =       0.3333333333333333 [-]
	 SCS Opposite-Spin Scale   =       1.2000000000000000 [-]
	 SCS Same-Spin Energy      =      -0.0415299139871678 [Eh]
	 SCS Opposite-Spin Energy  =      -0.5058427009890579 [Eh]
	 SCS Correlation Energy    =      -0.5473726149762258 [Eh]
	 SCS Total Energy          =    -157.8298756156530374 [Eh]
	-----------------------------------------------------------


  -Total Gradient:
     Atom            X                  Y                   Z
    ------   -----------------  -----------------  -----------------
       1        0.009823269944     0.003588707540    -0.005930022741
       2        0.005724735667    -0.009676745047    -0.000068638976
       3        0.005418107649     0.001101505493     0.010854483799
       4       -0.023092581289    -0.007597182510    -0.007521778774
       5       -0.006720920815    -0.011139925756     0.003709741685
       6       -0.003174171014    -0.009159614357    -0.009796979513
       7        0.017014936893     0.020356046898     0.008041358515
       8       -0.012687801673     0.003091375401     0.004816995713
       9       -0.008981958214     0.005175214805    -0.009205823437
      10        0.026714329137    -0.003891137522     0.006416160552
      11       -0.002641092636     0.011197075526     0.001086248528
      12        0.005028842567     0.002002620833     0.010956435939
      13        0.008805995324     0.004666952170    -0.005488528108
      14       -0.021231691540    -0.009714893474    -0.007869653183


			-----------------------------------------
			 OPTKING 2.0: for geometry optimizations 
			  - R.A. King,  Bethel University        
			-----------------------------------------

	Previous internal coordinate definitions found.
	---Fragment 1 Geometry and Gradient---
	 H          -3.2072737752        0.7875668211        1.0119663358
	 H          -2.7831891612        3.8747243838       -0.1208493192
	 H          -2.3755496177        1.2874754290       -2.1518162028
	 C          -2.1256423630        1.9516839942       -0.2508004873
	 H           1.7428188157        3.0253935511       -0.8045665658
	 H           0.9093582507        2.5250434332        2.3754880663
	 C           0.6991143828        1.8389618905        0.4743522480
	 H           3.3177678918       -0.9027350406       -1.0078976644
	 H           2.4822511381       -1.4068518922        2.1687921283
	 C           1.7900482976       -0.8844572730        0.3313694586
	 H           0.6500694638       -4.6918309420       -0.5701392528
	 H          -0.9108065382       -2.3669886665       -2.3432262942
	 H          -1.7438843848       -2.8670848243        0.8202678114
	 C          -0.2023995046       -2.8444351619       -0.5026838878
	             0.0098232699        0.0035887075       -0.0059300227
	             0.0057247357       -0.0096767450       -0.0000686390
	             0.0054181076        0.0011015055        0.0108544838
	            -0.0230925813       -0.0075971825       -0.0075217788
	            -0.0067209208       -0.0111399258        0.0037097417
	            -0.0031741710       -0.0091596144       -0.0097969795
	             0.0170149369        0.0203560469        0.0080413585
	            -0.0126878017        0.0030913754        0.0048169957
	            -0.0089819582        0.0051752148       -0.0092058234
	             0.0267143291       -0.0038911375        0.0064161606
	            -0.0026410926        0.0111970755        0.0010862485
	             0.0050288426        0.0020026208        0.0109564359
	             0.0088059953        0.0046669522       -0.0054885281
	            -0.0212316915       -0.0097148935       -0.0078696532

	---Fragment 1 Intrafragment Coordinates---
	 - Coordinate -           - BOHR/RAD -       - ANG/DEG -
	 R(1,4)           =         2.029698	       1.074070
	 R(2,4)           =         2.036502	       1.077670
	 R(3,4)           =         2.029159	       1.073785
	 R(4,7)           =         2.918528	       1.544418
	 R(5,7)           =         2.032873	       1.075750
	 R(6,7)           =         2.032050	       1.075315
	 R(7,10)          =         2.937276	       1.554340
	 R(8,10)          =         2.031723	       1.075141
	 R(9,10)          =         2.031788	       1.075176
	 R(10,14)         =         2.916677	       1.543439
	 R(11,14)         =         2.035712	       1.077253
	 R(12,14)         =         2.029136	       1.073772
	 R(13,14)         =         2.031475	       1.075010
	 B(1,4,2)         =         1.906914	     109.258104
	 B(1,4,3)         =         1.906556	     109.237589
	 B(1,4,7)         =         1.916700	     109.818843
	 B(2,4,3)         =         1.906158	     109.214819
	 B(2,4,7)         =         1.910410	     109.458429
	 B(3,4,7)         =         1.917004	     109.836237
	 B(4,7,5)         =         1.894481	     108.545784
	 B(4,7,6)         =         1.896059	     108.636158
	 B(4,7,10)        =         1.964047	     112.531587
	 B(5,7,6)         =         1.916033	     109.780611
	 B(5,7,10)        =         1.896335	     108.651983
	 B(6,7,10)        =         1.896698	     108.672788
	 B(7,10,8)        =         1.896214	     108.645062
	 B(7,10,9)        =         1.897480	     108.717571
	 B(7,10,14)       =         1.964125	     112.536093
	 B(8,10,9)        =         1.915198	     109.732736
	 B(8,10,14)       =         1.895595	     108.609618
	 B(9,10,14)       =         1.895006	     108.575818
	 B(10,14,11)      =         1.910534	     109.465533
	 B(10,14,12)      =         1.917454	     109.862013
	 B(10,14,13)      =         1.917310	     109.853797
	 B(11,14,12)      =         1.906749	     109.248647
	 B(11,14,13)      =         1.906268	     109.221096
	 B(12,14,13)      =         1.905419	     109.172482
	 D(1,4,7,5)       =        -3.135203	    -179.633872
	 D(1,4,7,6)       =        -1.052492	     -60.303352
	 D(1,4,7,10)      =         1.048507	      60.075045
	 D(2,4,7,5)       =        -1.041783	     -59.689744
	 D(2,4,7,6)       =         1.040928	      59.640776
	 D(2,4,7,10)      =        -3.141258	    -179.980827
	 D(3,4,7,5)       =         1.050896	      60.211923
	 D(3,4,7,6)       =         3.133607	     179.542443
	 D(3,4,7,10)      =        -1.048579	     -60.079161
	 D(4,7,10,8)      =         2.099990	     120.320591
	 D(4,7,10,9)      =        -2.099671	    -120.302271
	 D(4,7,10,14)     =         0.000219	       0.012548
	 D(5,7,10,8)      =         0.001584	       0.090762
	 D(5,7,10,9)      =         2.085108	     119.467900
	 D(5,7,10,14)     =        -2.098187	    -120.217281
	 D(6,7,10,8)      =        -2.082564	    -119.322117
	 D(6,7,10,9)      =         0.000960	       0.055021
	 D(6,7,10,14)     =         2.100850	     120.369839
	 D(7,10,14,11)    =         3.141560	     179.998141
	 D(7,10,14,12)    =         1.047802	      60.034643
	 D(7,10,14,13)    =        -1.048546	     -60.077275
	 D(8,10,14,11)    =         1.041432	      59.669667
	 D(8,10,14,12)    =        -1.052326	     -60.293831
	 D(8,10,14,13)    =         3.134511	     179.594251
	 D(9,10,14,11)    =        -1.040310	     -59.605365
	 D(9,10,14,12)    =        -3.134068	    -179.568864
	 D(9,10,14,13)    =         1.052769	      60.319218

	Current energy   :      -157.8286283268

	Energy change for the previous step:
		Projected    :        -0.0143974434
		Actual       :        -0.0101610925

	Performing BFGS update.
	Previous computed or guess Hessian on step 1.
	Steps to be used in Hessian update: 1
	Adding user-defined constraint: Fragment 1; Coordinate 49:
		Value =     0.000219; Fixed value    =     0.000170
		Force =    -0.000026; Force constant =     0.525000
	Removing off-diagonal coupling between coordinate 49 and others.
	Taking RFO optimization step.
	Going to follow RFO solution 1.
	Using RFO vector 1.

	Determining step-restricting scale parameter for RS-RFO.
	Maximum step size allowed    0.10000

	 Iter      |step|        alpha        rfo_root  
	------------------------------------------------
	    0     0.19199       1.00000           1
	    1     0.14499       7.29133           1
	    2     0.11695      18.17994           1
	    3     0.10361      28.22908           1
	    4     0.10022      31.64374           1
	    5     0.10000      31.87862           1
	------------------------------------------------
	Norm of target step-size    0.10000
	Projected energy change by RFO approximation:        -0.0054121352

	Back-transformation to cartesian coordinates...
	Successfully converged to displaced geometry.

	--- Internal Coordinate Step in ANG or DEG, aJ/ANG or AJ/DEG ---
	 ---------------------------------------------------------------------------
	   Coordinate                Previous        Force       Change         New 
	   ----------                --------       ------       ------       ------
	    1 R(1,4)          =      1.074070     0.090481     0.012461     1.086531
	    2 R(2,4)          =      1.077670     0.090547     0.010914     1.088584
	    3 R(3,4)          =      1.073785     0.092248     0.012661     1.086445
	    4 R(4,7)          =      1.544418    -0.018410    -0.005055     1.539363
	    5 R(5,7)          =      1.075750     0.101221     0.012283     1.088033
	    6 R(6,7)          =      1.075315     0.103699     0.012567     1.087882
	    7 R(7,10)         =      1.554340     0.111259     0.004589     1.558928
	    8 R(8,10)         =      1.075141     0.104990     0.012715     1.087856
	    9 R(9,10)         =      1.075176     0.104762     0.012690     1.087866
	   10 R(10,14)        =      1.543439    -0.014462    -0.004476     1.538963
	   11 R(11,14)        =      1.077253     0.093124     0.011211     1.088464
	   12 R(12,14)        =      1.073772     0.092460     0.012688     1.086460
	   13 R(13,14)        =      1.075010     0.084927     0.011820     1.086830
	   14 B(1,4,2)        =    109.258104    -0.000304    -0.565043   108.693061
	   15 B(1,4,3)        =    109.237589    -0.000260    -0.623023   108.614567
	   16 B(1,4,7)        =    109.818843     0.000400     0.747210   110.566053
	   17 B(2,4,3)        =    109.214819    -0.000298    -0.547042   108.667777
	   18 B(2,4,7)        =    109.458429     0.000064     0.230257   109.688686
	   19 B(3,4,7)        =    109.836237     0.000391     0.724532   110.560769
	   20 B(4,7,5)        =    108.545784    -0.000635    -0.427320   108.118464
	   21 B(4,7,6)        =    108.636158    -0.000644    -0.445973   108.190184
	   22 B(4,7,10)       =    112.531587     0.002167     1.500332   114.031920
	   23 B(5,7,6)        =    109.780611     0.000102    -0.468161   109.312450
	   24 B(5,7,10)       =    108.651983    -0.000503    -0.103191   108.548792
	   25 B(6,7,10)       =    108.672788    -0.000502    -0.105668   108.567120
	   26 B(7,10,8)       =    108.645062    -0.000502    -0.096334   108.548728
	   27 B(7,10,9)       =    108.717571    -0.000511    -0.132329   108.585242
	   28 B(7,10,14)      =    112.536093     0.002170     1.506981   114.043074
	   29 B(8,10,9)       =    109.732736     0.000105    -0.458465   109.274271
	   30 B(8,10,14)      =    108.609618    -0.000643    -0.443702   108.165916
	   31 B(9,10,14)      =    108.575818    -0.000638    -0.426849   108.148969
	   32 B(10,14,11)     =    109.465533     0.000067     0.237363   109.702896
	   33 B(10,14,12)     =    109.862013     0.000392     0.725727   110.587740
	   34 B(10,14,13)     =    109.853797     0.000390     0.725308   110.579105
	   35 B(11,14,12)     =    109.248647    -0.000302    -0.558070   108.690577
	   36 B(11,14,13)     =    109.221096    -0.000301    -0.556644   108.664452
	   37 B(12,14,13)     =    109.172482    -0.000255    -0.607621   108.564862
	   38 D(1,4,7,5)      =   -179.633872     0.000090     0.612301  -179.021571
	   39 D(1,4,7,6)      =    -60.303352    -0.000050    -0.437220   -60.740572
	   40 D(1,4,7,10)     =     60.075045     0.000020     0.081198    60.156243
	   41 D(2,4,7,5)      =    -59.689744     0.000070     0.524532   -59.165211
	   42 D(2,4,7,6)      =     59.640776    -0.000070    -0.524989    59.115788
	   43 D(2,4,7,10)     =   -179.980827    -0.000000    -0.006571  -179.987398
	   44 D(3,4,7,5)      =     60.211923     0.000050     0.444585    60.656508
	   45 D(3,4,7,6)      =    179.542443    -0.000090    -0.604935   178.937508
	   46 D(3,4,7,10)     =    -60.079161    -0.000020    -0.086517   -60.165678
	   47 D(4,7,10,8)     =    120.320591     0.000053     0.346372   120.666963
	   48 D(4,7,10,9)     =   -120.302271    -0.000052    -0.334961  -120.637232
	   49 D(4,7,10,14)    =      0.012548     0.000001     0.004610     0.017157
	   50 D(5,7,10,8)     =      0.090762    -0.000000    -0.005843     0.084919
	   51 D(5,7,10,9)     =    119.467900    -0.000106    -0.687176   118.780724
	   52 D(5,7,10,14)    =   -120.217281    -0.000053    -0.347605  -120.564887
	   53 D(6,7,10,8)     =   -119.322117     0.000105     0.675743  -118.646374
	   54 D(6,7,10,9)     =      0.055021    -0.000001    -0.005590     0.049432
	   55 D(6,7,10,14)    =    120.369839     0.000052     0.333981   120.703821
	   56 D(7,10,14,11)   =    179.998141     0.000001     0.010858   180.008999
	   57 D(7,10,14,12)   =     60.034643     0.000021     0.098376    60.133018
	   58 D(7,10,14,13)   =    -60.077275    -0.000020    -0.075551   -60.152826
	   59 D(8,10,14,11)   =     59.669667    -0.000070    -0.523934    59.145733
	   60 D(8,10,14,12)   =    -60.293831    -0.000050    -0.436416   -60.730248
	   61 D(8,10,14,13)   =    179.594251    -0.000090    -0.610343   178.983908
	   62 D(9,10,14,11)   =    -59.605365     0.000069     0.511975   -59.093391
	   63 D(9,10,14,12)   =   -179.568864     0.000090     0.599493  -178.969371
	   64 D(9,10,14,13)   =     60.319218     0.000049     0.425566    60.744784
	 ---------------------------------------------------------------------------
	 Forces used to impose fixed constraints are not included.
	  Forces zeroed: 49 

  ==> Convergence Check <==

  Measures of convergence in internal coordinates in au.
  Criteria marked as inactive (o), active & met (*), and active & unmet ( ).
  ---------------------------------------------------------------------------------------------
   Step     Total Energy     Delta E     MAX Force     RMS Force      MAX Disp      RMS Disp   
  ---------------------------------------------------------------------------------------------
    Convergence Criteria    1.00e-06 *    3.00e-04 *             o    1.20e-03 *             o
  ---------------------------------------------------------------------------------------------
      2    -157.82862833   -1.02e-02      2.85e-02      8.05e-03 o    2.63e-02      1.25e-02 o  ~
  ---------------------------------------------------------------------------------------------

	Writing optimization data to binary file.
	Structure for next step:
	Cartesian Geometry (in Angstrom)
	    H    -1.7190307375   0.4668351537   0.5800477657
	    H    -1.4635670498   2.1032376111  -0.0369196867
	    H    -1.3218298152   0.7153412947  -1.1214205690
	    C    -1.1347520645   1.0681514830  -0.1110293360
	    H     0.9085427656   1.6029802821  -0.4771904468
	    H     0.5104369492   1.3539924864   1.2344552257
	    C     0.3645367373   0.9749222720   0.2252448934
	    H     1.7454802597  -0.4839482567  -0.5855226142
	    H     1.3459985891  -0.7344434404   1.1249848383
	    C     0.9435063998  -0.4705178155   0.1493850131
	    H     0.3876840579  -2.5174485961  -0.2793310678
	    H    -0.5049909833  -1.3236446299  -1.2285622714
	    H    -0.9023868068  -1.5721913678   0.4725479450
	    C    -0.0895604613  -1.5396854762  -0.2481850310
			--------------------------
			 OPTKING Finished Execution 
			--------------------------

    Structure for next step:
    Molecular point group: c1
    Full point group: C1

    Geometry (in Angstrom), charge = 0, multiplicity = 1:

    H           -1.718741001145     0.466798825211     0.582361958057
    H           -1.463277313438     2.103201282602    -0.034605494263
    H           -1.321540078836     0.715304966215    -1.119106376574
    C           -1.134462328153     1.068115154515    -0.108715143579
    H            0.908832501886     1.602943953592    -0.474876254387
    H            0.510726685558     1.353956157941     1.236769418088
    C            0.364826473635     0.974885943519     0.227559085821
    H            1.745769996071    -0.483984585142    -0.583208421825
    H            1.346288325396    -0.734479768844     1.127299030716
    C            0.943796136131    -0.470554143988     0.151699205466
    H            0.387973794216    -2.517484924561    -0.277016875383
    H           -0.504701246932    -1.323680958348    -1.226248079035
    H           -0.902097070522    -1.572227696309     0.474862137427
    C           -0.089270724989    -1.539721804639    -0.245870838651

gradient() will perform analytic gradient computation.
    SCF Algorithm Type (re)set to DF.

*** tstart() called on lski1497
*** at Mon Feb 20 17:32:13 2017


         ---------------------------------------------------------
                                   SCF
            by Justin Turney, Rob Parrish, and Andy Simmonett
                              RHF Reference
                        1 Threads,   1000 MiB Core
         ---------------------------------------------------------

  ==> Geometry <==

    Molecular point group: c1
    Full point group: C1

    Geometry (in Angstrom), charge = 0, multiplicity = 1:

       Center              X                  Y                   Z               Mass       
    ------------   -----------------  -----------------  -----------------  -----------------
           H         -1.718741001145     0.466798825211     0.582361958057     1.007825032070
           H         -1.463277313438     2.103201282602    -0.034605494263     1.007825032070
           H         -1.321540078836     0.715304966215    -1.119106376574     1.007825032070
           C         -1.134462328153     1.068115154515    -0.108715143579    12.000000000000
           H          0.908832501886     1.602943953592    -0.474876254387     1.007825032070
           H          0.510726685558     1.353956157941     1.236769418088     1.007825032070
           C          0.364826473635     0.974885943519     0.227559085821    12.000000000000
           H          1.745769996071    -0.483984585142    -0.583208421825     1.007825032070
           H          1.346288325396    -0.734479768844     1.127299030716     1.007825032070
           C          0.943796136131    -0.470554143988     0.151699205466    12.000000000000
           H          0.387973794216    -2.517484924561    -0.277016875383     1.007825032070
           H         -0.504701246932    -1.323680958348    -1.226248079035     1.007825032070
           H         -0.902097070522    -1.572227696309     0.474862137427     1.007825032070
           C         -0.089270724989    -1.539721804639    -0.245870838651    12.000000000000

  Running in c1 symmetry.

  Rotational constants: A =      0.38996  B =      0.18552  C =      0.13878 [cm^-1]
  Rotational constants: A =  11690.75230  B =   5561.88054  C =   4160.54817 [MHz]
  Nuclear repulsion =  133.431539729429318

  Charge       = 0
  Multiplicity = 1
  Electrons    = 34
  Nalpha       = 17
  Nbeta        = 17

  ==> Algorithm <==

  SCF Algorithm Type is DF.
  DIIS enabled.
  MOM disabled.
  Fractional occupation disabled.
  Guess Type is READ.
  Energy threshold   = 1.00e-10
  Density threshold  = 1.00e-10
  Integral threshold = 0.00e+00

  ==> Primary Basis <==

  Basis Set: 6-31G(D)
    Number of shells: 44
    Number of basis function: 80
    Number of Cartesian functions: 80
    Spherical Harmonics?: false
    Max angular momentum: 2

  ==> Pre-Iterations <==

   -------------------------------------------------------
    Irrep   Nso     Nmo     Nalpha   Nbeta   Ndocc  Nsocc
   -------------------------------------------------------
     A         80      80       0       0       0       0
   -------------------------------------------------------
    Total      80      80      17      17      17       0
   -------------------------------------------------------

  ==> Integral Setup <==

  ==> DFJK: Density-Fitted J/K Matrices <==

    J tasked:                  Yes
    K tasked:                  Yes
    wK tasked:                  No
    OpenMP threads:              1
    Integrals threads:           1
    Memory (MB):               715
    Algorithm:                Core
    Integral Cache:           NONE
    Schwarz Cutoff:          1E-12
    Fitting Condition:       1E-12

   => Auxiliary Basis Set <=

  Basis Set: 
    Number of shells: 186
    Number of basis function: 574
    Number of Cartesian functions: 574
    Spherical Harmonics?: false
    Max angular momentum: 3

  Minimum eigenvalue in the overlap matrix is 3.8308719233E-03.
  Using Symmetric Orthogonalization.
  SCF Guess was Projection but file not found.
  Switching over to SAD guess.

  SCF Guess: Superposition of Atomic Densities via on-the-fly atomic UHF.

  ==> Iterations <==

                           Total Energy        Delta E     RMS |[F,P]|

   @DF-RHF iter   0:  -158.67663558983404   -1.58677e+02   4.49195e-02 
   @DF-RHF iter   1:  -157.17588608769066    1.50075e+00   4.57449e-03 
   @DF-RHF iter   2:  -157.27327220679851   -9.73861e-02   1.53695e-03 DIIS
   @DF-RHF iter   3:  -157.28400858543890   -1.07364e-02   6.01118e-04 DIIS
   @DF-RHF iter   4:  -157.28584271673250   -1.83413e-03   8.39509e-05 DIIS
   @DF-RHF iter   5:  -157.28589556414565   -5.28474e-05   1.73969e-05 DIIS
   @DF-RHF iter   6:  -157.28589775458343   -2.19044e-06   4.40798e-06 DIIS
   @DF-RHF iter   7:  -157.28589785463478   -1.00051e-07   1.12286e-06 DIIS
   @DF-RHF iter   8:  -157.28589786317863   -8.54385e-09   2.61418e-07 DIIS
   @DF-RHF iter   9:  -157.28589786373394   -5.55303e-10   7.28226e-08 DIIS
   @DF-RHF iter  10:  -157.28589786377481   -4.08704e-11   2.10694e-08 DIIS
   @DF-RHF iter  11:  -157.28589786377697   -2.16005e-12   4.58045e-09 DIIS
   @DF-RHF iter  12:  -157.28589786377714   -1.70530e-13   9.88279e-10 DIIS
   @DF-RHF iter  13:  -157.28589786377725   -1.13687e-13   2.11510e-10 DIIS
   @DF-RHF iter  14:  -157.28589786377719    5.68434e-14   7.21657e-11 DIIS

  ==> Post-Iterations <==

    Orbital Energies (a.u.)
    -----------------------

    Doubly Occupied:                                                      

       1A    -11.214382     2A    -11.213861     3A    -11.206959  
       4A    -11.206941     5A     -1.065303     6A     -0.970255  
       7A     -0.878126     8A     -0.766259     9A     -0.640755  
      10A     -0.613407    11A     -0.565132    12A     -0.533617  
      13A     -0.522047    14A     -0.520578    15A     -0.454979  
      16A     -0.453252    17A     -0.450664  

    Virtual:                                                              

      18A      0.223171    19A      0.273142    20A      0.276824  
      21A      0.297537    22A      0.302906    23A      0.311898  
      24A      0.347857    25A      0.363482    26A      0.365335  
      27A      0.375100    28A      0.426549    29A      0.429486  
      30A      0.493595    31A      0.705184    32A      0.731870  
      33A      0.734289    34A      0.789766    35A      0.793773  
      36A      0.814285    37A      0.860370    38A      0.914788  
      39A      0.936528    40A      1.009442    41A      1.120737  
      42A      1.137019    43A      1.143993    44A      1.161436  
      45A      1.169606    46A      1.179179    47A      1.198019  
      48A      1.204730    49A      1.212694    50A      1.253072  
      51A      1.256370    52A      1.278138    53A      1.309874  
      54A      1.598716    55A      1.674996    56A      1.698892  
      57A      1.715575    58A      1.935179    59A      2.081915  
      60A      2.152517    61A      2.170152    62A      2.255006  
      63A      2.276405    64A      2.325218    65A      2.364190  
      66A      2.417649    67A      2.531476    68A      2.581074  
      69A      2.630127    70A      2.670694    71A      2.709100  
      72A      2.732755    73A      2.796540    74A      2.891079  
      75A      2.987329    76A      3.086151    77A      4.549115  
      78A      4.717062    79A      4.760350    80A      5.014812  

    Final Occupation by Irrep:
              A 
    DOCC [    17 ]

  Energy converged.

  @DF-RHF Final Energy:  -157.28589786377719

   => Energetics <=

    Nuclear Repulsion Energy =            133.4315397294293177
    One-Electron Energy =                -474.8818438013862533
    Two-Electron Energy =                 184.1644062081797983
    DFT Exchange-Correlation Energy =       0.0000000000000000
    Empirical Dispersion Energy =           0.0000000000000000
    PCM Polarization Energy =               0.0000000000000000
    EFP Energy =                            0.0000000000000000
    Total Energy =                       -157.2858978637771088


  Saving occupied orbitals to File 180.

*** tstop() called on lski1497 at Mon Feb 20 17:32:22 2017
Module time:
	user time   =       4.75 seconds =       0.08 minutes
	system time =       0.13 seconds =       0.00 minutes
	total time  =          9 seconds =       0.15 minutes
Total time:
	user time   =      49.41 seconds =       0.82 minutes
	system time =       1.42 seconds =       0.02 minutes
	total time  =         72 seconds =       1.20 minutes


Properties will be evaluated at   0.000000,   0.000000,   0.000000 Bohr

Properties computed using the SCF density matrix

  Nuclear Dipole Moment: (a.u.)
     X:    -0.9476      Y:    -0.3653      Z:    -0.2754

  Electronic Dipole Moment: (a.u.)
     X:     0.9759      Y:     0.3761      Z:     0.2834

  Dipole Moment: (a.u.)
     X:     0.0283      Y:     0.0108      Z:     0.0080     Total:     0.0313

  Dipole Moment: (Debye)
     X:     0.0719      Y:     0.0275      Z:     0.0204     Total:     0.0797


  //>>>>>>>>>>>>>>>>>>>>>>>>>>>>>>>>>>>//
  //               DFMP2               //
  //<<<<<<<<<<<<<<<<<<<<<<<<<<<<<<<<<<<//


*** tstart() called on lski1497
*** at Mon Feb 20 17:32:22 2017


*** tstop() called on lski1497 at Mon Feb 20 17:32:22 2017
Module time:
	user time   =       0.50 seconds =       0.01 minutes
	system time =       0.01 seconds =       0.00 minutes
	total time  =          0 seconds =       0.00 minutes
Total time:
	user time   =      49.92 seconds =       0.83 minutes
	system time =       1.43 seconds =       0.02 minutes
	total time  =         72 seconds =       1.20 minutes
	 --------------------------------------------------------
	                          DF-MP2                         
	      2nd-Order Density-Fitted Moller-Plesset Theory     
	              RMP2 Wavefunction,   1 Threads             
	                                                         
	        Rob Parrish, Justin Turney, Andy Simmonett,      
	           Ed Hohenstein, and C. David Sherrill          
	 --------------------------------------------------------

   => Auxiliary Basis Set <=

  Basis Set: 
    Number of shells: 132
    Number of basis function: 364
    Number of Cartesian functions: 414
    Spherical Harmonics?: true
    Max angular momentum: 3

	 --------------------------------------------------------
	                 NBF =    80, NAUX =   364
	 --------------------------------------------------------
	   CLASS    FOCC     OCC    AOCC    AVIR     VIR    FVIR
	   PAIRS       0      17      17      63      63       0
	 --------------------------------------------------------

DGAS Warning! /src/lib/libfock/apps.cc:80 is not currently checking restricted

         ------------------------------------------------------------
                                     CPHF                           
                                  Rob Parrish                       
         ------------------------------------------------------------

  ==> Geometry <==

    Molecular point group: c1
    Full point group: C1

    Geometry (in Angstrom), charge = 0, multiplicity = 1:

       Center              X                  Y                   Z               Mass       
    ------------   -----------------  -----------------  -----------------  -----------------
           H         -1.718741001145     0.466798825211     0.582361958057     1.007825032070
           H         -1.463277313438     2.103201282602    -0.034605494263     1.007825032070
           H         -1.321540078836     0.715304966215    -1.119106376574     1.007825032070
           C         -1.134462328153     1.068115154515    -0.108715143579    12.000000000000
           H          0.908832501886     1.602943953592    -0.474876254387     1.007825032070
           H          0.510726685558     1.353956157941     1.236769418088     1.007825032070
           C          0.364826473635     0.974885943519     0.227559085821    12.000000000000
           H          1.745769996071    -0.483984585142    -0.583208421825     1.007825032070
           H          1.346288325396    -0.734479768844     1.127299030716     1.007825032070
           C          0.943796136131    -0.470554143988     0.151699205466    12.000000000000
           H          0.387973794216    -2.517484924561    -0.277016875383     1.007825032070
           H         -0.504701246932    -1.323680958348    -1.226248079035     1.007825032070
           H         -0.902097070522    -1.572227696309     0.474862137427     1.007825032070
[...]
    Schwarz Cutoff:          1E-12
    Fitting Condition:       1E-12

   => Auxiliary Basis Set <=

  Basis Set: 
    Number of shells: 186
    Number of basis function: 574
    Number of Cartesian functions: 574
    Spherical Harmonics?: false
    Max angular momentum: 3

  ==> CPHF Iterations <==

  => Iterations <=

             Iter  Converged  Remaining    Residual
  CGR           1          0          1   7.597E-02
  CGR           2          0          1   8.907E-03
  CGR           3          0          1   2.229E-03
  CGR           4          0          1   4.268E-04
  CGR           5          0          1   7.572E-05
  CGR           6          0          1   1.452E-05
  CGR           7          0          1   2.051E-06
  CGR           8          1          0   5.023E-07

    CGRSolver converged.

  ==> DFCorrGrad: Density-Fitted Correlated Gradients <==

    OpenMP threads:              1
    Integrals threads:           1
    Memory (MB):               715
    Schwarz Cutoff:          0E+00
    Fitting Condition:       1E-12

   => Auxiliary Basis Set <=

  Basis Set: 
    Number of shells: 186
    Number of basis function: 510
    Number of Cartesian functions: 574
    Spherical Harmonics?: true
    Max angular momentum: 3

	-----------------------------------------------------------
	 ==================> DF-MP2 Energies <==================== 
	-----------------------------------------------------------
	 Reference Energy          =    -157.2879799163765142 [Eh]
	 Singles Energy            =      -0.0000000000000000 [Eh]
	 Same-Spin Energy          =      -0.1242217494423571 [Eh]
	 Opposite-Spin Energy      =      -0.4226122760465524 [Eh]
	 Correlation Energy        =      -0.5468340254889095 [Eh]
	 Total Energy              =    -157.8348139418654341 [Eh]
	-----------------------------------------------------------
	 ================> DF-SCS-MP2 Energies <================== 
	-----------------------------------------------------------
	 SCS Same-Spin Scale       =       0.3333333333333333 [-]
	 SCS Opposite-Spin Scale   =       1.2000000000000000 [-]
	 SCS Same-Spin Energy      =      -0.0414072498141190 [Eh]
	 SCS Opposite-Spin Energy  =      -0.5071347312558629 [Eh]
	 SCS Correlation Energy    =      -0.5485419810699820 [Eh]
	 SCS Total Energy          =    -157.8365218974464881 [Eh]
	-----------------------------------------------------------


  -Total Gradient:
     Atom            X                  Y                   Z
    ------   -----------------  -----------------  -----------------
       1       -0.000043227183    -0.000037215774     0.000017984992
       2       -0.000040973921     0.000019833869    -0.000004396600
       3       -0.000031586862    -0.000024621992    -0.000038996195
       4        0.000215178209    -0.000069750295     0.000024233307
       5        0.000026533611     0.000038786579     0.000000054948
       6        0.000025529810     0.000036940989     0.000017667563
       7       -0.000101135903    -0.000093076623    -0.000017926962
       8        0.000046861819    -0.000008274082    -0.000000705262
       9        0.000042348837    -0.000012464691     0.000016794907
      10       -0.000131440950     0.000003197578    -0.000038766380
      11       -0.000015385143    -0.000041983885    -0.000008242019
      12       -0.000040731234    -0.000000999390    -0.000038295276
      13       -0.000053787715    -0.000003136181     0.000018732759
      14        0.000101816625     0.000192763902     0.000051860218


			-----------------------------------------
			 OPTKING 2.0: for geometry optimizations 
			  - R.A. King,  Bethel University        
			-----------------------------------------

	Previous internal coordinate definitions found.
	---Fragment 1 Geometry and Gradient---
	 H          -3.2944599713        1.0401084992        1.2128354422
	 H          -2.7137857215        4.0920572931        0.0076068106
	 H          -2.6664884399        1.4627342461       -2.0389892045
	 C          -2.1599848372        2.1064168127       -0.1435152365
	 H           1.6843882048        3.0374360738       -0.9716440054
	 H           1.0649836245        2.6210413595        2.2371057339
	 C           0.6680216540        1.8294492639        0.3665822586
	 H           3.2772929760       -0.9365108874       -1.1794722338
	 H           2.6568429284       -1.3532434784        2.0290398488
	 C           1.7571811558       -0.8886033208        0.2241014326
	 H           0.8547785851       -4.8132966156       -0.4594996904
	 H          -0.9956962723       -2.7051730145       -2.2582884968
	 H          -1.6249307215       -3.1268010280        0.9934285560
	 C          -0.1176493080       -2.9900143002       -0.4112330054
	            -0.0000432272       -0.0000372158        0.0000179850
	            -0.0000409739        0.0000198339       -0.0000043966
	            -0.0000315869       -0.0000246220       -0.0000389962
	             0.0002151782       -0.0000697503        0.0000242333
	             0.0000265336        0.0000387866        0.0000000549
	             0.0000255298        0.0000369410        0.0000176676
	            -0.0001011359       -0.0000930766       -0.0000179270
	             0.0000468618       -0.0000082741       -0.0000007053
	             0.0000423488       -0.0000124647        0.0000167949
	            -0.0001314410        0.0000031976       -0.0000387664
	            -0.0000153851       -0.0000419839       -0.0000082420
	            -0.0000407312       -0.0000009994       -0.0000382953
	            -0.0000537877       -0.0000031362        0.0000187328
	             0.0001018166        0.0001927639        0.0000518602

	---Fragment 1 Intrafragment Coordinates---
	 - Coordinate -           - BOHR/RAD -       - ANG/DEG -
	 R(1,4)           =         2.064881	       1.092688
	 R(2,4)           =         2.066955	       1.093785
	 R(3,4)           =         2.064872	       1.092683
	 R(4,7)           =         2.886959	       1.527713
	 R(5,7)           =         2.069561	       1.095165
	 R(6,7)           =         2.069554	       1.095161
	 R(7,10)          =         2.931617	       1.551345
	 R(8,10)          =         2.069554	       1.095161
	 R(9,10)          =         2.069561	       1.095165
	 R(10,14)         =         2.886965	       1.527716
	 R(11,14)         =         2.066955	       1.093786
	 R(12,14)         =         2.064877	       1.092686
	 R(13,14)         =         2.064869	       1.092681
	 B(1,4,2)         =         1.876386	     107.509009
	 B(1,4,3)         =         1.883079	     107.892469
	 B(1,4,7)         =         1.952596	     111.875496
	 B(2,4,3)         =         1.876390	     107.509245
	 B(2,4,7)         =         1.919526	     109.980756
	 B(3,4,7)         =         1.952578	     111.874502
	 B(4,7,5)         =         1.886856	     108.108900
	 B(4,7,6)         =         1.886932	     108.113227
	 B(4,7,10)        =         2.031185	     116.378328
	 B(5,7,6)         =         1.841054	     105.484614
	 B(5,7,10)        =         1.904229	     109.104310
	 B(6,7,10)        =         1.904236	     109.104704
	 B(7,10,8)        =         1.904253	     109.105646
	 B(7,10,9)        =         1.904213	     109.103383
	 B(7,10,14)       =         2.031183	     116.378234
	 B(8,10,9)        =         1.841060	     105.484970
	 B(8,10,14)       =         1.886935	     108.113438
	 B(9,10,14)       =         1.886849	     108.108459
	 B(10,14,11)      =         1.919520	     109.980398
	 B(10,14,12)      =         1.952599	     111.875700
	 B(10,14,13)      =         1.952564	     111.873653
	 B(11,14,12)      =         1.876381	     107.508694
	 B(11,14,13)      =         1.876403	     107.510000
	 B(12,14,13)      =         1.883090	     107.893088
	 D(1,4,7,5)       =        -3.076699	    -176.281878
	 D(1,4,7,6)       =        -1.091646	     -62.546719
	 D(1,4,7,10)      =         1.057455	      60.587705
	 D(2,4,7,5)       =        -0.992728	     -56.879140
	 D(2,4,7,6)       =         0.992325	      56.856019
	 D(2,4,7,10)      =         3.141426	     179.990443
	 D(3,4,7,5)       =         1.091237	      62.523254
	 D(3,4,7,6)       =         3.076290	     176.258413
	 D(3,4,7,10)      =        -1.057795	     -60.607162
	 D(4,7,10,8)      =         2.140324	     122.631538
	 D(4,7,10,9)      =        -2.139734	    -122.597750
	 D(4,7,10,14)     =         0.000221	       0.012659
	 D(5,7,10,8)      =         0.000344	       0.019722
	 D(5,7,10,9)      =         2.003471	     114.790433
	 D(5,7,10,14)     =        -2.139759	    -122.599158
	 D(6,7,10,8)      =        -2.002775	    -114.750558
	 D(6,7,10,9)      =         0.000352	       0.020153
	 D(6,7,10,14)     =         2.140307	     122.630562
	 D(7,10,14,11)    =        -3.141308	    -179.983709
	 D(7,10,14,12)    =         1.057915	      60.614057
	 D(7,10,14,13)    =        -1.057341	     -60.581151
	 D(8,10,14,11)    =         0.992752	      56.880516
	 D(8,10,14,12)    =        -1.091210	     -62.521719
	 D(8,10,14,13)    =         3.076720	     176.283073
	 D(9,10,14,11)    =        -0.992306	     -56.854943
	 D(9,10,14,12)    =        -3.076268	    -176.257178
	 D(9,10,14,13)    =         1.091662	      62.547614

	Current energy   :      -157.8348139419

	Energy change for the previous step:
		Projected    :        -0.0000033359
		Actual       :        -0.0000022887

	Performing BFGS update.
	Previous computed or guess Hessian on step 1.
	Steps to be used in Hessian update: 6 5
	Adding user-defined constraint: Fragment 1; Coordinate 49:
		Value =     0.000221; Fixed value    =     0.000170
		Force =    -0.000033; Force constant =     0.650000
	Removing off-diagonal coupling between coordinate 49 and others.
	Taking RFO optimization step.
	Going to follow RFO solution 1.
	Using RFO vector 1.
	Norm of target step-size    0.00288
	Projected energy change by RFO approximation:        -0.0000010312

	Back-transformation to cartesian coordinates...
	Successfully converged to displaced geometry.

	--- Internal Coordinate Step in ANG or DEG, aJ/ANG or AJ/DEG ---
	 ---------------------------------------------------------------------------
	   Coordinate                Previous        Force       Change         New 
	   ----------                --------       ------       ------       ------
	    1 R(1,4)          =      1.092688    -0.000451    -0.000071     1.092617
	    2 R(2,4)          =      1.093785    -0.000245    -0.000057     1.093728
	    3 R(3,4)          =      1.092683    -0.000422    -0.000064     1.092619
	    4 R(4,7)          =      1.527713     0.000889     0.000215     1.527928
	    5 R(5,7)          =      1.095165    -0.000294    -0.000037     1.095127
	    6 R(6,7)          =      1.095161    -0.000288    -0.000035     1.095126
	    7 R(7,10)         =      1.551345     0.001141     0.000074     1.551419
	    8 R(8,10)         =      1.095161    -0.000289    -0.000035     1.095126
	    9 R(9,10)         =      1.095165    -0.000295    -0.000037     1.095128
	   10 R(10,14)        =      1.527716     0.000880     0.000212     1.527928
	   11 R(11,14)        =      1.093786    -0.000247    -0.000057     1.093729
	   12 R(12,14)        =      1.092686    -0.000424    -0.000065     1.092621
	   13 R(13,14)        =      1.092681    -0.000430    -0.000067     1.092615
	   14 B(1,4,2)        =    107.509009     0.000002     0.012105   107.521114
	   15 B(1,4,3)        =    107.892469     0.000002     0.017577   107.910046
	   16 B(1,4,7)        =    111.875496    -0.000001    -0.007386   111.868110
	   17 B(2,4,3)        =    107.509245     0.000002     0.012763   107.522009
	   18 B(2,4,7)        =    109.980756    -0.000004    -0.025183   109.955573
	   19 B(3,4,7)        =    111.874502    -0.000001    -0.007660   111.866842
	   20 B(4,7,5)        =    108.108900    -0.000006    -0.012145   108.096755
	   21 B(4,7,6)        =    108.113227    -0.000006    -0.013816   108.099411
	   22 B(4,7,10)       =    116.378328     0.000019     0.035221   116.413548
	   23 B(5,7,6)        =    105.484614     0.000004     0.014504   105.499118
	   24 B(5,7,10)       =    109.104310    -0.000006    -0.013418   109.090893
	   25 B(6,7,10)       =    109.104704    -0.000006    -0.011699   109.093005
	   26 B(7,10,8)       =    109.105646    -0.000006    -0.014045   109.091601
	   27 B(7,10,9)       =    109.103383    -0.000006    -0.011131   109.092252
	   28 B(7,10,14)      =    116.378234     0.000019     0.035263   116.413496
	   29 B(8,10,9)       =    105.484970     0.000004     0.014241   105.499211
	   30 B(8,10,14)      =    108.113438    -0.000006    -0.014526   108.098912
	   31 B(9,10,14)      =    108.108459    -0.000006    -0.011186   108.097273
	   32 B(10,14,11)     =    109.980398    -0.000004    -0.024804   109.955594
	   33 B(10,14,12)     =    111.875700    -0.000001    -0.008130   111.867569
	   34 B(10,14,13)     =    111.873653    -0.000000    -0.006210   111.867443
	   35 B(11,14,12)     =    107.508694     0.000002     0.012931   107.521625
	   36 B(11,14,13)     =    107.510000     0.000002     0.011398   107.521398
	   37 B(12,14,13)     =    107.893088     0.000002     0.016970   107.910058
	   38 D(1,4,7,5)      =   -176.281878     0.000000     0.035140  -176.246738
	   39 D(1,4,7,6)      =    -62.546719    -0.000000     0.039036   -62.507683
	   40 D(1,4,7,10)     =     60.587705     0.000000     0.037555    60.625260
	   41 D(2,4,7,5)      =    -56.879140     0.000000     0.028821   -56.850319
	   42 D(2,4,7,6)      =     56.856019    -0.000000     0.032718    56.888737
	   43 D(2,4,7,10)     =    179.990443     0.000000     0.031236   180.021680
	   44 D(3,4,7,5)      =     62.523254    -0.000000     0.023153    62.546408
	   45 D(3,4,7,6)      =    176.258413    -0.000000     0.027050   176.285463
	   46 D(3,4,7,10)     =    -60.607162    -0.000000     0.025568   -60.581594
	   47 D(4,7,10,8)     =    122.631538     0.000000    -0.006155   122.625383
	   48 D(4,7,10,9)     =   -122.597750    -0.000000    -0.002852  -122.600602
	   49 D(4,7,10,14)    =      0.012659    -0.000000    -0.001097     0.011562
	   50 D(5,7,10,8)     =      0.019722    -0.000000    -0.004747     0.014974
	   51 D(5,7,10,9)     =    114.790433    -0.000000    -0.001444   114.788989
	   52 D(5,7,10,14)    =   -122.599158    -0.000000     0.000311  -122.598847
	   53 D(6,7,10,8)     =   -114.750558     0.000000    -0.008395  -114.758953
	   54 D(6,7,10,9)     =      0.020153    -0.000000    -0.005091     0.015062
	   55 D(6,7,10,14)    =    122.630562     0.000000    -0.003337   122.627226
	   56 D(7,10,14,11)   =   -179.983709    -0.000000    -0.034263  -180.017972
	   57 D(7,10,14,12)   =     60.614057     0.000000    -0.028755    60.585302
	   58 D(7,10,14,13)   =    -60.581151    -0.000000    -0.040460   -60.621611
	   59 D(8,10,14,11)   =     56.880516    -0.000000    -0.029130    56.851385
	   60 D(8,10,14,12)   =    -62.521719    -0.000000    -0.023622   -62.545341
	   61 D(8,10,14,13)   =    176.283073    -0.000000    -0.035327   176.247746
	   62 D(9,10,14,11)   =    -56.854943     0.000000    -0.032845   -56.887788
	   63 D(9,10,14,12)   =   -176.257178     0.000000    -0.027337  -176.284515
	   64 D(9,10,14,13)   =     62.547614    -0.000000    -0.039042    62.508573
	 ---------------------------------------------------------------------------
	 Forces used to impose fixed constraints are not included.
	  Forces zeroed: 49 

  ==> Convergence Check <==

  Measures of convergence in internal coordinates in au.
  Criteria marked as inactive (o), active & met (*), and active & unmet ( ).
  ---------------------------------------------------------------------------------------------
   Step     Total Energy     Delta E     MAX Force     RMS Force      MAX Disp      RMS Disp   
  ---------------------------------------------------------------------------------------------
    Convergence Criteria    1.00e-06 *    3.00e-04 *             o    1.20e-03 *             o
  ---------------------------------------------------------------------------------------------
      7    -157.83481394   -2.29e-06      2.53e-04 *    6.34e-05 o    7.06e-04 *    3.59e-04 o  ~
  ---------------------------------------------------------------------------------------------


  **** Optimization is complete! (in 7 steps) ****

  ==> Optimization Summary <==

  Measures of convergence in internal coordinates in au.
  --------------------------------------------------------------------------------------------------------------- ~
   Step         Total Energy             Delta E       MAX Force       RMS Force        MAX Disp        RMS Disp  ~
  --------------------------------------------------------------------------------------------------------------- ~
      1    -157.818467234265   -157.818467234265      0.07806005      0.01859063      0.05291344      0.01265250  ~
      2    -157.828628326796     -0.010161092531      0.02851909      0.00805246      0.02630178      0.01253748  ~
      3    -157.832737231704     -0.004108904908      0.01397689      0.00363908      0.02624824      0.01252251  ~
      4    -157.834242769366     -0.001505537662      0.00665771      0.00165774      0.03212050      0.01249810  ~
      5    -157.834771334771     -0.000528565405      0.00220545      0.00051233      0.01037922      0.00382813  ~
      6    -157.834811653207     -0.000040318436      0.00070118      0.00016505      0.00139976      0.00050199  ~
      7    -157.834813941865     -0.000002288659      0.00025280      0.00006341      0.00070616      0.00035948  ~
  --------------------------------------------------------------------------------------------------------------- ~

	Writing optimization data to binary file.
	Final energy is   -157.8348139418654
	Final (previous) structure:
	Cartesian Geometry (in Angstrom)
	    H    -1.7433531314   0.5504017123   0.6418048738
	    H    -1.4360735528   2.1654234557   0.0040253508
	    H    -1.4110449094   0.7740456252  -1.0789866156
	    C    -1.1430147468   1.1146677691  -0.0759449923
	    H     0.8913398484   1.6073419428  -0.5141718625
	    H     0.5635650616   1.3869953502   1.1838253676
	    C     0.3535018341   0.9681028547   0.1939869763
	    H     1.7342687488  -0.4955802172  -0.6241498243
	    H     1.4059407245  -0.7161056064   1.0737216433
	    C     0.9298602190  -0.4702286249   0.1185893706
	    H     0.4523293456  -2.5470868672  -0.2431567635
	    H    -0.5268997740  -1.4315159046  -1.1950348029
	    H    -0.8598763034  -1.6546318398   0.5256997502
	    C    -0.0622573324  -1.5822474210  -0.2176151339
	Saving final (previous) structure.
			--------------------------
			 OPTKING Finished Execution 
			--------------------------

    Final optimized geometry and variables:
    Molecular point group: c1
    Full point group: C1

    Geometry (in Angstrom), charge = 0, multiplicity = 1:

    H           -1.743353131436     0.550401712255     0.641804873778
    H           -1.436073552801     2.165423455748     0.004025350798
    H           -1.411044909385     0.774045625247    -1.078986615593
    C           -1.143014746764     1.114667769060    -0.075944992264
    H            0.891339848419     1.607341942779    -0.514171862525
    H            0.563565061591     1.386995350200     1.183825367572
    C            0.353501834128     0.968102854704     0.193986976348
    H            1.734268748769    -0.495580217214    -0.624149824282
    H            1.405940724500    -0.716105606439     1.073721643306
    C            0.929860219021    -0.470228624860     0.118589370562
    H            0.452329345610    -2.547086867168    -0.243156763506
    H           -0.526899773981    -1.431515904581    -1.195034802903
    H           -0.859876303355    -1.654631839809     0.525699750195
    C           -0.062257332407    -1.582247421014    -0.217615133856

	Cleaning optimization helper files.

*** Psi4 exiting successfully. Buy a developer a beer!
