    -----------------------------------------------------------------------
          Psi4: An Open-Source Ab Initio Electronic Structure Package
                              Psi4 1.0.0 Driver

                          Git: Rev {master} 6a9a71b 

    J. M. Turney, A. C. Simmonett, R. M. Parrish, E. G. Hohenstein,
    F. A. Evangelista, J. T. Fermann, B. J. Mintz, L. A. Burns, J. J. Wilke,
    M. L. Abrams, N. J. Russ, M. L. Leininger, C. L. Janssen, E. T. Seidl,
    W. D. Allen, H. F. Schaefer, R. A. King, E. F. Valeev, C. D. Sherrill,
    and T. D. Crawford, WIREs Comput. Mol. Sci. 2, 556-565 (2012)
    (doi: 10.1002/wcms.93)

                         Additional Contributions by
    A. E. DePrince, U. Bozkaya, A. Yu. Sokolov, D. G. A. Smith, R. Di Remigio,
    R. M. Richard, J. F. Gonthier, H. R. McAlexander, M. Saitow, and
    B. P. Pritchard
    -----------------------------------------------------------------------


    Psi4 started on: Mon Feb 20 17:23:42 2017

    Process ID:  28124
    PSI4DATADIR: /Users/sternc1/anaconda/share/psi4
    Memory level set to 256.000 MB

  ==> Input File <==

--------------------------------------------------------------------------

memory 1000 mb

molecule butane {
  symmetry C1
  0 1 
  H      1.604   0.760   -8.260
  H      1.745   2.388   -8.880
  H      2.043   1.024   -9.930
  C      2.142   1.395   -8.932
  H      4.169   2.051   -9.210
  H      3.731   1.788   -7.539
  C      3.631   1.416   -8.537
  H      3.403   -0.709   -8.750
  H      4.882   -0.082   -9.436
  C      4.203   -0.012   -8.612
  H      5.345   -1.329   -7.357
  H      4.270   -0.267   -6.480
  H      5.748   0.360   -7.166
  C      4.948   -0.337   -7.305
  units Angstrom
}

dih_string = "4 7 10 14 230"
set optking fixed_dihedral = $dih_string

optimize('MP2/6-31G(d)')
--------------------------------------------------------------------------

  Memory set to 1000.000 MiB by Python script.
gradient() will perform analytic gradient computation.
    SCF Algorithm Type (re)set to DF.

*** tstart() called on lski1497
*** at Mon Feb 20 17:23:43 2017


         ---------------------------------------------------------
                                   SCF
            by Justin Turney, Rob Parrish, and Andy Simmonett
                              RHF Reference
                        1 Threads,   1000 MiB Core
         ---------------------------------------------------------

  ==> Geometry <==

    Molecular point group: c1
    Full point group: C1

    Geometry (in Angstrom), charge = 0, multiplicity = 1:

       Center              X                  Y                   Z               Mass       
    ------------   -----------------  -----------------  -----------------  -----------------
           H         -2.120579433612     0.147467342844     0.078569732867     1.007825032070
           H         -1.979579433612     1.775467342844    -0.541430267133     1.007825032070
           H         -1.681579433612     0.411467342844    -1.591430267133     1.007825032070
           C         -1.582579433612     0.782467342844    -0.593430267133    12.000000000000
           H          0.444420566388     1.438467342844    -0.871430267133     1.007825032070
           H          0.006420566388     1.175467342844     0.799569732867     1.007825032070
           C         -0.093579433612     0.803467342844    -0.198430267133    12.000000000000
           H         -0.321579433612    -1.321532657156    -0.411430267133     1.007825032070
           H          1.157420566388    -0.694532657156    -1.097430267133     1.007825032070
           C          0.478420566388    -0.624532657156    -0.273430267133    12.000000000000
           H          1.620420566388    -1.941532657156     0.981569732867     1.007825032070
           H          0.545420566388    -0.879532657156     1.858569732867     1.007825032070
           H          2.023420566388    -0.252532657156     1.172569732867     1.007825032070
           C          1.223420566388    -0.949532657156     1.033569732867    12.000000000000

  Running in c1 symmetry.

  Rotational constants: A =      0.63090  B =      0.12931  C =      0.12653 [cm^-1]
  Rotational constants: A =  18913.88985  B =   3876.61816  C =   3793.40690 [MHz]
  Nuclear repulsion =  132.349119781003765

  Charge       = 0
  Multiplicity = 1
  Electrons    = 34
  Nalpha       = 17
  Nbeta        = 17

  ==> Algorithm <==

  SCF Algorithm Type is DF.
  DIIS enabled.
  MOM disabled.
  Fractional occupation disabled.
  Guess Type is SAD.
  Energy threshold   = 1.00e-10
  Density threshold  = 1.00e-10
  Integral threshold = 0.00e+00

  ==> Primary Basis <==

  Basis Set: 6-31G(D)
    Number of shells: 44
    Number of basis function: 80
    Number of Cartesian functions: 80
    Spherical Harmonics?: false
    Max angular momentum: 2

  ==> Pre-Iterations <==

   -------------------------------------------------------
    Irrep   Nso     Nmo     Nalpha   Nbeta   Ndocc  Nsocc
   -------------------------------------------------------
     A         80      80       0       0       0       0
   -------------------------------------------------------
    Total      80      80      17      17      17       0
   -------------------------------------------------------

  ==> Integral Setup <==

  ==> DFJK: Density-Fitted J/K Matrices <==

    J tasked:                  Yes
    K tasked:                  Yes
    wK tasked:                  No
    OpenMP threads:              1
    Integrals threads:           1
    Memory (MB):               715
    Algorithm:                Core
    Integral Cache:           NONE
    Schwarz Cutoff:          1E-12
    Fitting Condition:       1E-12

   => Auxiliary Basis Set <=

  Basis Set: 
    Number of shells: 186
    Number of basis function: 574
    Number of Cartesian functions: 574
    Spherical Harmonics?: false
    Max angular momentum: 3

  Minimum eigenvalue in the overlap matrix is 4.7012460363E-03.
  Using Symmetric Orthogonalization.
  SCF Guess: Superposition of Atomic Densities via on-the-fly atomic UHF.

  ==> Iterations <==

                           Total Energy        Delta E     RMS |[F,P]|

   @DF-RHF iter   0:  -158.97617704395964   -1.58976e+02   4.74453e-02 
   @DF-RHF iter   1:  -157.20018392816093    1.77599e+00   3.95997e-03 
   @DF-RHF iter   2:  -157.28015508209762   -7.99712e-02   1.08798e-03 DIIS
   @DF-RHF iter   3:  -157.28794578536423   -7.79070e-03   2.47709e-04 DIIS
   @DF-RHF iter   4:  -157.28829588414033   -3.50099e-04   7.79515e-05 DIIS
   @DF-RHF iter   5:  -157.28833016187804   -3.42777e-05   1.38583e-05 DIIS
   @DF-RHF iter   6:  -157.28833157101781   -1.40914e-06   2.59892e-06 DIIS
   @DF-RHF iter   7:  -157.28833160572520   -3.47074e-08   7.54951e-07 DIIS
   @DF-RHF iter   8:  -157.28833160890554   -3.18033e-09   1.35578e-07 DIIS
   @DF-RHF iter   9:  -157.28833160905890   -1.53364e-10   3.15343e-08 DIIS
   @DF-RHF iter  10:  -157.28833160906709   -8.18545e-12   5.45335e-09 DIIS
   @DF-RHF iter  11:  -157.28833160906743   -3.41061e-13   1.17397e-09 DIIS
   @DF-RHF iter  12:  -157.28833160906760   -1.70530e-13   3.41525e-10 DIIS
   @DF-RHF iter  13:  -157.28833160906748    1.13687e-13   7.36182e-11 DIIS

  ==> Post-Iterations <==

    Orbital Energies (a.u.)
    -----------------------

    Doubly Occupied:                                                      

       1A    -11.206348     2A    -11.205772     3A    -11.200850  
       4A    -11.200762     5A     -1.071334     6A     -0.980358  
       7A     -0.863803     8A     -0.793796     9A     -0.640993  
      10A     -0.598973    11A     -0.584876    12A     -0.556905  
      13A     -0.511842    14A     -0.511479    15A     -0.470271  
      16A     -0.465447    17A     -0.441483  

    Virtual:                                                              

      18A      0.235214    19A      0.270482    20A      0.291723  
      21A      0.299727    22A      0.324131    23A      0.332611  
      24A      0.333967    25A      0.343732    26A      0.349879  
      27A      0.357697    28A      0.416875    29A      0.444165  
      30A      0.452416    31A      0.709303    32A      0.725124  
      33A      0.737970    34A      0.780768    35A      0.805636  
      36A      0.824137    37A      0.827629    38A      0.935958  
      39A      0.940147    40A      1.003508    41A      1.055302  
      42A      1.089806    43A      1.172699    44A      1.183763  
      45A      1.192678    46A      1.209767    47A      1.212583  
      48A      1.222715    49A      1.245899    50A      1.257812  
      51A      1.268178    52A      1.273538    53A      1.288486  
      54A      1.466847    55A      1.656921    56A      1.733002  
      57A      1.773146    58A      1.922053    59A      1.990633  
      60A      2.100726    61A      2.193197    62A      2.236826  
      63A      2.288563    64A      2.300564    65A      2.361994  
      66A      2.452718    67A      2.525261    68A      2.633617  
      69A      2.661180    70A      2.695382    71A      2.719095  
      72A      2.751958    73A      2.779739    74A      2.893000  
      75A      3.013470    76A      3.092955    77A      4.576257  
      78A      4.665651    79A      4.811908    80A      4.970505  

    Final Occupation by Irrep:
              A 
    DOCC [    17 ]

  Energy converged.

  @DF-RHF Final Energy:  -157.28833160906748

   => Energetics <=

    Nuclear Repulsion Energy =            132.3491197810037647
    One-Electron Energy =                -472.6643169812852534
    Two-Electron Energy =                 183.0268655912140900
    DFT Exchange-Correlation Energy =       0.0000000000000000
    Empirical Dispersion Energy =           0.0000000000000000
    PCM Polarization Energy =               0.0000000000000000
    EFP Energy =                            0.0000000000000000
    Total Energy =                       -157.2883316090673986


  Saving occupied orbitals to File 180.

*** tstop() called on lski1497 at Mon Feb 20 17:23:51 2017
Module time:
	user time   =       4.81 seconds =       0.08 minutes
	system time =       0.17 seconds =       0.00 minutes
	total time  =          8 seconds =       0.13 minutes
Total time:
	user time   =       4.81 seconds =       0.08 minutes
	system time =       0.17 seconds =       0.00 minutes
	total time  =          8 seconds =       0.13 minutes


Properties will be evaluated at   0.000000,   0.000000,   0.000000 Bohr

Properties computed using the SCF density matrix

  Nuclear Dipole Moment: (a.u.)
     X:    -0.2867      Y:    -0.1325      Z:     0.3541

  Electronic Dipole Moment: (a.u.)
     X:     0.3056      Y:     0.1408      Z:    -0.3773

  Dipole Moment: (a.u.)
     X:     0.0189      Y:     0.0083      Z:    -0.0232     Total:     0.0311

  Dipole Moment: (Debye)
     X:     0.0481      Y:     0.0212      Z:    -0.0590     Total:     0.0790


  //>>>>>>>>>>>>>>>>>>>>>>>>>>>>>>>>>>>//
  //               DFMP2               //
  //<<<<<<<<<<<<<<<<<<<<<<<<<<<<<<<<<<<//


*** tstart() called on lski1497
*** at Mon Feb 20 17:23:51 2017


*** tstop() called on lski1497 at Mon Feb 20 17:23:51 2017
Module time:
	user time   =       0.54 seconds =       0.01 minutes
	system time =       0.00 seconds =       0.00 minutes
	total time  =          0 seconds =       0.00 minutes
Total time:
	user time   =       5.37 seconds =       0.09 minutes
	system time =       0.17 seconds =       0.00 minutes
	total time  =          8 seconds =       0.13 minutes
	 --------------------------------------------------------
	                          DF-MP2                         
	      2nd-Order Density-Fitted Moller-Plesset Theory     
	              RMP2 Wavefunction,   1 Threads             
	                                                         
	        Rob Parrish, Justin Turney, Andy Simmonett,      
	           Ed Hohenstein, and C. David Sherrill          
	 --------------------------------------------------------

   => Auxiliary Basis Set <=

  Basis Set: 
    Number of shells: 132
    Number of basis function: 364
    Number of Cartesian functions: 414
    Spherical Harmonics?: true
    Max angular momentum: 3

	 --------------------------------------------------------
	                 NBF =    80, NAUX =   364
	 --------------------------------------------------------
	   CLASS    FOCC     OCC    AOCC    AVIR     VIR    FVIR
	   PAIRS       0      17      17      63      63       0
	 --------------------------------------------------------

DGAS Warning! /src/lib/libfock/apps.cc:80 is not currently checking restricted

         ------------------------------------------------------------
                                     CPHF                           
                                  Rob Parrish                       
         ------------------------------------------------------------

  ==> Geometry <==

    Molecular point group: c1
    Full point group: C1

    Geometry (in Angstrom), charge = 0, multiplicity = 1:

       Center              X                  Y                   Z               Mass       
    ------------   -----------------  -----------------  -----------------  -----------------
           H         -2.120579433612     0.147467342844     0.078569732867     1.007825032070
           H         -1.979579433612     1.775467342844    -0.541430267133     1.007825032070
           H         -1.681579433612     0.411467342844    -1.591430267133     1.007825032070
           C         -1.582579433612     0.782467342844    -0.593430267133    12.000000000000
           H          0.444420566388     1.438467342844    -0.871430267133     1.007825032070
           H          0.006420566388     1.175467342844     0.799569732867     1.007825032070
           C         -0.093579433612     0.803467342844    -0.198430267133    12.000000000000
           H         -0.321579433612    -1.321532657156    -0.411430267133     1.007825032070
           H          1.157420566388    -0.694532657156    -1.097430267133     1.007825032070
           C          0.478420566388    -0.624532657156    -0.273430267133    12.000000000000
           H          1.620420566388    -1.941532657156     0.981569732867     1.007825032070
           H          0.545420566388    -0.879532657156     1.858569732867     1.007825032070
           H          2.023420566388    -0.252532657156     1.172569732867     1.007825032070
           C          1.223420566388    -0.949532657156     1.033569732867    12.000000000000

  Nuclear repulsion =  132.349119781003765
  Reference energy  = -157.288331609067484

  ==> Basis Set <==

  Basis Set: 6-31G(D)
    Number of shells: 44
    Number of basis function: 80
    Number of Cartesian functions: 80
    Spherical Harmonics?: false
    Max angular momentum: 2

  ==> CGRSolver (by Rob Parrish) <==

   Number of roots    =         1
   Preconditioning    =    JACOBI
   Convergence cutoff =     1E-06
   Maximum iterations =       100

  ==> CPHFRHamiltonian (by Rob Parrish) <== 

  ==> DFJK: Density-Fitted J/K Matrices <==

    J tasked:                  Yes
    K tasked:                  Yes
    wK tasked:                  No
    OpenMP threads:              1
    Integrals threads:           1
    Memory (MB):               715
    Algorithm:                Core
    Integral Cache:           NONE
    Schwarz Cutoff:          1E-12
    Fitting Condition:       1E-12

   => Auxiliary Basis Set <=

  Basis Set: 
    Number of shells: 186
    Number of basis function: 574
    Number of Cartesian functions: 574
    Spherical Harmonics?: false
    Max angular momentum: 3

  ==> CPHF Iterations <==

  => Iterations <=

             Iter  Converged  Remaining    Residual
  CGR           1          0          1   7.323E-02
  CGR           2          0          1   8.866E-03
  CGR           3          0          1   2.714E-03
  CGR           4          0          1   4.074E-04
  CGR           5          0          1   7.839E-05
  CGR           6          0          1   1.955E-05
  CGR           7          0          1   3.615E-06
  CGR           8          1          0   6.406E-07

    CGRSolver converged.

  ==> DFCorrGrad: Density-Fitted Correlated Gradients <==

    OpenMP threads:              1
    Integrals threads:           1
    Memory (MB):               715
    Schwarz Cutoff:          0E+00
    Fitting Condition:       1E-12

   => Auxiliary Basis Set <=

  Basis Set: 
    Number of shells: 186
    Number of basis function: 510
    Number of Cartesian functions: 574
    Spherical Harmonics?: true
    Max angular momentum: 3

	-----------------------------------------------------------
	 ==================> DF-MP2 Energies <==================== 
	-----------------------------------------------------------
	 Reference Energy          =    -157.2883316090674839 [Eh]
	 Singles Energy            =      -0.0000000000000000 [Eh]
	 Same-Spin Energy          =      -0.1244183259549213 [Eh]
	 Opposite-Spin Energy      =      -0.4204117421589491 [Eh]
	 Correlation Energy        =      -0.5448300681138704 [Eh]
	 Total Energy              =    -157.8331616771813515 [Eh]
	-----------------------------------------------------------
	 ================> DF-SCS-MP2 Energies <================== 
	-----------------------------------------------------------
	 SCS Same-Spin Scale       =       0.3333333333333333 [-]
	 SCS Opposite-Spin Scale   =       1.2000000000000000 [-]
	 SCS Same-Spin Energy      =      -0.0414727753183071 [Eh]
	 SCS Opposite-Spin Energy  =      -0.5044940905907388 [Eh]
	 SCS Correlation Energy    =      -0.5459668659090459 [Eh]
	 SCS Total Energy          =    -157.8342984749765208 [Eh]
	-----------------------------------------------------------


  -Total Gradient:
     Atom            X                  Y                   Z
    ------   -----------------  -----------------  -----------------
       1        0.010324805290     0.009390162903    -0.009210754105
       2        0.010702345537    -0.013751715652     0.000660169526
       3        0.004160668555     0.005755102449     0.015458141026
       4       -0.027348401984    -0.009229725728    -0.007864085169
       5       -0.008698196685    -0.013498046506     0.007029904925
       6       -0.002200593200    -0.009282871311    -0.014715715500
       7        0.021871550549     0.026098285769     0.014242555529
       8        0.010597498486     0.013146159451     0.004270521951
       9       -0.008772635296     0.005333770939     0.014453121821
      10       -0.009028722764    -0.020353563104    -0.028860270796
      11       -0.008412312671     0.015593554220    -0.003751453177
      12        0.008697427219    -0.000411436986    -0.013918569969
      13       -0.012742454833    -0.009495811985    -0.004246770932
      14        0.010849021798     0.000706135541     0.026453204869


			-----------------------------------------
			 OPTKING 2.0: for geometry optimizations 
			  - R.A. King,  Bethel University        
			-----------------------------------------

	Internal coordinates to be generated automatically.
	Detected frag 1 with atoms:  1 2 3 4 5 6 7 8 9 10 11 12 13 14
	---Fragment 1 Bond Connectivity---
	 1 : 4
	 2 : 4
	 3 : 4
	 4 : 1 2 3 7
	 5 : 7
	 6 : 7
	 7 : 4 5 6 10
	 8 : 10
	 9 : 10
	 10 : 7 8 9 14
	 11 : 14
	 12 : 14
	 13 : 14
	 14 : 10 11 12 13

	Assuming in current code that numbering for constraints corresponds to unified fragment.
	Fixed dihedral atom list: 
	     4     7    10    14
	---Fragment 1 Geometry and Gradient---
	 H          -4.0073143726        0.2786728915        0.1484752775
	 H          -3.7408629878        3.3551470359       -1.0231549249
	 H          -3.1777246002        0.7775605906       -3.0073673645
	 C          -2.9906417131        1.4786489859       -1.1214206838
	 H           0.8398331583        2.7183093291       -1.6467645488
	 H           0.0121331121        2.2213113561        1.5109678193
	 C          -0.1768395012        1.5183332347       -0.3749788614
	 H          -0.6076970595       -2.4973347977       -0.7774905277
	 H           2.1872078910       -1.3124765124       -2.0738426548
	 C           0.9040838468       -1.1801956831       -0.5167083213
	 H           3.0621510906       -3.6689650001        1.8548979754
	 H           1.0306954977       -1.6620758470        3.5121877940
	 H           3.8237107221       -0.4772175616        2.2158356668
	 C           2.3119298158       -1.7943566763        1.9531637344
	             0.0103248053        0.0093901629       -0.0092107541
	             0.0107023455       -0.0137517157        0.0006601695
	             0.0041606686        0.0057551024        0.0154581410
	            -0.0273484020       -0.0092297257       -0.0078640852
	            -0.0086981967       -0.0134980465        0.0070299049
	            -0.0022005932       -0.0092828713       -0.0147157155
	             0.0218715505        0.0260982858        0.0142425555
	             0.0105974985        0.0131461595        0.0042705220
	            -0.0087726353        0.0053337709        0.0144531218
	            -0.0090287228       -0.0203535631       -0.0288602708
	            -0.0084123127        0.0155935542       -0.0037514532
	             0.0086974272       -0.0004114370       -0.0139185700
	            -0.0127424548       -0.0094958120       -0.0042467709
	             0.0108490218        0.0007061355        0.0264532049

	Previous optimization step data not found.  Starting new optimization.

	---Fragment 1 Intrafragment Coordinates---
	 - Coordinate -           - BOHR/RAD -       - ANG/DEG -
	 R(1,4)           =         2.021436	       1.069698
	 R(2,4)           =         2.023298	       1.070683
	 R(3,4)           =         2.020723	       1.069320
	 R(4,7)           =         2.911397	       1.540645
	 R(5,7)           =         2.022623	       1.070326
	 R(6,7)           =         2.021555	       1.069761
	 R(7,10)          =         2.910419	       1.540128
	 R(8,10)          =         2.021965	       1.069978
	 R(9,10)          =         2.022022	       1.070008
	 R(10,14)         =         2.908521	       1.539123
	 R(11,14)         =         2.021545	       1.069756
	 R(12,14)         =         2.022280	       1.070144
	 R(13,14)         =         2.022210	       1.070107
	 B(1,4,2)         =         1.910870	     109.484805
	 B(1,4,3)         =         1.911121	     109.499161
	 B(1,4,7)         =         1.910399	     109.457783
	 B(2,4,3)         =         1.910042	     109.437340
	 B(2,4,7)         =         1.910564	     109.467262
	 B(3,4,7)         =         1.910803	     109.480971
	 B(4,7,5)         =         1.909937	     109.431343
	 B(4,7,6)         =         1.911630	     109.528316
	 B(4,7,10)        =         1.911154	     109.501062
	 B(5,7,6)         =         1.910605	     109.469614
	 B(5,7,10)        =         1.910047	     109.437654
	 B(6,7,10)        =         1.910425	     109.459295
	 B(7,10,8)        =         1.909839	     109.425686
	 B(7,10,9)        =         1.911169	     109.501896
	 B(7,10,14)       =         1.911558	     109.524208
	 B(8,10,9)        =         1.909771	     109.421845
	 B(8,10,14)       =         1.911212	     109.504379
	 B(9,10,14)       =         1.910250	     109.449271
	 B(10,14,11)      =         1.911518	     109.521891
	 B(10,14,12)      =         1.911527	     109.522409
	 B(10,14,13)      =         1.912011	     109.550166
	 B(11,14,12)      =         1.910548	     109.466356
	 B(11,14,13)      =         1.910140	     109.442955
	 B(12,14,13)      =         1.908052	     109.323327
	 D(1,4,7,5)       =         3.140997	     179.965873
	 D(1,4,7,6)       =        -1.047644	     -60.025575
	 D(1,4,7,10)      =         1.047427	      60.013132
	 D(2,4,7,5)       =        -1.047689	     -60.028143
	 D(2,4,7,6)       =         1.046856	      59.980409
	 D(2,4,7,10)      =        -3.141259	    -179.980883
	 D(3,4,7,5)       =         1.046044	      59.933911
	 D(3,4,7,6)       =         3.140588	     179.942463
	 D(3,4,7,10)      =        -1.047526	     -60.018830
	 D(4,7,10,8)      =        -0.173770	      -9.956260
	 D(4,7,10,9)      =         1.919411	     109.974175
	 D(4,7,10,14)     =        -2.268953	    -130.001416
	 D(5,7,10,8)      =        -2.267272	    -129.905136
	 D(5,7,10,9)      =        -0.174091	      -9.974701
	 D(5,7,10,14)     =         1.920730	     110.049708
	 D(6,7,10,8)      =         1.922038	     110.124666
	 D(6,7,10,9)      =        -2.267966	    -129.944899
	 D(6,7,10,14)     =        -0.173145	      -9.920491
	 D(7,10,14,11)    =         3.141255	     179.980640
	 D(7,10,14,12)    =         1.045873	      59.924102
	 D(7,10,14,13)    =        -1.046752	     -59.974453
	 D(8,10,14,11)    =         1.046912	      59.983615
	 D(8,10,14,12)    =        -1.048470	     -60.072922
	 D(8,10,14,13)    =        -3.141095	    -179.971478
	 D(9,10,14,11)    =        -1.046548	     -59.962771
	 D(9,10,14,12)    =         3.141256	     179.980692
	 D(9,10,14,13)    =         1.048631	      60.082137

	Current energy   :      -157.8331616772

	Generating empirical Hessian (Schlegel '84) for each fragment.
	Adding user-defined constraint: Fragment 1; Coordinate 49:
		Value =    -2.268953; Fixed value    =    -2.268928
		Force =     0.000012; Force constant =     0.500000
	Removing off-diagonal coupling between coordinate 49 and others.
	Taking RFO optimization step.
	Going to follow RFO solution 1.
	Using RFO vector 1.

	Determining step-restricting scale parameter for RS-RFO.
	Maximum step size allowed    0.10000

	 Iter      |step|        alpha        rfo_root  
	------------------------------------------------
	    0     0.23731       1.00000           1
	    1     0.17483       6.16347           1
	    2     0.13358      18.06812           1
	    3     0.11035      34.32742           1
	    4     0.10145      44.49977           1
	    5     0.10004      46.41580           1
	    6     0.10000      46.46451           1
	------------------------------------------------
	Norm of target step-size    0.10000
	Projected energy change by RFO approximation:        -0.0054741436

	Back-transformation to cartesian coordinates...
	Successfully converged to displaced geometry.

	--- Internal Coordinate Step in ANG or DEG, aJ/ANG or AJ/DEG ---
	 ---------------------------------------------------------------------------
	   Coordinate                Previous        Force       Change         New 
	   ----------                --------       ------       ------       ------
	    1 R(1,4)          =      1.069698     0.136379     0.013725     1.083423
	    2 R(2,4)          =      1.070683     0.137505     0.013866     1.084549
	    3 R(3,4)          =      1.069320     0.138486     0.013927     1.083247
	    4 R(4,7)          =      1.540645    -0.020102    -0.002347     1.538298
	    5 R(5,7)          =      1.070326     0.138415     0.013948     1.084274
	    6 R(6,7)          =      1.069761     0.141395     0.014232     1.083993
	    7 R(7,10)         =      1.540128     0.059232     0.006910     1.547037
	    8 R(8,10)         =      1.069978     0.140370     0.014135     1.084113
	    9 R(9,10)         =      1.070008     0.140437     0.014143     1.084150
	   10 R(10,14)        =      1.539123    -0.014201    -0.001654     1.537469
	   11 R(11,14)        =      1.069756     0.143350     0.014429     1.084184
	   12 R(12,14)        =      1.070144     0.134023     0.013500     1.083645
	   13 R(13,14)        =      1.070107     0.133985     0.013495     1.083603
	   14 B(1,4,2)        =    109.484805    -0.000286    -0.503506   108.981299
	   15 B(1,4,3)        =    109.499161    -0.000194    -0.366587   109.132575
	   16 B(1,4,7)        =    109.457783     0.000124     0.214597   109.672380
	   17 B(2,4,3)        =    109.437340    -0.000292    -0.506890   108.930450
	   18 B(2,4,7)        =    109.467262     0.000489     0.878514   110.345777
	   19 B(3,4,7)        =    109.480971     0.000158     0.272598   109.753569
	   20 B(4,7,5)        =    109.431343    -0.000244    -0.375022   109.056321
	   21 B(4,7,6)        =    109.528316    -0.000231    -0.379338   109.148978
	   22 B(4,7,10)       =    109.501062     0.000758     1.239529   110.740591
	   23 B(5,7,6)        =    109.469614    -0.000046    -0.268002   109.201612
	   24 B(5,7,10)       =    109.437654    -0.000101    -0.076774   109.360880
	   25 B(6,7,10)       =    109.459295    -0.000137    -0.149448   109.309847
	   26 B(7,10,8)       =    109.425686    -0.000134    -0.143315   109.282372
	   27 B(7,10,9)       =    109.501896    -0.000109    -0.094846   109.407050
	   28 B(7,10,14)      =    109.524208     0.000758     1.239888   110.764096
	   29 B(8,10,9)       =    109.421845    -0.000043    -0.262947   109.158898
	   30 B(8,10,14)      =    109.504379    -0.000230    -0.377219   109.127160
	   31 B(9,10,14)      =    109.449271    -0.000243    -0.371712   109.077559
	   32 B(10,14,11)     =    109.521891     0.000486     0.872505   110.394396
	   33 B(10,14,12)     =    109.522409     0.000112     0.193309   109.715718
	   34 B(10,14,13)     =    109.550166     0.000147     0.252770   109.802937
	   35 B(11,14,12)     =    109.466356    -0.000281    -0.495927   108.970429
	   36 B(11,14,13)     =    109.442955    -0.000290    -0.505029   108.937926
	   37 B(12,14,13)     =    109.323327    -0.000176    -0.331844   108.991483
	   38 D(1,4,7,5)      =    179.965873     0.000035     0.344640   180.310513
	   39 D(1,4,7,6)      =    -60.025575    -0.000045    -0.435739   -60.461314
	   40 D(1,4,7,10)     =     60.013132    -0.000009    -0.090372    59.922761
	   41 D(2,4,7,5)      =    -60.028143     0.000041     0.403250   -59.624893
	   42 D(2,4,7,6)      =     59.980409    -0.000039    -0.377128    59.603281
	   43 D(2,4,7,10)     =   -179.980883    -0.000003    -0.031761  -180.012645
	   44 D(3,4,7,5)      =     59.933911     0.000050     0.494461    60.428372
	   45 D(3,4,7,6)      =    179.942463    -0.000030    -0.285917   179.656545
	   46 D(3,4,7,10)     =    -60.018830     0.000006     0.059450   -59.959380
	   47 D(4,7,10,8)     =     -9.956260     0.000016     0.163506    -9.792753
	   48 D(4,7,10,9)     =    109.974175    -0.000030    -0.302103   109.672073
	   49 D(4,7,10,14)    =   -130.001416    -0.000007    -0.049541  -130.050957
	   50 D(5,7,10,8)     =   -129.905136    -0.000007    -0.093762  -129.998898
	   51 D(5,7,10,9)     =     -9.974701    -0.000054    -0.559371   -10.534071
	   52 D(5,7,10,14)    =    110.049708    -0.000031    -0.306809   109.742899
	   53 D(6,7,10,8)     =    110.124666     0.000039     0.370768   110.495434
	   54 D(6,7,10,9)     =   -129.944899    -0.000008    -0.094841  -130.039740
	   55 D(6,7,10,14)    =     -9.920491     0.000016     0.157721    -9.762770
	   56 D(7,10,14,11)   =    179.980640    -0.000002    -0.021052   179.959587
	   57 D(7,10,14,12)   =     59.924102    -0.000007    -0.073806    59.850296
	   58 D(7,10,14,13)   =    -59.974453     0.000006     0.058706   -59.915747
	   59 D(8,10,14,11)   =     59.983615    -0.000039    -0.374736    59.608879
	   60 D(8,10,14,12)   =    -60.072922    -0.000044    -0.427489   -60.500412
	   61 D(8,10,14,13)   =   -179.971478    -0.000031    -0.294977  -180.266455
	   62 D(9,10,14,11)   =    -59.962771     0.000040     0.395560   -59.567210
	   63 D(9,10,14,12)   =    179.980692     0.000035     0.342807   180.323499
	   64 D(9,10,14,13)   =     60.082137     0.000048     0.475319    60.557456
	 ---------------------------------------------------------------------------
	 Forces used to impose fixed constraints are not included.
	  Forces zeroed: 49 

  ==> Convergence Check <==

  Measures of convergence in internal coordinates in au.
  Criteria marked as inactive (o), active & met (*), and active & unmet ( ).
  --------------------------------------------------------------------------------------------- ~
   Step     Total Energy     Delta E     MAX Force     RMS Force      MAX Disp      RMS Disp    ~
  --------------------------------------------------------------------------------------------- ~
    Convergence Criteria    1.00e-06 *    3.00e-04 *             o    1.20e-03 *             o  ~
  --------------------------------------------------------------------------------------------- ~
      1    -157.83316168   -1.58e+02      1.74e-02      7.27e-03 o    2.73e-02      1.25e-02 o  ~
  ---------------------------------------------------------------------------------------------

	Writing optimization data to binary file.
	Structure for next step:
	Cartesian Geometry (in Angstrom)
	    H    -2.1470676831   0.1498996243   0.0748349841
	    H    -2.0055832913   1.7883765601  -0.5653238224
	    H    -1.6980707410   0.4032630458  -1.6135831877
	    C    -1.5936095361   0.7859278104  -0.6055750075
	    H     0.4351258027   1.4449807024  -0.8902613150
	    H    -0.0142432717   1.1917455560   0.8002283186
	    C    -0.1079682778   0.8018218644  -0.2068543142
	    H    -0.3111635984  -1.3424282627  -0.3997470495
	    H     1.1789143821  -0.6947604335  -1.0942583366
	    C     0.4890685279  -0.6243456694  -0.2608696288
	    H     1.6539631795  -1.9516344031   0.9970471169
	    H     0.5568745840  -0.8892373354   1.8809613552
	    H     2.0448584651  -0.2420068097   1.1883300399
	    C     1.2387893876  -0.9510594499   1.0410471071
			--------------------------
			 OPTKING Finished Execution 
			--------------------------

    Structure for next step:
    Molecular point group: c1
    Full point group: C1

    Geometry (in Angstrom), charge = 0, multiplicity = 1:

    H           -2.147180832507     0.149809688645     0.074935441154
    H           -2.005696440700     1.788286624406    -0.565223365334
    H           -1.698183890407     0.403173110107    -1.613482730618
    C           -1.593722685470     0.785837874708    -0.605474550422
    H            0.435012653321     1.444890766732    -0.890160857905
    H           -0.014356421066     1.191655620335     0.800328775690
    C           -0.108081427141     0.801731928730    -0.206753857164
    H           -0.311276747814    -1.342518198391    -0.399646592391
    H            1.178801232708    -0.694850369196    -1.094157879477
    C            0.488955378503    -0.624435605055    -0.260769171732
    H            1.653850030074    -1.951724338796     0.997147574011
    H            0.556761434617    -0.889327271130     1.881061812294
    H            2.044745315691    -0.242096745398     1.188430496935
    C            1.238676238161    -0.951149385594     1.041147564135

gradient() will perform analytic gradient computation.
    SCF Algorithm Type (re)set to DF.

*** tstart() called on lski1497
*** at Mon Feb 20 17:24:15 2017


         ---------------------------------------------------------
                                   SCF
            by Justin Turney, Rob Parrish, and Andy Simmonett
                              RHF Reference
                        1 Threads,   1000 MiB Core
         ---------------------------------------------------------

  ==> Geometry <==

    Molecular point group: c1
    Full point group: C1

    Geometry (in Angstrom), charge = 0, multiplicity = 1:

       Center              X                  Y                   Z               Mass       
    ------------   -----------------  -----------------  -----------------  -----------------
           H         -2.147180832507     0.149809688645     0.074935441154     1.007825032070
           H         -2.005696440700     1.788286624406    -0.565223365334     1.007825032070
           H         -1.698183890407     0.403173110107    -1.613482730618     1.007825032070
           C         -1.593722685470     0.785837874708    -0.605474550422    12.000000000000
           H          0.435012653321     1.444890766732    -0.890160857905     1.007825032070
           H         -0.014356421066     1.191655620335     0.800328775690     1.007825032070
           C         -0.108081427141     0.801731928730    -0.206753857164    12.000000000000
           H         -0.311276747814    -1.342518198391    -0.399646592391     1.007825032070
           H          1.178801232708    -0.694850369196    -1.094157879477     1.007825032070
           C          0.488955378503    -0.624435605055    -0.260769171732    12.000000000000
           H          1.653850030074    -1.951724338796     0.997147574011     1.007825032070
           H          0.556761434617    -0.889327271130     1.881061812294     1.007825032070
           H          2.044745315691    -0.242096745398     1.188430496935     1.007825032070
           C          1.238676238161    -0.951149385594     1.041147564135    12.000000000000

  Running in c1 symmetry.

  Rotational constants: A =      0.63208  B =      0.12687  C =      0.12432 [cm^-1]
  Rotational constants: A =  18949.40921  B =   3803.56108  C =   3726.88259 [MHz]
  Nuclear repulsion =  131.384285326625616

  Charge       = 0
  Multiplicity = 1
  Electrons    = 34
  Nalpha       = 17
  Nbeta        = 17

  ==> Algorithm <==

  SCF Algorithm Type is DF.
  DIIS enabled.
  MOM disabled.
  Fractional occupation disabled.
  Guess Type is READ.
  Energy threshold   = 1.00e-10
  Density threshold  = 1.00e-10
  Integral threshold = 0.00e+00

  ==> Primary Basis <==

  Basis Set: 6-31G(D)
    Number of shells: 44
    Number of basis function: 80
    Number of Cartesian functions: 80
    Spherical Harmonics?: false
    Max angular momentum: 2

  ==> Pre-Iterations <==

   -------------------------------------------------------
    Irrep   Nso     Nmo     Nalpha   Nbeta   Ndocc  Nsocc
   -------------------------------------------------------
     A         80      80       0       0       0       0
   -------------------------------------------------------
    Total      80      80      17      17      17       0
   -------------------------------------------------------

  ==> Integral Setup <==

  ==> DFJK: Density-Fitted J/K Matrices <==

    J tasked:                  Yes
    K tasked:                  Yes
    wK tasked:                  No
    OpenMP threads:              1
    Integrals threads:           1
    Memory (MB):               715
    Algorithm:                Core
    Integral Cache:           NONE
    Schwarz Cutoff:          1E-12
    Fitting Condition:       1E-12

   => Auxiliary Basis Set <=

  Basis Set: 
    Number of shells: 186
    Number of basis function: 574
    Number of Cartesian functions: 574
    Spherical Harmonics?: false
    Max angular momentum: 3

  Minimum eigenvalue in the overlap matrix is 4.8208604098E-03.
  Using Symmetric Orthogonalization.
  SCF Guess was Projection but file not found.
  Switching over to SAD guess.

  SCF Guess: Superposition of Atomic Densities via on-the-fly atomic UHF.

  ==> Iterations <==

                           Total Energy        Delta E     RMS |[F,P]|

   @DF-RHF iter   0:  -158.86579092312246   -1.58866e+02   4.64558e-02 
   @DF-RHF iter   1:  -157.20230791470232    1.66348e+00   3.93285e-03 
   @DF-RHF iter   2:  -157.28287951259296   -8.05716e-02   1.09998e-03 DIIS
   @DF-RHF iter   3:  -157.29091226939443   -8.03276e-03   2.54978e-04 DIIS
   @DF-RHF iter   4:  -157.29128401980108   -3.71750e-04   7.71289e-05 DIIS
   @DF-RHF iter   5:  -157.29131964858146   -3.56288e-05   1.35030e-05 DIIS
   @DF-RHF iter   6:  -157.29132101173280   -1.36315e-06   2.45655e-06 DIIS
   @DF-RHF iter   7:  -157.29132104337060   -3.16378e-08   7.72587e-07 DIIS
   @DF-RHF iter   8:  -157.29132104653189   -3.16129e-09   1.37706e-07 DIIS
   @DF-RHF iter   9:  -157.29132104668912   -1.57229e-10   3.14405e-08 DIIS
   @DF-RHF iter  10:  -157.29132104669753   -8.41283e-12   5.28412e-09 DIIS
   @DF-RHF iter  11:  -157.29132104669816   -6.25278e-13   9.67136e-10 DIIS
   @DF-RHF iter  12:  -157.29132104669787    2.84217e-13   2.88138e-10 DIIS
   @DF-RHF iter  13:  -157.29132104669793   -5.68434e-14   7.21040e-11 DIIS

  ==> Post-Iterations <==

    Orbital Energies (a.u.)
    -----------------------

    Doubly Occupied:                                                      

       1A    -11.211877     2A    -11.211325     3A    -11.206598  
       4A    -11.206552     5A     -1.067598     6A     -0.978248  
       7A     -0.860026     8A     -0.788412     9A     -0.636493  
      10A     -0.596078    11A     -0.581326    12A     -0.554774  
      13A     -0.508876    14A     -0.508127    15A     -0.466546  
      16A     -0.462122    17A     -0.445985  

    Virtual:                                                              

      18A      0.233200    19A      0.267767    20A      0.288056  
      21A      0.296366    22A      0.321674    23A      0.328725  
      24A      0.329930    25A      0.338750    26A      0.346428  
      27A      0.354623    28A      0.414291    29A      0.444516  
      30A      0.452485    31A      0.711008    32A      0.722876  
      33A      0.739411    34A      0.780942    35A      0.810755  
      36A      0.825057    37A      0.830359    38A      0.935501  
      39A      0.936796    40A      0.999162    41A      1.062275  
      42A      1.089303    43A      1.160934    44A      1.170905  
      45A      1.177432    46A      1.196182    47A      1.198363  
      48A      1.209716    49A      1.239559    50A      1.242466  
      51A      1.253216    52A      1.264028    53A      1.272835  
      54A      1.464456    55A      1.660299    56A      1.735814  
      57A      1.764160    58A      1.915842    59A      1.975561  
      60A      2.093810    61A      2.193146    62A      2.226359  
      63A      2.288242    64A      2.299021    65A      2.346488  
      66A      2.441380    67A      2.501798    68A      2.614234  
      69A      2.643286    70A      2.676427    71A      2.707082  
      72A      2.733582    73A      2.770282    74A      2.885670  
      75A      3.011958    76A      3.082256    77A      4.562692  
      78A      4.656985    79A      4.805562    80A      4.963382  

    Final Occupation by Irrep:
              A 
    DOCC [    17 ]

  Energy converged.

  @DF-RHF Final Energy:  -157.29132104669793

   => Energetics <=

    Nuclear Repulsion Energy =            131.3842853266256157
    One-Electron Energy =                -470.7692859505517617
    Two-Electron Energy =                 182.0936795772281585
    DFT Exchange-Correlation Energy =       0.0000000000000000
    Empirical Dispersion Energy =           0.0000000000000000
    PCM Polarization Energy =               0.0000000000000000
    EFP Energy =                            0.0000000000000000
    Total Energy =                       -157.2913210466979876


  Saving occupied orbitals to File 180.

*** tstop() called on lski1497 at Mon Feb 20 17:24:23 2017
Module time:
	user time   =       4.84 seconds =       0.08 minutes
	system time =       0.14 seconds =       0.00 minutes
	total time  =          8 seconds =       0.13 minutes
Total time:
	user time   =      27.44 seconds =       0.46 minutes
	system time =       0.84 seconds =       0.01 minutes
	total time  =         40 seconds =       0.67 minutes


Properties will be evaluated at   0.000000,   0.000000,   0.000000 Bohr

Properties computed using the SCF density matrix

  Nuclear Dipole Moment: (a.u.)
     X:    -0.2883      Y:    -0.1338      Z:     0.3555

  Electronic Dipole Moment: (a.u.)
     X:     0.3054      Y:     0.1416      Z:    -0.3765

  Dipole Moment: (a.u.)
     X:     0.0171      Y:     0.0078      Z:    -0.0210     Total:     0.0282

  Dipole Moment: (Debye)
     X:     0.0434      Y:     0.0199      Z:    -0.0534     Total:     0.0717


  //>>>>>>>>>>>>>>>>>>>>>>>>>>>>>>>>>>>//
  //               DFMP2               //
  //<<<<<<<<<<<<<<<<<<<<<<<<<<<<<<<<<<<//


*** tstart() called on lski1497
*** at Mon Feb 20 17:24:23 2017


*** tstop() called on lski1497 at Mon Feb 20 17:24:23 2017
Module time:
	user time   =       0.51 seconds =       0.01 minutes
	system time =       0.01 seconds =       0.00 minutes
	total time  =          0 seconds =       0.00 minutes
Total time:
	user time   =      27.96 seconds =       0.47 minutes
	system time =       0.85 seconds =       0.01 minutes
	total time  =         40 seconds =       0.67 minutes
	 --------------------------------------------------------
	                          DF-MP2                         
	      2nd-Order Density-Fitted Moller-Plesset Theory     
	              RMP2 Wavefunction,   1 Threads             
	                                                         
	        Rob Parrish, Justin Turney, Andy Simmonett,      
	           Ed Hohenstein, and C. David Sherrill          
	 --------------------------------------------------------

   => Auxiliary Basis Set <=

  Basis Set: 
    Number of shells: 132
    Number of basis function: 364
    Number of Cartesian functions: 414
    Spherical Harmonics?: true
    Max angular momentum: 3

	 --------------------------------------------------------
	                 NBF =    80, NAUX =   364
	 --------------------------------------------------------
	   CLASS    FOCC     OCC    AOCC    AVIR     VIR    FVIR
	   PAIRS       0      17      17      63      63       0
	 --------------------------------------------------------

DGAS Warning! /src/lib/libfock/apps.cc:80 is not currently checking restricted

         ------------------------------------------------------------
                                     CPHF                           
                                  Rob Parrish                       
         ------------------------------------------------------------

  ==> Geometry <==

    Molecular point group: c1
    Full point group: C1

    Geometry (in Angstrom), charge = 0, multiplicity = 1:

       Center              X                  Y                   Z               Mass       
    ------------   -----------------  -----------------  -----------------  -----------------
           H         -2.147180832507     0.149809688645     0.074935441154     1.007825032070
           H         -2.005696440700     1.788286624406    -0.565223365334     1.007825032070
           H         -1.698183890407     0.403173110107    -1.613482730618     1.007825032070
           C         -1.593722685470     0.785837874708    -0.605474550422    12.000000000000
           H          0.435012653321     1.444890766732    -0.890160857905     1.007825032070
           H         -0.014356421066     1.191655620335     0.800328775690     1.007825032070
           C         -0.108081427141     0.801731928730    -0.206753857164    12.000000000000
           H         -0.311276747814    -1.342518198391    -0.399646592391     1.007825032070
           H          1.178801232708    -0.694850369196    -1.094157879477     1.007825032070
           C          0.488955378503    -0.624435605055    -0.260769171732    12.000000000000
           H          1.653850030074    -1.951724338796     0.997147574011     1.007825032070
           H          0.556761434617    -0.889327271130     1.881061812294     1.007825032070
           H          2.044745315691    -0.242096745398     1.188430496935     1.007825032070
           C          1.238676238161    -0.951149385594     1.041147564135    12.000000000000

  Nuclear repulsion =  131.384285326625616
  Reference energy  = -157.291321046697931

  ==> Basis Set <==

  Basis Set: 6-31G(D)
    Number of shells: 44
    Number of basis function: 80
    Number of Cartesian functions: 80
    Spherical Harmonics?: false
    Max angular momentum: 2

  ==> CGRSolver (by Rob Parrish) <==

   Number of roots    =         1
   Preconditioning    =    JACOBI
   Convergence cutoff =     1E-06
   Maximum iterations =       100

  ==> CPHFRHamiltonian (by Rob Parrish) <== 

  ==> DFJK: Density-Fitted J/K Matrices <==

    J tasked:                  Yes
    K tasked:                  Yes
    wK tasked:                  No
    OpenMP threads:              1
    Integrals threads:           1
    Memory (MB):               715
    Algorithm:                Core
    Integral Cache:           NONE
    Schwarz Cutoff:          1E-12
    Fitting Condition:       1E-12

   => Auxiliary Basis Set <=

  Basis Set: 
    Number of shells: 186
    Number of basis function: 574
    Number of Cartesian functions: 574
    Spherical Harmonics?: false
    Max angular momentum: 3

  ==> CPHF Iterations <==

  => Iterations <=

             Iter  Converged  Remaining    Residual
  CGR           1          0          1   7.360E-02
  CGR           2          0          1   8.967E-03
  CGR           3          0          1   2.737E-03
  CGR           4          0          1   4.074E-04
  CGR           5          0          1   7.900E-05
  CGR           6          0          1   1.947E-05
  CGR           7          0          1   3.510E-06
  CGR           8          1          0   6.359E-07

    CGRSolver converged.

  ==> DFCorrGrad: Density-Fitted Correlated Gradients <==

    OpenMP threads:              1
    Integrals threads:           1
    Memory (MB):               715
    Schwarz Cutoff:          0E+00
    Fitting Condition:       1E-12

   => Auxiliary Basis Set <=

  Basis Set: 
    Number of shells: 186
    Number of basis function: 510
    Number of Cartesian functions: 574
    Spherical Harmonics?: true
    Max angular momentum: 3

	-----------------------------------------------------------
	 ==================> DF-MP2 Energies <==================== 
	-----------------------------------------------------------
	 Reference Energy          =    -157.2913210466979308 [Eh]
	 Singles Energy            =      -0.0000000000000000 [Eh]
	 Same-Spin Energy          =      -0.1242720654071732 [Eh]
	 Opposite-Spin Energy      =      -0.4216717583434674 [Eh]
	 Correlation Energy        =      -0.5459438237506407 [Eh]
	 Total Energy              =    -157.8372648704485641 [Eh]
	-----------------------------------------------------------
	 ================> DF-SCS-MP2 Energies <================== 
	-----------------------------------------------------------
	 SCS Same-Spin Scale       =       0.3333333333333333 [-]
	 SCS Opposite-Spin Scale   =       1.2000000000000000 [-]
	 SCS Same-Spin Energy      =      -0.0414240218023911 [Eh]
	 SCS Opposite-Spin Energy  =      -0.5060061100121608 [Eh]
	 SCS Correlation Energy    =      -0.5474301318145518 [Eh]
	 SCS Total Energy          =    -157.8387511785124957 [Eh]
	-----------------------------------------------------------


  -Total Gradient:
     Atom            X                  Y                   Z
    ------   -----------------  -----------------  -----------------
       1        0.005110548278     0.003705496635    -0.003018576311
       2        0.005089360780    -0.004803336460     0.000660396444
       3        0.002874600868     0.002503028205     0.006015554425
       4       -0.016186774162    -0.005443069481    -0.004363916482
       5       -0.004175741305    -0.007142727564     0.000525406512
       6       -0.001789568031    -0.005586261265    -0.005334913299
       7        0.012724073604     0.017162127556     0.008723782711
       8        0.003342954333     0.006291898495     0.003366434323
       9       -0.001871907140     0.004268959371     0.006869375037
      10       -0.005004734271    -0.013619988419    -0.017564243258
      11       -0.003687523855     0.005726687536    -0.002451304875
      12        0.002663036746    -0.000013618952    -0.006309954891
      13       -0.005243440016    -0.003467856477    -0.002802369160
      14        0.006155114173     0.000418660819     0.015684328825


			-----------------------------------------
			 OPTKING 2.0: for geometry optimizations 
			  - R.A. King,  Bethel University        
			-----------------------------------------

	Previous internal coordinate definitions found.
	---Fragment 1 Geometry and Gradient---
	 H          -4.0575837312        0.2830992836        0.1416074614
	 H          -3.7902169786        3.3793719672       -1.0681173644
	 H          -3.2091024761        0.7618867622       -3.0490404810
	 C          -3.0116994073        1.4850183680       -1.1441810807
	 H           0.8220547791        2.7304478411       -1.6821602357
	 H          -0.0271297041        2.2519027671        1.5124022023
	 C          -0.2042442973        1.5150537773       -0.3907081670
	 H          -0.5882278049       -2.5369917234       -0.7552226096
	 H           2.2276114949       -1.3130769011       -2.0676587384
	 C           0.9239917566       -1.1800122812       -0.4927823185
	 H           3.1253236217       -3.6882244872        1.8843358290
	 H           1.0521266328       -1.6805849849        3.5546916643
	 H           3.8640086582       -0.4574965465        2.2458081672
	 C           2.3407588574       -1.7974118502        1.9674837601
	             0.0051105483        0.0037054966       -0.0030185763
	             0.0050893608       -0.0048033365        0.0006603964
	             0.0028746009        0.0025030282        0.0060155544
	            -0.0161867742       -0.0054430695       -0.0043639165
	            -0.0041757413       -0.0071427276        0.0005254065
	            -0.0017895680       -0.0055862613       -0.0053349133
	             0.0127240736        0.0171621276        0.0087237827
	             0.0033429543        0.0062918985        0.0033664343
	            -0.0018719071        0.0042689594        0.0068693750
	            -0.0050047343       -0.0136199884       -0.0175642433
	            -0.0036875239        0.0057266875       -0.0024513049
	             0.0026630367       -0.0000136190       -0.0063099549
	            -0.0052434400       -0.0034678565       -0.0028023692
	             0.0061551142        0.0004186608        0.0156843288

	---Fragment 1 Intrafragment Coordinates---
	 - Coordinate -           - BOHR/RAD -       - ANG/DEG -
	 R(1,4)           =         2.047373	       1.083423
	 R(2,4)           =         2.049500	       1.084549
	 R(3,4)           =         2.047041	       1.083247
	 R(4,7)           =         2.906962	       1.538298
	 R(5,7)           =         2.048980	       1.084274
	 R(6,7)           =         2.048449	       1.083993
	 R(7,10)          =         2.923477	       1.547037
	 R(8,10)          =         2.048677	       1.084113
	 R(9,10)          =         2.048748	       1.084150
	 R(10,14)         =         2.905395	       1.537469
	 R(11,14)         =         2.048811	       1.084184
	 R(12,14)         =         2.047792	       1.083645
	 R(13,14)         =         2.047713	       1.083603
	 B(1,4,2)         =         1.902082	     108.981299
	 B(1,4,3)         =         1.904723	     109.132575
	 B(1,4,7)         =         1.914144	     109.672380
	 B(2,4,3)         =         1.901195	     108.930450
	 B(2,4,7)         =         1.925897	     110.345777
	 B(3,4,7)         =         1.915561	     109.753569
	 B(4,7,5)         =         1.903392	     109.056321
	 B(4,7,6)         =         1.905009	     109.148978
	 B(4,7,10)        =         1.932788	     110.740591
	 B(5,7,6)         =         1.905928	     109.201612
	 B(5,7,10)        =         1.908707	     109.360880
	 B(6,7,10)        =         1.907817	     109.309847
	 B(7,10,8)        =         1.907337	     109.282372
	 B(7,10,9)        =         1.909513	     109.407050
	 B(7,10,14)       =         1.933198	     110.764096
	 B(8,10,9)        =         1.905182	     109.158898
	 B(8,10,14)       =         1.904628	     109.127160
	 B(9,10,14)       =         1.903763	     109.077559
	 B(10,14,11)      =         1.926746	     110.394396
	 B(10,14,12)      =         1.914901	     109.715718
	 B(10,14,13)      =         1.916423	     109.802937
	 B(11,14,12)      =         1.901893	     108.970429
	 B(11,14,13)      =         1.901325	     108.937926
	 B(12,14,13)      =         1.902260	     108.991483
	 D(1,4,7,5)       =        -3.136173	    -179.689487
	 D(1,4,7,6)       =        -1.055249	     -60.461314
	 D(1,4,7,10)      =         1.045849	      59.922761
	 D(2,4,7,5)       =        -1.040651	     -59.624893
	 D(2,4,7,6)       =         1.040273	      59.603281
	 D(2,4,7,10)      =         3.141372	     179.987355
	 D(3,4,7,5)       =         1.054674	      60.428372
	 D(3,4,7,6)       =         3.135598	     179.656545
	 D(3,4,7,10)      =        -1.046489	     -59.959380
	 D(4,7,10,8)      =        -0.170916	      -9.792753
	 D(4,7,10,9)      =         1.914139	     109.672073
	 D(4,7,10,14)     =        -2.269817	    -130.050957
	 D(5,7,10,8)      =        -2.268909	    -129.998898
	 D(5,7,10,9)      =        -0.183854	     -10.534071
	 D(5,7,10,14)     =         1.915375	     109.742899
	 D(6,7,10,8)      =         1.928509	     110.495434
	 D(6,7,10,9)      =        -2.269622	    -130.039740
	 D(6,7,10,14)     =        -0.170392	      -9.762770
	 D(7,10,14,11)    =         3.140887	     179.959587
	 D(7,10,14,12)    =         1.044585	      59.850296
	 D(7,10,14,13)    =        -1.045727	     -59.915747
	 D(8,10,14,11)    =         1.040371	      59.608879
	 D(8,10,14,12)    =        -1.055931	     -60.500412
	 D(8,10,14,13)    =         3.136942	     179.733545
	 D(9,10,14,11)    =        -1.039644	     -59.567210
	 D(9,10,14,12)    =        -3.135947	    -179.676501
	 D(9,10,14,13)    =         1.056927	      60.557456

	Current energy   :      -157.8372648704

	Energy change for the previous step:
		Projected    :        -0.0054741436
		Actual       :        -0.0041031933

	Performing BFGS update.
	Previous computed or guess Hessian on step 1.
	Steps to be used in Hessian update: 1
	Adding user-defined constraint: Fragment 1; Coordinate 49:
		Value =    -2.269817; Fixed value    =    -2.268930
		Force =     0.000466; Force constant =     0.525000
	Removing off-diagonal coupling between coordinate 49 and others.
	Taking RFO optimization step.
	Going to follow RFO solution 1.
	Using RFO vector 1.

	Determining step-restricting scale parameter for RS-RFO.
	Maximum step size allowed    0.10000

	 Iter      |step|        alpha        rfo_root  
	------------------------------------------------
	    0     0.18717       1.00000           1
	    1     0.14310       7.30480           1
	    2     0.11509      17.77484           1
	    3     0.10290      26.17967           1
	    4     0.10014      28.63501           1
	    5     0.10000      28.76958           1
	------------------------------------------------
	Norm of target step-size    0.10000
	Projected energy change by RFO approximation:        -0.0027176351

	Back-transformation to cartesian coordinates...
	Successfully converged to displaced geometry.

	--- Internal Coordinate Step in ANG or DEG, aJ/ANG or AJ/DEG ---
	 ---------------------------------------------------------------------------
	   Coordinate                Previous        Force       Change         New 
	   ----------                --------       ------       ------       ------
	    1 R(1,4)          =      1.083423     0.055049     0.008333     1.091756
	    2 R(2,4)          =      1.084549     0.052302     0.007645     1.092194
	    3 R(3,4)          =      1.083247     0.055688     0.008406     1.091653
	    4 R(4,7)          =      1.538298    -0.026614    -0.006933     1.531365
	    5 R(5,7)          =      1.084274     0.054866     0.008225     1.092498
	    6 R(6,7)          =      1.083993     0.058664     0.009022     1.093014
	    7 R(7,10)         =      1.547037     0.007666    -0.000821     1.546216
	    8 R(8,10)         =      1.084113     0.058218     0.008954     1.093067
	    9 R(9,10)         =      1.084150     0.055602     0.008325     1.092475
	   10 R(10,14)        =      1.537469    -0.023629    -0.006326     1.531143
	   11 R(11,14)        =      1.084184     0.054355     0.007919     1.092103
	   12 R(12,14)        =      1.083645     0.054107     0.008197     1.091842
	   13 R(13,14)        =      1.083603     0.053969     0.008165     1.091768
	   14 B(1,4,2)        =    108.981299    -0.000193    -0.690184   108.291115
	   15 B(1,4,3)        =    109.132575    -0.000177    -0.774778   108.357797
	   16 B(1,4,7)        =    109.672380     0.000133     0.565134   110.237514
	   17 B(2,4,3)        =    108.930450    -0.000197    -0.690527   108.239923
	   18 B(2,4,7)        =    110.345777     0.000272     0.895944   111.241720
	   19 B(3,4,7)        =    109.753569     0.000153     0.632175   110.385744
	   20 B(4,7,5)        =    109.056321    -0.000099    -0.084825   108.971495
	   21 B(4,7,6)        =    109.148978    -0.000101    -0.224530   108.924449
	   22 B(4,7,10)       =    110.740591     0.000377     1.181069   111.921660
	   23 B(5,7,6)        =    109.201612    -0.000112    -1.119138   108.082474
	   24 B(5,7,10)       =    109.360880    -0.000021     0.187488   109.548367
	   25 B(6,7,10)       =    109.309847    -0.000050     0.001425   109.311272
	   26 B(7,10,8)       =    109.282372    -0.000047     0.016161   109.298533
	   27 B(7,10,9)       =    109.407050    -0.000026     0.163097   109.570147
	   28 B(7,10,14)      =    110.764096     0.000375     1.169554   111.933650
	   29 B(8,10,9)       =    109.158898    -0.000110    -1.104261   108.054637
	   30 B(8,10,14)      =    109.127160    -0.000100    -0.216679   108.910481
	   31 B(9,10,14)      =    109.077559    -0.000098    -0.086912   108.990647
	   32 B(10,14,11)     =    110.394396     0.000269     0.872697   111.267093
	   33 B(10,14,12)     =    109.715718     0.000123     0.531504   110.247222
	   34 B(10,14,13)     =    109.802937     0.000145     0.601915   110.404852
	   35 B(11,14,12)     =    108.970429    -0.000189    -0.677940   108.292489
	   36 B(11,14,13)     =    108.937926    -0.000195    -0.687284   108.250642
	   37 B(12,14,13)     =    108.991483    -0.000162    -0.702886   108.288598
	   38 D(1,4,7,5)      =   -179.689487     0.000027     0.753822  -178.935665
	   39 D(1,4,7,6)      =    -60.461314    -0.000031    -0.775007   -61.236321
	   40 D(1,4,7,10)     =     59.922761    -0.000006    -0.173578    59.749183
	   41 D(2,4,7,5)      =    -59.624893     0.000030     0.833825   -58.791068
	   42 D(2,4,7,6)      =     59.603281    -0.000028    -0.695005    58.908276
	   43 D(2,4,7,10)     =    179.987355    -0.000003    -0.093575   179.893780
	   44 D(3,4,7,5)      =     60.428372     0.000036     0.959361    61.387732
	   45 D(3,4,7,6)      =    179.656545    -0.000022    -0.569469   179.087076
	   46 D(3,4,7,10)     =    -59.959380     0.000003     0.031961   -59.927419
	   47 D(4,7,10,8)     =     -9.792753     0.000015     0.412867    -9.379887
	   48 D(4,7,10,9)     =    109.672073    -0.000026    -0.823334   108.848739
	   49 D(4,7,10,14)    =   -130.050957    -0.000004    -0.071733  -130.122690
	   50 D(5,7,10,8)     =   -129.998898    -0.000008    -0.362638  -130.361536
	   51 D(5,7,10,9)     =    -10.534071    -0.000049    -1.598839   -12.132910
	   52 D(5,7,10,14)    =    109.742899    -0.000027    -0.847238   108.895661
	   53 D(6,7,10,8)     =    110.495434     0.000033     0.885908   111.381342
	   54 D(6,7,10,9)     =   -130.039740    -0.000008    -0.350293  -130.390033
	   55 D(6,7,10,14)    =     -9.762770     0.000015     0.401308    -9.361462
	   56 D(7,10,14,11)   =    179.959587    -0.000002    -0.073889   179.885698
	   57 D(7,10,14,12)   =     59.850296    -0.000005    -0.133924    59.716372
	   58 D(7,10,14,13)   =    -59.915747     0.000003     0.023122   -59.892624
	   59 D(8,10,14,11)   =     59.608879    -0.000028    -0.690965    58.917914
	   60 D(8,10,14,12)   =    -60.500412    -0.000031    -0.751000   -61.251411
	   61 D(8,10,14,13)   =    179.733545    -0.000023    -0.593953   179.139592
	   62 D(9,10,14,11)   =    -59.567210     0.000030     0.816258   -58.750953
	   63 D(9,10,14,12)   =   -179.676501     0.000027     0.756223  -178.920278
	   64 D(9,10,14,13)   =     60.557456     0.000035     0.913269    61.470725
	 ---------------------------------------------------------------------------
	 Forces used to impose fixed constraints are not included.
	  Forces zeroed: 49 

  ==> Convergence Check <==

  Measures of convergence in internal coordinates in au.
  Criteria marked as inactive (o), active & met (*), and active & unmet ( ).
  ---------------------------------------------------------------------------------------------
   Step     Total Energy     Delta E     MAX Force     RMS Force      MAX Disp      RMS Disp   
  ---------------------------------------------------------------------------------------------
    Convergence Criteria    1.00e-06 *    3.00e-04 *             o    1.20e-03 *             o
  ---------------------------------------------------------------------------------------------
      2    -157.83726487   -4.10e-03      7.12e-03      3.21e-03 o    2.79e-02      1.25e-02 o  ~
  ---------------------------------------------------------------------------------------------

	Writing optimization data to binary file.
	Structure for next step:
	Cartesian Geometry (in Angstrom)
	    H    -2.1696629168   0.1560398395   0.0673640134
	    H    -2.0204711060   1.7965420043  -0.5805384651
	    H    -1.7152504495   0.4019572743  -1.6259756667
	    C    -1.5973145452   0.7901605650  -0.6125180563
	    H     0.4301032989   1.4512979202  -0.8933917009
	    H    -0.0270785183   1.2041764660   0.7975908649
	    C    -0.1191317629   0.7968589239  -0.2125076720
	    H    -0.3006529449  -1.3564433206  -0.3943213716
	    H     1.1852226456  -0.6992942402  -1.0934763701
	    C     0.4954405764  -0.6214812667  -0.2498840068
	    H     1.6759726660  -1.9569818889   1.0042740891
	    H     0.5722849538  -0.8997456413   1.8972726023
	    H     2.0605099211  -0.2410237781   1.2019470666
	    C     1.2483320197  -0.9527791572   1.0415473323
			--------------------------
			 OPTKING Finished Execution 
			--------------------------

    Structure for next step:
    Molecular point group: c1
    Full point group: C1

    Geometry (in Angstrom), charge = 0, multiplicity = 1:

    H           -2.169946584046     0.155893300697     0.067650255263
    H           -2.020754773173     1.796395465556    -0.580252223150
    H           -1.715534116671     0.401810735517    -1.625689424766
    C           -1.597598212446     0.790014026183    -0.612231814429
    H            0.429819631703     1.451151381391    -0.893105459046
    H           -0.027362185495     1.204029927177     0.797877106844
    C           -0.119415430153     0.796712385164    -0.212221430108
    H           -0.300936612126    -1.356589859339    -0.394035129697
    H            1.184938978408    -0.699440778985    -1.093190128244
    C            0.495156909215    -0.621627805437    -0.249597764863
    H            1.675688998805    -1.957128427666     1.004560331030
    H            0.572001286603    -0.899892180109     1.897558844238
    H            2.060226253852    -0.241170316885     1.202233308486
    C            1.248048352531    -0.952925696019     1.041833574251

gradient() will perform analytic gradient computation.
    SCF Algorithm Type (re)set to DF.

*** tstart() called on lski1497
*** at Mon Feb 20 17:24:45 2017


         ---------------------------------------------------------
                                   SCF
            by Justin Turney, Rob Parrish, and Andy Simmonett
                              RHF Reference
                        1 Threads,   1000 MiB Core
         ---------------------------------------------------------

  ==> Geometry <==

    Molecular point group: c1
    Full point group: C1

    Geometry (in Angstrom), charge = 0, multiplicity = 1:

       Center              X                  Y                   Z               Mass       
    ------------   -----------------  -----------------  -----------------  -----------------
           H         -2.169946584046     0.155893300697     0.067650255263     1.007825032070
           H         -2.020754773173     1.796395465556    -0.580252223150     1.007825032070
           H         -1.715534116671     0.401810735517    -1.625689424766     1.007825032070
           C         -1.597598212446     0.790014026183    -0.612231814429    12.000000000000
           H          0.429819631703     1.451151381391    -0.893105459046     1.007825032070
           H         -0.027362185495     1.204029927177     0.797877106844     1.007825032070
           C         -0.119415430153     0.796712385164    -0.212221430108    12.000000000000
           H         -0.300936612126    -1.356589859339    -0.394035129697     1.007825032070
           H          1.184938978408    -0.699440778985    -1.093190128244     1.007825032070
           C          0.495156909215    -0.621627805437    -0.249597764863    12.000000000000
           H          1.675688998805    -1.957128427666     1.004560331030     1.007825032070
           H          0.572001286603    -0.899892180109     1.897558844238     1.007825032070
           H          2.060226253852    -0.241170316885     1.202233308486     1.007825032070
           C          1.248048352531    -0.952925696019     1.041833574251    12.000000000000

  Running in c1 symmetry.

  Rotational constants: A =      0.63759  B =      0.12551  C =      0.12307 [cm^-1]
  Rotational constants: A =  19114.59373  B =   3762.82181  C =   3689.44535 [MHz]
  Nuclear repulsion =  130.959456771799495

  Charge       = 0
  Multiplicity = 1
  Electrons    = 34
  Nalpha       = 17
  Nbeta        = 17

  ==> Algorithm <==

  SCF Algorithm Type is DF.
  DIIS enabled.
  MOM disabled.
  Fractional occupation disabled.
  Guess Type is READ.
  Energy threshold   = 1.00e-10
  Density threshold  = 1.00e-10
  Integral threshold = 0.00e+00

  ==> Primary Basis <==

  Basis Set: 6-31G(D)
    Number of shells: 44
    Number of basis function: 80
    Number of Cartesian functions: 80
    Spherical Harmonics?: false
    Max angular momentum: 2

  ==> Pre-Iterations <==

   -------------------------------------------------------
    Irrep   Nso     Nmo     Nalpha   Nbeta   Ndocc  Nsocc
   -------------------------------------------------------
     A         80      80       0       0       0       0
   -------------------------------------------------------
    Total      80      80      17      17      17       0
   -------------------------------------------------------

  ==> Integral Setup <==

  ==> DFJK: Density-Fitted J/K Matrices <==

    J tasked:                  Yes
    K tasked:                  Yes
    wK tasked:                  No
    OpenMP threads:              1
    Integrals threads:           1
    Memory (MB):               715
    Algorithm:                Core
    Integral Cache:           NONE
    Schwarz Cutoff:          1E-12
    Fitting Condition:       1E-12

   => Auxiliary Basis Set <=

  Basis Set: 
    Number of shells: 186
    Number of basis function: 574
    Number of Cartesian functions: 574
    Spherical Harmonics?: false
    Max angular momentum: 3

  Minimum eigenvalue in the overlap matrix is 4.8683708832E-03.
  Using Symmetric Orthogonalization.
  SCF Guess was Projection but file not found.
  Switching over to SAD guess.

  SCF Guess: Superposition of Atomic Densities via on-the-fly atomic UHF.

  ==> Iterations <==

                           Total Energy        Delta E     RMS |[F,P]|

   @DF-RHF iter   0:  -158.82761835382180   -1.58828e+02   4.61136e-02 
   @DF-RHF iter   1:  -157.20282548577316    1.62479e+00   3.91845e-03 
   @DF-RHF iter   2:  -157.28361095938570   -8.07855e-02   1.10786e-03 DIIS
   @DF-RHF iter   3:  -157.29176148499394   -8.15053e-03   2.64477e-04 DIIS
   @DF-RHF iter   4:  -157.29215632729361   -3.94842e-04   7.73159e-05 DIIS
   @DF-RHF iter   5:  -157.29219366942201   -3.73421e-05   1.31427e-05 DIIS
   @DF-RHF iter   6:  -157.29219500400021   -1.33458e-06   1.99993e-06 DIIS
   @DF-RHF iter   7:  -157.29219502918798   -2.51878e-08   6.59163e-07 DIIS
   @DF-RHF iter   8:  -157.29219503133217   -2.14419e-09   1.42602e-07 DIIS
   @DF-RHF iter   9:  -157.29219503148434   -1.52170e-10   3.17793e-08 DIIS
   @DF-RHF iter  10:  -157.29219503149309   -8.75389e-12   5.25903e-09 DIIS
   @DF-RHF iter  11:  -157.29219503149332   -2.27374e-13   8.28981e-10 DIIS
   @DF-RHF iter  12:  -157.29219503149298    3.41061e-13   1.86609e-10 DIIS
   @DF-RHF iter  13:  -157.29219503149309   -1.13687e-13   5.95385e-11 DIIS

  ==> Post-Iterations <==

    Orbital Energies (a.u.)
    -----------------------

    Doubly Occupied:                                                      

       1A    -11.214842     2A    -11.214293     3A    -11.209670  
       4A    -11.209661     5A     -1.066905     6A     -0.978265  
       7A     -0.858767     8A     -0.785957     9A     -0.633316  
      10A     -0.594358    11A     -0.579918    12A     -0.553785  
      13A     -0.508185    14A     -0.505734    15A     -0.465363  
      16A     -0.458653    17A     -0.450378  

    Virtual:                                                              

      18A      0.232419    19A      0.266346    20A      0.285587  
      21A      0.293926    22A      0.320137    23A      0.326125  
      24A      0.327570    25A      0.335078    26A      0.344448  
      27A      0.353439    28A      0.414903    29A      0.447608  
      30A      0.455166    31A      0.711060    32A      0.719884  
      33A      0.739142    34A      0.781354    35A      0.815105  
      36A      0.826224    37A      0.832779    38A      0.938475  
      39A      0.938584    40A      0.998707    41A      1.068143  
      42A      1.088901    43A      1.152376    44A      1.161606  
      45A      1.168094    46A      1.187869    47A      1.191895  
      48A      1.202181    49A      1.234072    50A      1.234952  
      51A      1.244858    52A      1.258353    53A      1.264604  
      54A      1.464782    55A      1.662327    56A      1.739126  
      57A      1.761024    58A      1.912725    59A      1.964793  
      60A      2.086583    61A      2.199614    62A      2.217917  
      63A      2.288716    64A      2.296027    65A      2.337291  
      66A      2.432892    67A      2.485635    68A      2.603817  
      69A      2.635755    70A      2.669908    71A      2.705458  
      72A      2.726406    73A      2.770611    74A      2.888700  
      75A      3.018292    76A      3.077246    77A      4.557218  
      78A      4.652989    79A      4.802405    80A      4.959965  

    Final Occupation by Irrep:
              A 
    DOCC [    17 ]

  Energy converged.

  @DF-RHF Final Energy:  -157.29219503149309

   => Energetics <=

    Nuclear Repulsion Energy =            130.9594567717994948
    One-Electron Energy =                -469.9272037791175762
    Two-Electron Energy =                 181.6755519758250728
    DFT Exchange-Correlation Energy =       0.0000000000000000
    Empirical Dispersion Energy =           0.0000000000000000
    PCM Polarization Energy =               0.0000000000000000
    EFP Energy =                            0.0000000000000000
    Total Energy =                       -157.2921950314929802


  Saving occupied orbitals to File 180.

*** tstop() called on lski1497 at Mon Feb 20 17:24:53 2017
Module time:
	user time   =       4.78 seconds =       0.08 minutes
	system time =       0.13 seconds =       0.00 minutes
	total time  =          8 seconds =       0.13 minutes
Total time:
	user time   =      49.57 seconds =       0.83 minutes
	system time =       1.43 seconds =       0.02 minutes
	total time  =         70 seconds =       1.17 minutes


Properties will be evaluated at   0.000000,   0.000000,   0.000000 Bohr

Properties computed using the SCF density matrix

  Nuclear Dipole Moment: (a.u.)
     X:    -0.2924      Y:    -0.1359      Z:     0.3596

  Electronic Dipole Moment: (a.u.)
     X:     0.3077      Y:     0.1431      Z:    -0.3786

  Dipole Moment: (a.u.)
     X:     0.0154      Y:     0.0072      Z:    -0.0189     Total:     0.0254

  Dipole Moment: (Debye)
     X:     0.0390      Y:     0.0182      Z:    -0.0481     Total:     0.0646


  //>>>>>>>>>>>>>>>>>>>>>>>>>>>>>>>>>>>//
  //               DFMP2               //
  //<<<<<<<<<<<<<<<<<<<<<<<<<<<<<<<<<<<//


*** tstart() called on lski1497
*** at Mon Feb 20 17:24:53 2017


*** tstop() called on lski1497 at Mon Feb 20 17:24:53 2017
Module time:
	user time   =       0.55 seconds =       0.01 minutes
	system time =       0.01 seconds =       0.00 minutes
	total time  =          0 seconds =       0.00 minutes
Total time:
	user time   =      50.13 seconds =       0.84 minutes
	system time =       1.44 seconds =       0.02 minutes
	total time  =         70 seconds =       1.17 minutes
	 --------------------------------------------------------
	                          DF-MP2                         
	      2nd-Order Density-Fitted Moller-Plesset Theory     
	              RMP2 Wavefunction,   1 Threads             
	                                                         
	        Rob Parrish, Justin Turney, Andy Simmonett,      
	           Ed Hohenstein, and C. David Sherrill          
	 --------------------------------------------------------

   => Auxiliary Basis Set <=

  Basis Set: 
    Number of shells: 132
    Number of basis function: 364
    Number of Cartesian functions: 414
    Spherical Harmonics?: true
    Max angular momentum: 3

	 --------------------------------------------------------
	                 NBF =    80, NAUX =   364
	 --------------------------------------------------------
	   CLASS    FOCC     OCC    AOCC    AVIR     VIR    FVIR
	   PAIRS       0      17      17      63      63       0
	 --------------------------------------------------------

DGAS Warning! /src/lib/libfock/apps.cc:80 is not currently checking restricted

         ------------------------------------------------------------
                                     CPHF                           
                                  Rob Parrish                       
         ------------------------------------------------------------

  ==> Geometry <==

    Molecular point group: c1
    Full point group: C1

    Geometry (in Angstrom), charge = 0, multiplicity = 1:

       Center              X                  Y                   Z               Mass       
    ------------   -----------------  -----------------  -----------------  -----------------
           H         -2.169946584046     0.155893300697     0.067650255263     1.007825032070
           H         -2.020754773173     1.796395465556    -0.580252223150     1.007825032070
           H         -1.715534116671     0.401810735517    -1.625689424766     1.007825032070
           C         -1.597598212446     0.790014026183    -0.612231814429    12.000000000000
           H          0.429819631703     1.451151381391    -0.893105459046     1.007825032070
           H         -0.027362185495     1.204029927177     0.797877106844     1.007825032070
           C         -0.119415430153     0.796712385164    -0.212221430108    12.000000000000
           H         -0.300936612126    -1.356589859339    -0.394035129697     1.007825032070
           H          1.184938978408    -0.699440778985    -1.093190128244     1.007825032070
           C          0.495156909215    -0.621627805437    -0.249597764863    12.000000000000
           H          1.675688998805    -1.957128427666     1.004560331030     1.007825032070
           H          0.572001286603    -0.899892180109     1.897558844238     1.007825032070
           H          2.060226253852    -0.241170316885     1.202233308486     1.007825032070
           C          1.248048352531    -0.952925696019     1.041833574251    12.000000000000

  Nuclear repulsion =  130.959456771799495
  Reference energy  = -157.292195031493094

  ==> Basis Set <==

  Basis Set: 6-31G(D)
    Number of shells: 44
    Number of basis function: 80
    Number of Cartesian functions: 80
[...]

   => Auxiliary Basis Set <=

  Basis Set: 
    Number of shells: 186
    Number of basis function: 574
    Number of Cartesian functions: 574
    Spherical Harmonics?: false
    Max angular momentum: 3

  ==> CPHF Iterations <==

  => Iterations <=

             Iter  Converged  Remaining    Residual
  CGR           1          0          1   7.506E-02
  CGR           2          0          1   9.312E-03
  CGR           3          0          1   2.828E-03
  CGR           4          0          1   4.015E-04
  CGR           5          0          1   7.777E-05
  CGR           6          0          1   1.810E-05
  CGR           7          0          1   2.829E-06
  CGR           8          1          0   5.343E-07

    CGRSolver converged.

  ==> DFCorrGrad: Density-Fitted Correlated Gradients <==

    OpenMP threads:              1
    Integrals threads:           1
    Memory (MB):               715
    Schwarz Cutoff:          0E+00
    Fitting Condition:       1E-12

   => Auxiliary Basis Set <=

  Basis Set: 
    Number of shells: 186
    Number of basis function: 510
    Number of Cartesian functions: 574
    Spherical Harmonics?: true
    Max angular momentum: 3

	-----------------------------------------------------------
	 ==================> DF-MP2 Energies <==================== 
	-----------------------------------------------------------
	 Reference Energy          =    -157.2925233036579300 [Eh]
	 Singles Energy            =      -0.0000000000000000 [Eh]
	 Same-Spin Energy          =      -0.1242884244578096 [Eh]
	 Opposite-Spin Energy      =      -0.4223955275027012 [Eh]
	 Correlation Energy        =      -0.5466839519605108 [Eh]
	 Total Energy              =    -157.8392072556184473 [Eh]
	-----------------------------------------------------------
	 ================> DF-SCS-MP2 Energies <================== 
	-----------------------------------------------------------
	 SCS Same-Spin Scale       =       0.3333333333333333 [-]
	 SCS Opposite-Spin Scale   =       1.2000000000000000 [-]
	 SCS Same-Spin Energy      =      -0.0414294748192699 [Eh]
	 SCS Opposite-Spin Energy  =      -0.5068746330032413 [Eh]
	 SCS Correlation Energy    =      -0.5483041078225112 [Eh]
	 SCS Total Energy          =    -157.8408274114804328 [Eh]
	-----------------------------------------------------------


  -Total Gradient:
     Atom            X                  Y                   Z
    ------   -----------------  -----------------  -----------------
       1       -0.000000342415     0.000003821236    -0.000006385839
       2        0.000000271635    -0.000007323536    -0.000001070504
       3        0.000003174449     0.000001397553     0.000003442595
       4       -0.000470116130    -0.000232215773     0.001771421550
       5       -0.000007148033    -0.000007962979    -0.000015689359
       6       -0.000032968848     0.000017496569    -0.000005128822
       7        0.000112472199     0.000070421153    -0.002124147758
       8        0.000019608776    -0.000023523388     0.000023255343
       9        0.000012821861     0.000010022485     0.000007256350
      10        0.001912751859     0.000872938271    -0.000363129221
      11       -0.000001904060     0.000006822470     0.000002658742
      12        0.000007260526    -0.000000734331    -0.000001617420
      13       -0.000003513627    -0.000001449867    -0.000003569254
      14       -0.001552368192    -0.000709709863     0.000712703597


			-----------------------------------------
			 OPTKING 2.0: for geometry optimizations 
			  - R.A. King,  Bethel University        
			-----------------------------------------

	Previous internal coordinate definitions found.
	---Fragment 1 Geometry and Gradient---
	 H          -4.1252313053        0.3159025511        0.1163578439
	 H          -3.8175907153        3.4078758233       -1.1189278291
	 H          -3.2676227179        0.7582334395       -3.0799380171
	 C          -3.0199609135        1.5016082400       -1.1665436565
	 H           0.8266719107        2.7709211573       -1.6380567687
	 H          -0.0757815603        2.2796417598        1.5032636173
	 C          -0.2391573039        1.4931606686       -0.4071615051
	 H          -0.5560050976       -2.5739087048       -0.7266623071
	 H           2.2019634114       -1.3602021313       -2.0846758877
	 C           0.9406948929       -1.1663827674       -0.4551353137
	 H           3.1907550891       -3.6998551452        1.8893577336
	 H           1.1036820304       -1.7232899620        3.5976263288
	 H           3.9064880206       -0.4607098211        2.2946910266
	 C           2.3698787498       -1.8044174556        1.9655964528
	            -0.0000003424        0.0000038212       -0.0000063858
	             0.0000002716       -0.0000073235       -0.0000010705
	             0.0000031744        0.0000013976        0.0000034426
	            -0.0004701161       -0.0002322158        0.0017714215
	            -0.0000071480       -0.0000079630       -0.0000156894
	            -0.0000329688        0.0000174966       -0.0000051288
	             0.0001124722        0.0000704212       -0.0021241478
	             0.0000196088       -0.0000235234        0.0000232553
	             0.0000128219        0.0000100225        0.0000072563
	             0.0019127519        0.0008729383       -0.0003631292
	            -0.0000019041        0.0000068225        0.0000026587
	             0.0000072605       -0.0000007343       -0.0000016174
	            -0.0000035136       -0.0000014499       -0.0000035693
	            -0.0015523682       -0.0007097099        0.0007127036

	---Fragment 1 Intrafragment Coordinates---
	 - Coordinate -           - BOHR/RAD -       - ANG/DEG -
	 R(1,4)           =         2.067210	       1.093920
	 R(2,4)           =         2.066963	       1.093790
	 R(3,4)           =         2.067612	       1.094133
	 R(4,7)           =         2.882638	       1.525426
	 R(5,7)           =         2.069726	       1.095252
	 R(6,7)           =         2.072431	       1.096683
	 R(7,10)          =         2.909901	       1.539853
	 R(8,10)          =         2.072430	       1.096683
	 R(9,10)          =         2.069726	       1.095252
	 R(10,14)         =         2.882637	       1.525426
	 R(11,14)         =         2.066963	       1.093789
	 R(12,14)         =         2.067210	       1.093920
	 R(13,14)         =         2.067613	       1.094133
	 B(1,4,2)         =         1.884268	     107.960625
	 B(1,4,3)         =         1.879731	     107.700631
	 B(1,4,7)         =         1.929022	     110.524834
	 B(2,4,3)         =         1.882496	     107.859054
	 B(2,4,7)         =         1.948618	     111.647559
	 B(3,4,7)         =         1.937222	     110.994646
	 B(4,7,5)         =         1.915899	     109.772908
	 B(4,7,6)         =         1.894179	     108.528477
	 B(4,7,10)        =         1.970856	     112.921709
	 B(5,7,6)         =         1.847663	     105.863299
	 B(5,7,10)        =         1.923717	     110.220892
	 B(6,7,10)        =         1.907185	     109.273651
	 B(7,10,8)        =         1.907176	     109.273111
	 B(7,10,9)        =         1.923730	     110.221591
	 B(7,10,14)       =         1.970856	     112.921726
	 B(8,10,9)        =         1.847664	     105.863336
	 B(8,10,14)       =         1.894160	     108.527355
	 B(9,10,14)       =         1.915914	     109.773778
	 B(10,14,11)      =         1.948616	     111.647449
	 B(10,14,12)      =         1.929023	     110.524894
	 B(10,14,13)      =         1.937222	     110.994630
	 B(11,14,12)      =         1.884268	     107.960596
	 B(11,14,13)      =         1.882496	     107.859071
	 B(12,14,13)      =         1.879732	     107.700717
	 D(1,4,7,5)       =        -3.085193	    -176.768541
	 D(1,4,7,6)       =        -1.073412	     -61.501990
	 D(1,4,7,10)      =         1.043875	      59.809616
	 D(2,4,7,5)       =        -0.987519	     -56.580691
	 D(2,4,7,6)       =         1.024261	      58.685859
	 D(2,4,7,10)      =         3.141548	     179.997466
	 D(3,4,7,5)       =         1.113491	      63.798310
	 D(3,4,7,6)       =         3.125271	     179.064860
	 D(3,4,7,10)      =        -1.040627	     -59.623533
	 D(4,7,10,8)      =        -0.163947	      -9.393464
	 D(4,7,10,9)      =         1.859550	     106.544380
	 D(4,7,10,14)     =        -2.273820	    -130.280316
	 D(5,7,10,8)      =        -2.313732	    -132.567103
	 D(5,7,10,9)      =        -0.290235	     -16.629259
	 D(5,7,10,14)     =         1.859579	     106.546046
	 D(6,7,10,8)      =         1.945958	     111.495181
	 D(6,7,10,9)      =        -2.313730	    -132.566975
	 D(6,7,10,14)     =        -0.163916	      -9.391671
	 D(7,10,14,11)    =         3.141513	     179.995460
	 D(7,10,14,12)    =         1.043841	      59.807681
	 D(7,10,14,13)    =        -1.040663	     -59.625605
	 D(8,10,14,11)    =         1.024252	      58.685310
	 D(8,10,14,12)    =        -1.073421	     -61.502470
	 D(8,10,14,13)    =         3.125261	     179.064245
	 D(9,10,14,11)    =        -0.987527	     -56.581131
	 D(9,10,14,12)    =        -3.085200	    -176.768910
	 D(9,10,14,13)    =         1.113482	      63.797804

	Current energy   :      -157.8392072556

	Energy change for the previous step:
		Projected    :         0.0000007495
		Actual       :        -0.0000000420

	Performing BFGS update.
	Previous computed or guess Hessian on step 1.
	Steps to be used in Hessian update: 6 5
	Adding user-defined constraint: Fragment 1; Coordinate 49:
		Value =    -2.273820; Fixed value    =    -2.268930
		Force =     0.003179; Force constant =     0.650000
	Removing off-diagonal coupling between coordinate 49 and others.
	Taking RFO optimization step.
	Going to follow RFO solution 1.
	Rejecting RFO root 1 because normalization gives large value.
	Using RFO vector 2.
	Norm of target step-size    0.00140
	Projected energy change by RFO approximation:        -0.0000000034

	Back-transformation to cartesian coordinates...
	Successfully converged to displaced geometry.

	--- Internal Coordinate Step in ANG or DEG, aJ/ANG or AJ/DEG ---
	 ---------------------------------------------------------------------------
	   Coordinate                Previous        Force       Change         New 
	   ----------                --------       ------       ------       ------
	    1 R(1,4)          =      1.093920     0.000050     0.000015     1.093936
	    2 R(2,4)          =      1.093790     0.000056     0.000016     1.093806
	    3 R(3,4)          =      1.094133     0.000034     0.000009     1.094142
	    4 R(4,7)          =      1.525426     0.000132     0.000007     1.525434
	    5 R(5,7)          =      1.095252    -0.000006     0.000004     1.095256
	    6 R(6,7)          =      1.096683     0.000005    -0.000009     1.096674
	    7 R(7,10)         =      1.539853    -0.000108     0.000004     1.539858
	    8 R(8,10)         =      1.096683     0.000010    -0.000008     1.096675
	    9 R(9,10)         =      1.095252    -0.000010     0.000004     1.095256
	   10 R(10,14)        =      1.525426     0.000136     0.000009     1.525434
	   11 R(11,14)        =      1.093789     0.000058     0.000017     1.093806
	   12 R(12,14)        =      1.093920     0.000048     0.000015     1.093935
	   13 R(13,14)        =      1.094133     0.000035     0.000009     1.094142
	   14 B(1,4,2)        =    107.960625     0.000000    -0.000743   107.959882
	   15 B(1,4,3)        =    107.700631     0.000000    -0.000374   107.700257
	   16 B(1,4,7)        =    110.524834    -0.000001     0.001273   110.526107
	   17 B(2,4,3)        =    107.859054    -0.000000     0.000086   107.859140
	   18 B(2,4,7)        =    111.647559    -0.000000     0.001096   111.648655
	   19 B(3,4,7)        =    110.994646     0.000000    -0.001400   110.993246
	   20 B(4,7,5)        =    109.772908     0.000000     0.002204   109.775112
	   21 B(4,7,6)        =    108.528477     0.000002     0.022217   108.550694
	   22 B(4,7,10)       =    112.921709    -0.000000     0.000181   112.921889
	   23 B(5,7,6)        =    105.863299    -0.000001    -0.009344   105.853955
	   24 B(5,7,10)       =    110.220892     0.000001     0.003777   110.224669
	   25 B(6,7,10)       =    109.273651    -0.000002    -0.019531   109.254120
	   26 B(7,10,8)       =    109.273111    -0.000002    -0.018572   109.254539
	   27 B(7,10,9)       =    110.221591     0.000001     0.002566   110.224156
	   28 B(7,10,14)      =    112.921726    -0.000000     0.000274   112.922000
	   29 B(8,10,9)       =    105.863336    -0.000001    -0.009391   105.853945
	   30 B(8,10,14)      =    108.527355     0.000002     0.024093   108.551449
	   31 B(9,10,14)      =    109.773778     0.000000     0.000594   109.774373
	   32 B(10,14,11)     =    111.647449    -0.000000     0.001144   111.648593
	   33 B(10,14,12)     =    110.524894    -0.000001     0.000934   110.525828
	   34 B(10,14,13)     =    110.994630     0.000001    -0.001138   110.993492
	   35 B(11,14,12)     =    107.960596     0.000000    -0.000720   107.959876
	   36 B(11,14,13)     =    107.859071    -0.000000     0.000061   107.859132
	   37 B(12,14,13)     =    107.700717     0.000000    -0.000343   107.700374
	   38 D(1,4,7,5)      =   -176.768541     0.000000    -0.010187  -176.778728
	   39 D(1,4,7,6)      =    -61.501990     0.000000    -0.007787   -61.509777
	   40 D(1,4,7,10)     =     59.809616    -0.000000    -0.016855    59.792761
	   41 D(2,4,7,5)      =    -56.580691    -0.000000    -0.009537   -56.590228
	   42 D(2,4,7,6)      =     58.685859     0.000000    -0.007137    58.678723
	   43 D(2,4,7,10)     =    179.997466    -0.000000    -0.016205   179.981261
	   44 D(3,4,7,5)      =     63.798310     0.000000    -0.009644    63.788666
	   45 D(3,4,7,6)      =    179.064860     0.000000    -0.007244   179.057616
	   46 D(3,4,7,10)     =    -59.623533    -0.000000    -0.016312   -59.639845
	   47 D(4,7,10,8)     =     -9.393464     0.000000     0.020759    -9.372705
	   48 D(4,7,10,9)     =    106.544380    -0.000000     0.000113   106.544493
	   49 D(4,7,10,14)    =   -130.280316    -0.000000     0.002997  -130.277319
	   50 D(5,7,10,8)     =   -132.567103     0.000000     0.014944  -132.552158
	   51 D(5,7,10,9)     =    -16.629259    -0.000000    -0.005701   -16.634960
	   52 D(5,7,10,14)    =    106.546046    -0.000000    -0.002818   106.543228
	   53 D(6,7,10,8)     =    111.495181     0.000000     0.035401   111.530582
	   54 D(6,7,10,9)     =   -132.566975     0.000000     0.014755  -132.552220
	   55 D(6,7,10,14)    =     -9.391671     0.000000     0.017639    -9.374032
	   56 D(7,10,14,11)   =    179.995460    -0.000000    -0.011516   179.983944
	   57 D(7,10,14,12)   =     59.807681    -0.000000    -0.011998    59.795682
	   58 D(7,10,14,13)   =    -59.625605    -0.000000    -0.011443   -59.637047
	   59 D(8,10,14,11)   =     58.685310     0.000000    -0.005035    58.680275
	   60 D(8,10,14,12)   =    -61.502470     0.000000    -0.005516   -61.507986
	   61 D(8,10,14,13)   =    179.064245     0.000000    -0.004961   179.059284
	   62 D(9,10,14,11)   =    -56.581131    -0.000000    -0.007551   -56.588682
	   63 D(9,10,14,12)   =   -176.768910     0.000000    -0.008033  -176.776944
	   64 D(9,10,14,13)   =     63.797804    -0.000000    -0.007478    63.790327
	 ---------------------------------------------------------------------------
	 Forces used to impose fixed constraints are not included.
	  Forces zeroed: 49 

  ==> Convergence Check <==

  Measures of convergence in internal coordinates in au.
  Criteria marked as inactive (o), active & met (*), and active & unmet ( ).
  ---------------------------------------------------------------------------------------------
   Step     Total Energy     Delta E     MAX Force     RMS Force      MAX Disp      RMS Disp   
  ---------------------------------------------------------------------------------------------
    Convergence Criteria    1.00e-06 *    3.00e-04 *             o    1.20e-03 *             o
  ---------------------------------------------------------------------------------------------
      7    -157.83920726   -4.20e-08 *    3.12e-05 *    1.03e-05 o    6.18e-04 *    1.75e-04 o  ~
  ---------------------------------------------------------------------------------------------


  **** Optimization is complete! (in 7 steps) ****

  ==> Optimization Summary <==

  Measures of convergence in internal coordinates in au.
  --------------------------------------------------------------------------------------------------------------- ~
   Step         Total Energy             Delta E       MAX Force       RMS Force        MAX Disp        RMS Disp  ~
  --------------------------------------------------------------------------------------------------------------- ~
      1    -157.833161677181   -157.833161677181      0.01739958      0.00727107      0.02726626      0.01250886  ~
      2    -157.837264870449     -0.004103193267      0.00712052      0.00320521      0.02790500      0.01252095  ~
      3    -157.838752179479     -0.001487309030      0.00200167      0.00097908      0.04562193      0.01251818  ~
      4    -157.839151738039     -0.000399558560      0.00130484      0.00028352      0.02733960      0.00899729  ~
      5    -157.839202779486     -0.000051041447      0.00013630      0.00006147      0.00542133      0.00203827  ~
      6    -157.839207213569     -0.000004434083      0.00004786      0.00001753      0.00125616      0.00061263  ~
      7    -157.839207255618     -0.000000042049      0.00003123      0.00001043      0.00061786      0.00017514  ~
  --------------------------------------------------------------------------------------------------------------- ~

	Writing optimization data to binary file.
	Final energy is   -157.8392072556184
	Final (previous) structure:
	Cartesian Geometry (in Angstrom)
	    H    -2.1829783869   0.1671684302   0.0615739190
	    H    -2.0201819983   1.8033702154  -0.5921111052
	    H    -1.7291514686   0.4012398550  -1.6298330025
	    C    -1.5980944862   0.7946168568  -0.6173083158
	    H     0.4374559341   1.4663083232  -0.8668223084
	    H    -0.0401018746   1.2063344631   0.7954928448
	    C    -0.1265565945   0.7901465946  -0.2154605887
	    H    -0.2942252255  -1.3620538236  -0.3845331313
	    H     1.1652288515  -0.7197879669  -1.1031629671
	    C     0.4977942975  -0.6172231770  -0.2408472348
	    H     1.6884748714  -1.9578790179   0.9998050515
	    H     0.5840433760  -0.9119257717   1.9037818582
	    H     2.0672244261  -0.2437971371   1.2142981920
	    C     1.2540858215  -0.9548565923   1.0401488441
	Saving final (previous) structure.
			--------------------------
			 OPTKING Finished Execution 
			--------------------------

    Final optimized geometry and variables:
    Molecular point group: c1
    Full point group: C1

    Geometry (in Angstrom), charge = 0, multiplicity = 1:

    H           -2.182978386950     0.167168430156     0.061573919012
    H           -2.020181998264     1.803370215383    -0.592111105199
    H           -1.729151468586     0.401239854999    -1.629833002497
    C           -1.598094486247     0.794616856843    -0.617308315826
    H            0.437455934116     1.466308323231    -0.866822308390
    H           -0.040101874564     1.206334463052     0.795492844793
    C           -0.126556594472     0.790146594600    -0.215460588705
    H           -0.294225225524    -1.362053823589    -0.384533131267
    H            1.165228851487    -0.719787966948    -1.103162967073
    C            0.497794297547    -0.617223177002    -0.240847234815
    H            1.688474871366    -1.957879017925     0.999805051494
    H            0.584043376035    -0.911925771689     1.903781858211
    H            2.067224426131    -0.243797137107     1.214298192036
    C            1.254085821514    -0.954856592291     1.040148844089

	Cleaning optimization helper files.

*** Psi4 exiting successfully. Buy a developer a beer!
