    -----------------------------------------------------------------------
          Psi4: An Open-Source Ab Initio Electronic Structure Package
                              Psi4 1.0.0 Driver

                          Git: Rev {master} 6a9a71b 

    J. M. Turney, A. C. Simmonett, R. M. Parrish, E. G. Hohenstein,
    F. A. Evangelista, J. T. Fermann, B. J. Mintz, L. A. Burns, J. J. Wilke,
    M. L. Abrams, N. J. Russ, M. L. Leininger, C. L. Janssen, E. T. Seidl,
    W. D. Allen, H. F. Schaefer, R. A. King, E. F. Valeev, C. D. Sherrill,
    and T. D. Crawford, WIREs Comput. Mol. Sci. 2, 556-565 (2012)
    (doi: 10.1002/wcms.93)

                         Additional Contributions by
    A. E. DePrince, U. Bozkaya, A. Yu. Sokolov, D. G. A. Smith, R. Di Remigio,
    R. M. Richard, J. F. Gonthier, H. R. McAlexander, M. Saitow, and
    B. P. Pritchard
    -----------------------------------------------------------------------


    Psi4 started on: Tue Feb 21 18:36:20 2017

    Process ID:  39259
    PSI4DATADIR: /Users/sternc1/anaconda/share/psi4
    Memory level set to 256.000 MB

  ==> Input File <==

--------------------------------------------------------------------------

memory 1000 mb

molecule butane {
  symmetry C1
  0 1 
  H      1.604   0.760   -8.260
  H      1.745   2.388   -8.880
  H      2.043   1.024   -9.930
  C      2.142   1.395   -8.932
  H      4.169   2.051   -9.210
  H      3.731   1.788   -7.539
  C      3.631   1.416   -8.537
  H      4.266   -0.317   -9.635
  H      5.179   -0.029   -8.175
  C      4.203   -0.012   -8.612
  H      3.678   -1.968   -7.897
  H      2.304   -0.960   -8.281
  H      3.218   -0.671   -6.820
  C      3.281   -0.976   -7.844
  units Angstrom
}

dih_string = "4 7 10 14 310"
set optking fixed_dihedral = $dih_string

optimize('B3LYP/cc-PVDZ')
--------------------------------------------------------------------------

  Memory set to 1000.000 MiB by Python script.
gradient() will perform analytic gradient computation.

*** tstart() called on lski1497
*** at Tue Feb 21 18:36:22 2017


         ---------------------------------------------------------
                                   SCF
            by Justin Turney, Rob Parrish, and Andy Simmonett
                              RKS Reference
                        1 Threads,   1000 MiB Core
         ---------------------------------------------------------

  ==> Geometry <==

    Molecular point group: c1
    Full point group: C1

    Geometry (in Angstrom), charge = 0, multiplicity = 1:

       Center              X                  Y                   Z               Mass       
    ------------   -----------------  -----------------  -----------------  -----------------
           H         -1.689331100594     0.312778941566     0.218031040365     1.007825032070
           H         -1.548331100594     1.940778941566    -0.401968959635     1.007825032070
           H         -1.250331100594     0.576778941566    -1.451968959635     1.007825032070
           C         -1.151331100594     0.947778941566    -0.453968959635    12.000000000000
           H          0.875668899406     1.603778941566    -0.731968959635     1.007825032070
           H          0.437668899406     1.340778941566     0.939031040365     1.007825032070
           C          0.337668899406     0.968778941566    -0.058968959635    12.000000000000
           H          0.972668899406    -0.764221058434    -1.156968959635     1.007825032070
           H          1.885668899406    -0.476221058434     0.303031040365     1.007825032070
           C          0.909668899406    -0.459221058434    -0.133968959635    12.000000000000
           H          0.384668899406    -2.415221058434     0.581031040365     1.007825032070
           H         -0.989331100594    -1.407221058434     0.197031040365     1.007825032070
           H         -0.075331100594    -1.118221058434     1.658031040365     1.007825032070
           C         -0.012331100594    -1.423221058434     0.634031040365    12.000000000000

  Running in c1 symmetry.

  Rotational constants: A =      0.40475  B =      0.18452  C =      0.14636 [cm^-1]
  Rotational constants: A =  12134.17430  B =   5531.74844  C =   4387.79066 [MHz]
  Nuclear repulsion =  135.191691227725556

  Charge       = 0
  Multiplicity = 1
  Electrons    = 34
  Nalpha       = 17
  Nbeta        = 17

  ==> Algorithm <==

  SCF Algorithm Type is DF.
  DIIS enabled.
  MOM disabled.
  Fractional occupation disabled.
  Guess Type is SAD.
  Energy threshold   = 1.00e-08
  Density threshold  = 1.00e-08
  Integral threshold = 0.00e+00

  ==> Primary Basis <==

  Basis Set: CC-PVDZ
    Number of shells: 54
    Number of basis function: 106
    Number of Cartesian functions: 110
    Spherical Harmonics?: true
    Max angular momentum: 2

  ==> DFT Potential <==

   => B3LYP Composite Functional <= 

    B3LYP Hybrid-GGA Exchange-Correlation Functional (VWN1-RPA)

    P.J. Stephens et. al., J. Phys. Chem., 98, 11623-11627, 1994

    Points   =           5000
    Deriv    =              1
    GGA      =           TRUE
    Meta     =          FALSE

    X_LRC        =          FALSE
    X_Hybrid     =           TRUE
    X_Alpha      =   2.000000E-01
    X_Omega      =   0.000000E+00
    C_LRC        =          FALSE
    C_Hybrid     =          FALSE
    C_Alpha      =   0.000000E+00
    C_Omega      =   0.000000E+00

   => Exchange Functionals <=

    0.8000    B3_X
    0.2000      HF 

   => Correlation Functionals <=

    0.1900 VWN3RPA_C
    0.8100   LYP_C

   => Molecular Quadrature <=

    Radial Scheme    =       TREUTLER
    Pruning Scheme   =           FLAT
    Nuclear Scheme   =       TREUTLER

    BS radius alpha  =              1
    Pruning alpha    =              1
    Radial Points    =             75
    Spherical Points =            302
    Total Points     =         312726
    Total Blocks     =            270
    Max Points       =           4929
    Max Functions    =            106

  ==> Pre-Iterations <==

   -------------------------------------------------------
    Irrep   Nso     Nmo     Nalpha   Nbeta   Ndocc  Nsocc
   -------------------------------------------------------
     A        106     106       0       0       0       0
   -------------------------------------------------------
    Total     106     106      17      17      17       0
   -------------------------------------------------------

  ==> Integral Setup <==

  ==> DFJK: Density-Fitted J/K Matrices <==

    J tasked:                  Yes
    K tasked:                  Yes
    wK tasked:                  No
    OpenMP threads:              1
    Integrals threads:           1
    Memory (MB):               715
    Algorithm:                Core
    Integral Cache:           NONE
    Schwarz Cutoff:          1E-12
    Fitting Condition:       1E-12

   => Auxiliary Basis Set <=

  Basis Set: 
    Number of shells: 186
    Number of basis function: 510
    Number of Cartesian functions: 574
    Spherical Harmonics?: true
    Max angular momentum: 3

  Minimum eigenvalue in the overlap matrix is 4.5666770712E-03.
  Using Symmetric Orthogonalization.
  SCF Guess: Superposition of Atomic Densities via on-the-fly atomic UHF.

  ==> Iterations <==

                           Total Energy        Delta E     RMS |[F,P]|

   @DF-RKS iter   0:  -159.02123658988867   -1.59021e+02   3.36189e-02 
   @DF-RKS iter   1:  -158.25978362406883    7.61453e-01   5.38479e-03 
   @DF-RKS iter   2:  -158.18497198703227    7.48116e-02   6.49185e-03 DIIS
   @DF-RKS iter   3:  -158.44303985543132   -2.58068e-01   3.98056e-04 DIIS
   @DF-RKS iter   4:  -158.44393077100062   -8.90916e-04   1.19125e-04 DIIS
   @DF-RKS iter   5:  -158.44400050682751   -6.97358e-05   4.71646e-05 DIIS
   @DF-RKS iter   6:  -158.44401249955678   -1.19927e-05   7.47415e-06 DIIS
   @DF-RKS iter   7:  -158.44401284575127   -3.46194e-07   1.06876e-06 DIIS
   @DF-RKS iter   8:  -158.44401285349920   -7.74793e-09   1.46837e-07 DIIS
   @DF-RKS iter   9:  -158.44401285360146   -1.02261e-10   8.12489e-08 DIIS
   @DF-RKS iter  10:  -158.44401285363713   -3.56692e-11   1.45006e-08 DIIS
   @DF-RKS iter  11:  -158.44401285363850   -1.36424e-12   1.78125e-09 DIIS

  ==> Post-Iterations <==

    Orbital Energies (a.u.)
    -----------------------

    Doubly Occupied:                                                      

       1A    -10.170274     2A    -10.170023     3A    -10.162962  
       4A    -10.162935     5A     -0.797825     6A     -0.715811  
       7A     -0.645716     8A     -0.566733     9A     -0.464067  
      10A     -0.459574    11A     -0.416466    12A     -0.387156  
      13A     -0.375862    14A     -0.357999    15A     -0.328415  
      16A     -0.318554    17A     -0.318441  

    Virtual:                                                              

      18A      0.064180    19A      0.098780    20A      0.102184  
      21A      0.109379    22A      0.136580    23A      0.142324  
      24A      0.161010    25A      0.167804    26A      0.171633  
      27A      0.178090    28A      0.216882    29A      0.234539  
      30A      0.256794    31A      0.417124    32A      0.425693  
      33A      0.435597    34A      0.439984    35A      0.448076  
      36A      0.474395    37A      0.516841    38A      0.594097  
      39A      0.602299    40A      0.623472    41A      0.634622  
      42A      0.648202    43A      0.665838    44A      0.680215  
      45A      0.683724    46A      0.687471    47A      0.695299  
      48A      0.710025    49A      0.730069    50A      0.738100  
      51A      0.776246    52A      0.828990    53A      0.891551  
      54A      0.920698    55A      0.969872    56A      1.090432  
      57A      1.138325    58A      1.188798    59A      1.221950  
      60A      1.306186    61A      1.319221    62A      1.388347  
      63A      1.400840    64A      1.437345    65A      1.482433  
      66A      1.533989    67A      1.577779    68A      1.599321  
      69A      1.603542    70A      1.627883    71A      1.656457  
      72A      1.670936    73A      1.687042    74A      1.695434  
      75A      1.703344    76A      1.707240    77A      1.716800  
      78A      1.737180    79A      1.766449    80A      1.774826  
      81A      1.813875    82A      1.823112    83A      1.894508  
      84A      1.901878    85A      1.992342    86A      2.005556  
      87A      2.037710    88A      2.067841    89A      2.128058  
      90A      2.139611    91A      2.229710    92A      2.280064  
      93A      2.288372    94A      2.327114    95A      2.350581  
      96A      2.376464    97A      2.504193    98A      2.506429  
      99A      2.517328   100A      2.546114   101A      2.546476  
     102A      2.579447   103A      2.656546   104A      2.684567  
     105A      2.752763   106A      2.768690  

    Final Occupation by Irrep:
              A 
    DOCC [    17 ]

  Energy converged.

  @DF-RKS Final Energy:  -158.44401285363850

   => Energetics <=

    Nuclear Repulsion Energy =            135.1916912277255562
    One-Electron Energy =                -478.7647307543298894
    Two-Electron Energy =                 205.8152235806049646
    DFT Exchange-Correlation Energy =     -20.6861969076391112
    Empirical Dispersion Energy =           0.0000000000000000
    PCM Polarization Energy =               0.0000000000000000
    EFP Energy =                            0.0000000000000000
    Total Energy =                       -158.4440128536384975


  Saving occupied orbitals to File 180.

*** tstop() called on lski1497 at Tue Feb 21 18:38:41 2017
Module time:
	user time   =     120.48 seconds =       2.01 minutes
	system time =       1.67 seconds =       0.03 minutes
	total time  =        139 seconds =       2.32 minutes
Total time:
	user time   =     120.48 seconds =       2.01 minutes
	system time =       1.67 seconds =       0.03 minutes
	total time  =        139 seconds =       2.32 minutes


Properties will be evaluated at   0.000000,   0.000000,   0.000000 Bohr

Properties computed using the SCF density matrix

  Nuclear Dipole Moment: (a.u.)
     X:    -0.9340      Y:    -0.3808      Z:     0.1437

  Electronic Dipole Moment: (a.u.)
     X:     0.9541      Y:     0.3883      Z:    -0.1472

  Dipole Moment: (a.u.)
     X:     0.0200      Y:     0.0075      Z:    -0.0035     Total:     0.0217

  Dipole Moment: (Debye)
     X:     0.0510      Y:     0.0192      Z:    -0.0088     Total:     0.0552


*** tstart() called on lski1497
*** at Tue Feb 21 18:38:41 2017


         ------------------------------------------------------------
                                   SCF GRAD                          
                          Rob Parrish, Justin Turney,                
                       Andy Simmonett, and Alex Sokolov              
         ------------------------------------------------------------

  ==> Geometry <==

    Molecular point group: c1
    Full point group: C1

    Geometry (in Angstrom), charge = 0, multiplicity = 1:

       Center              X                  Y                   Z               Mass       
    ------------   -----------------  -----------------  -----------------  -----------------
           H         -1.689331100594     0.312778941566     0.218031040365     1.007825032070
           H         -1.548331100594     1.940778941566    -0.401968959635     1.007825032070
           H         -1.250331100594     0.576778941566    -1.451968959635     1.007825032070
           C         -1.151331100594     0.947778941566    -0.453968959635    12.000000000000
           H          0.875668899406     1.603778941566    -0.731968959635     1.007825032070
           H          0.437668899406     1.340778941566     0.939031040365     1.007825032070
           C          0.337668899406     0.968778941566    -0.058968959635    12.000000000000
           H          0.972668899406    -0.764221058434    -1.156968959635     1.007825032070
           H          1.885668899406    -0.476221058434     0.303031040365     1.007825032070
           C          0.909668899406    -0.459221058434    -0.133968959635    12.000000000000
           H          0.384668899406    -2.415221058434     0.581031040365     1.007825032070
           H         -0.989331100594    -1.407221058434     0.197031040365     1.007825032070
           H         -0.075331100594    -1.118221058434     1.658031040365     1.007825032070
           C         -0.012331100594    -1.423221058434     0.634031040365    12.000000000000

  Nuclear repulsion =  135.191691227725556

  ==> Basis Set <==

  Basis Set: CC-PVDZ
    Number of shells: 54
    Number of basis function: 106
    Number of Cartesian functions: 110
    Spherical Harmonics?: true
    Max angular momentum: 2

  ==> DFJKGrad: Density-Fitted SCF Gradients <==

    Gradient:                    1
    J tasked:                  Yes
    K tasked:                  Yes
    wK tasked:                  No
    OpenMP threads:              1
    Integrals threads:           1
    Memory (MB):               715
    Schwarz Cutoff:          0E+00
    Fitting Condition:       1E-12

   => Auxiliary Basis Set <=

  Basis Set: 
    Number of shells: 186
    Number of basis function: 510
    Number of Cartesian functions: 574
    Spherical Harmonics?: true
    Max angular momentum: 3

  ==> DFT Potential <==

   => B3LYP Composite Functional <= 

    B3LYP Hybrid-GGA Exchange-Correlation Functional (VWN1-RPA)

    P.J. Stephens et. al., J. Phys. Chem., 98, 11623-11627, 1994

    Points   =           5000
    Deriv    =              1
    GGA      =           TRUE
    Meta     =          FALSE

    X_LRC        =          FALSE
    X_Hybrid     =           TRUE
    X_Alpha      =   2.000000E-01
    X_Omega      =   0.000000E+00
    C_LRC        =          FALSE
    C_Hybrid     =          FALSE
    C_Alpha      =   0.000000E+00
    C_Omega      =   0.000000E+00

   => Exchange Functionals <=

    0.8000    B3_X
    0.2000      HF 

   => Correlation Functionals <=

    0.1900 VWN3RPA_C
    0.8100   LYP_C

   => Molecular Quadrature <=

    Radial Scheme    =       TREUTLER
    Pruning Scheme   =           FLAT
    Nuclear Scheme   =       TREUTLER

    BS radius alpha  =              1
    Pruning alpha    =              1
    Radial Points    =             75
    Spherical Points =            302
    Total Points     =         312726
    Total Blocks     =            270
    Max Points       =           4929
    Max Functions    =            106


  -Total Gradient:
     Atom            X                  Y                   Z
    ------   -----------------  -----------------  -----------------
       1        0.014996493779     0.007067666448    -0.010231896905
       2        0.011620560093    -0.019044717665     0.000694728697
       3        0.005550535410     0.008036845750     0.021773516285
       4       -0.027460870103    -0.011485259232    -0.009693506875
       5       -0.012419025859    -0.016044400448     0.011215206712
       6       -0.003568533943    -0.010169607372    -0.021351930795
       7        0.017649608426     0.028323516411     0.014206506972
       8       -0.003840282350     0.007195227541     0.022840435897
       9       -0.022929377451     0.001733220874    -0.006115231363
      10        0.028055005116    -0.010139702658    -0.020953777931
      11       -0.005643513388     0.022226301443    -0.001718545515
      12        0.017236213765     0.006238869619     0.004985240572
      13        0.003514942646    -0.004029183373    -0.022503074098
      14       -0.022770455610    -0.009911399133     0.016853425101


*** tstop() called on lski1497 at Tue Feb 21 18:39:32 2017
Module time:
	user time   =      42.86 seconds =       0.71 minutes
	system time =       0.77 seconds =       0.01 minutes
	total time  =         51 seconds =       0.85 minutes
Total time:
	user time   =     163.37 seconds =       2.72 minutes
	system time =       2.44 seconds =       0.04 minutes
	total time  =        190 seconds =       3.17 minutes

			-----------------------------------------
			 OPTKING 2.0: for geometry optimizations 
			  - R.A. King,  Bethel University        
			-----------------------------------------

	Internal coordinates to be generated automatically.
	Detected frag 1 with atoms:  1 2 3 4 5 6 7 8 9 10 11 12 13 14
	---Fragment 1 Bond Connectivity---
	 1 : 4
	 2 : 4
	 3 : 4
	 4 : 1 2 3 7
	 5 : 7
	 6 : 7
	 7 : 4 5 6 10
	 8 : 10
	 9 : 10
	 10 : 7 8 9 14
	 11 : 14
	 12 : 14
	 13 : 14
	 14 : 10 11 12 13

	Assuming in current code that numbering for constraints corresponds to unified fragment.
	Fixed dihedral atom list: 
	     4     7    10    14
	---Fragment 1 Geometry and Gradient---
	 H          -3.1923731279        0.5910665397        0.4120189548
	 H          -2.9259217432        3.6675406840       -0.7596112476
	 H          -2.3627833556        1.0899542388       -2.7438236872
	 C          -2.1757004684        1.7910426341       -0.8578770065
	 H           1.6547744030        3.0307029772       -1.3832208715
	 H           0.8270743568        2.5337050043        1.7745114966
	 C           0.6381017435        1.8307268829       -0.1114351841
	 H           1.8380778379       -1.4441685054       -2.1863544780
	 H           3.5633977972       -0.8999273792        0.5726456761
	 C           1.7190250915       -0.8678020349       -0.2531646440
	 H           0.7269188717       -4.5641063508        1.0979895410
	 H          -1.8695648349       -2.6592624089        0.3723347060
	 H          -0.1423551494       -2.1131315565        3.1332245861
	 C          -0.0233024030       -2.6894980270        1.1981450260
	             0.0149964938        0.0070676664       -0.0102318969
	             0.0116205601       -0.0190447177        0.0006947287
	             0.0055505354        0.0080368458        0.0217735163
	            -0.0274608701       -0.0114852592       -0.0096935069
	            -0.0124190259       -0.0160444004        0.0112152067
	            -0.0035685339       -0.0101696074       -0.0213519308
	             0.0176496084        0.0283235164        0.0142065070
	            -0.0038402823        0.0071952275        0.0228404359
	            -0.0229293775        0.0017332209       -0.0061152314
	             0.0280550051       -0.0101397027       -0.0209537779
	            -0.0056435134        0.0222263014       -0.0017185455
	             0.0172362138        0.0062388696        0.0049852406
	             0.0035149426       -0.0040291834       -0.0225030741
	            -0.0227704556       -0.0099113991        0.0168534251

	Previous optimization step data not found.  Starting new optimization.

	---Fragment 1 Intrafragment Coordinates---
	 - Coordinate -           - BOHR/RAD -       - ANG/DEG -
	 R(1,4)           =         2.021436	       1.069698
	 R(2,4)           =         2.023298	       1.070683
	 R(3,4)           =         2.020723	       1.069320
	 R(4,7)           =         2.911397	       1.540645
	 R(5,7)           =         2.022623	       1.070326
	 R(6,7)           =         2.021555	       1.069761
	 R(7,10)          =         2.910419	       1.540128
	 R(8,10)          =         2.020791	       1.069356
	 R(9,10)          =         2.021065	       1.069502
	 R(10,14)         =         2.908708	       1.539222
	 R(11,14)         =         2.021638	       1.069805
	 R(12,14)         =         2.022761	       1.070399
	 R(13,14)         =         2.022599	       1.070313
	 B(1,4,2)         =         1.910870	     109.484805
	 B(1,4,3)         =         1.911121	     109.499161
	 B(1,4,7)         =         1.910399	     109.457783
	 B(2,4,3)         =         1.910042	     109.437340
	 B(2,4,7)         =         1.910564	     109.467262
	 B(3,4,7)         =         1.910803	     109.480971
	 B(4,7,5)         =         1.909937	     109.431343
	 B(4,7,6)         =         1.911630	     109.528316
	 B(4,7,10)        =         1.911154	     109.501062
	 B(5,7,6)         =         1.910605	     109.469614
	 B(5,7,10)        =         1.910047	     109.437654
	 B(6,7,10)        =         1.910425	     109.459295
	 B(7,10,8)        =         1.910195	     109.446104
	 B(7,10,9)        =         1.911095	     109.497662
	 B(7,10,14)       =         1.911264	     109.507336
	 B(8,10,9)        =         1.909847	     109.426158
	 B(8,10,14)       =         1.911324	     109.510772
	 B(9,10,14)       =         1.910076	     109.439273
	 B(10,14,11)      =         1.911059	     109.495620
	 B(10,14,12)      =         1.910994	     109.491883
	 B(10,14,13)      =         1.911501	     109.520963
	 B(11,14,12)      =         1.909591	     109.411478
	 B(11,14,13)      =         1.910789	     109.480122
	 B(12,14,13)      =         1.909865	     109.427182
	 D(1,4,7,5)       =         3.140997	     179.965873
	 D(1,4,7,6)       =        -1.047644	     -60.025575
	 D(1,4,7,10)      =         1.047427	      60.013132
	 D(2,4,7,5)       =        -1.047689	     -60.028143
	 D(2,4,7,6)       =         1.046856	      59.980409
	 D(2,4,7,10)      =        -3.141259	    -179.980883
	 D(3,4,7,5)       =         1.046044	      59.933911
	 D(3,4,7,6)       =         3.140588	     179.942463
	 D(3,4,7,10)      =        -1.047526	     -60.018830
	 D(4,7,10,8)      =         1.222511	      70.044695
	 D(4,7,10,9)      =        -2.967229	    -170.009685
	 D(4,7,10,14)     =        -0.872848	     -50.010483
	 D(5,7,10,8)      =        -0.870992	     -49.904181
	 D(5,7,10,9)      =         1.222454	      70.041440
	 D(5,7,10,14)     =        -2.966350	    -169.959359
	 D(6,7,10,8)      =        -2.964867	    -169.874379
	 D(6,7,10,9)      =        -0.871421	     -49.928759
	 D(6,7,10,14)     =         1.222960	      70.070442
	 D(7,10,14,11)    =         3.140663	     179.946720
	 D(7,10,14,12)    =         1.047063	      59.992297
	 D(7,10,14,13)    =        -1.047143	     -59.996900
	 D(8,10,14,11)    =         1.045995	      59.931102
	 D(8,10,14,12)    =        -1.047605	     -60.023321
	 D(8,10,14,13)    =         3.141374	     179.987482
	 D(9,10,14,11)    =        -1.047518	     -60.018353
	 D(9,10,14,12)    =        -3.141118	    -179.972776
	 D(9,10,14,13)    =         1.047861	      60.038027

	Current energy   :      -158.4440128536

	Generating empirical Hessian (Schlegel '84) for each fragment.
	Adding user-defined constraint: Fragment 1; Coordinate 49:
		Value =    -0.872848; Fixed value    =    -0.872665
		Force =     0.000091; Force constant =     0.500000
	Removing off-diagonal coupling between coordinate 49 and others.
	Taking RFO optimization step.
	Going to follow RFO solution 1.
	Using RFO vector 1.

	Determining step-restricting scale parameter for RS-RFO.
	Maximum step size allowed    0.10000

	 Iter      |step|        alpha        rfo_root  
	------------------------------------------------
	    0     0.36901       1.00000           1
	    1     0.26144       4.24586           1
	    2     0.18228      14.06435           1
	    3     0.13422      32.95078           1
	    4     0.10975      54.97192           1
	    5     0.10120      67.05655           1
	    6     0.10002      68.98897           1
	    7     0.10000      69.02630           1
	------------------------------------------------
	Norm of target step-size    0.10000
	Projected energy change by RFO approximation:        -0.0087958111

	Back-transformation to cartesian coordinates...
	Could not converge backtransformation.
	Using first guess instead.

	--- Internal Coordinate Step in ANG or DEG, aJ/ANG or AJ/DEG ---
	 ---------------------------------------------------------------------------
	   Coordinate                Previous        Force       Change         New 
	   ----------                --------       ------       ------       ------
	    1 R(1,4)          =      1.069698     0.149671     0.010337     1.080034
	    2 R(2,4)          =      1.070683     0.180747     0.012088     1.082771
	    3 R(3,4)          =      1.069320     0.194617     0.012521     1.081842
	    4 R(4,7)          =      1.540645     0.041125     0.003678     1.544323
	    5 R(5,7)          =      1.070326     0.187944     0.012205     1.082531
	    6 R(6,7)          =      1.069761     0.196001     0.012539     1.082300
	    7 R(7,10)         =      1.540128     0.118577     0.008460     1.548588
	    8 R(8,10)         =      1.069356     0.198795     0.012711     1.082067
	    9 R(9,10)         =      1.069502     0.193199     0.012530     1.082032
	   10 R(10,14)        =      1.539222     0.046932     0.004082     1.543304
	   11 R(11,14)        =      1.069805     0.186356     0.012436     1.082240
	   12 R(12,14)        =      1.070399     0.145622     0.010088     1.080487
	   13 R(13,14)        =      1.070313     0.188528     0.012147     1.082460
	   14 B(1,4,2)        =    109.484805    -0.000453    -0.422570   109.062235
	   15 B(1,4,3)        =    109.499161    -0.000311    -0.320749   109.178412
	   16 B(1,4,7)        =    109.457783     0.000583     0.564428   110.022211
	   17 B(2,4,3)        =    109.437340    -0.000291    -0.265667   109.171673
	   18 B(2,4,7)        =    109.467262     0.000255     0.252664   109.719926
	   19 B(3,4,7)        =    109.480971     0.000218     0.185733   109.666704
	   20 B(4,7,5)        =    109.431343    -0.000750    -0.630861   108.800481
	   21 B(4,7,6)        =    109.528316    -0.000605    -0.549518   108.978799
	   22 B(4,7,10)       =    109.501062     0.002438     2.174216   111.675278
	   23 B(5,7,6)        =    109.469614     0.000249     0.134655   109.604269
	   24 B(5,7,10)       =    109.437654    -0.000712    -0.616585   108.821069
	   25 B(6,7,10)       =    109.459295    -0.000621    -0.519143   108.940152
	   26 B(7,10,8)       =    109.446104    -0.000622    -0.520105   108.925998
	   27 B(7,10,9)       =    109.497662    -0.000721    -0.625486   108.872175
	   28 B(7,10,14)      =    109.507336     0.002444     2.178496   111.685832
	   29 B(8,10,9)       =    109.426158     0.000252     0.137851   109.564010
	   30 B(8,10,14)      =    109.510772    -0.000605    -0.548560   108.962212
	   31 B(9,10,14)      =    109.439273    -0.000750    -0.630644   108.808629
	   32 B(10,14,11)     =    109.495620     0.000256     0.253994   109.749615
	   33 B(10,14,12)     =    109.491883     0.000577     0.560040   110.051923
	   34 B(10,14,13)     =    109.520963     0.000215     0.183957   109.704920
	   35 B(11,14,12)     =    109.411478    -0.000448    -0.418223   108.993255
	   36 B(11,14,13)     =    109.480122    -0.000296    -0.270233   109.209889
	   37 B(12,14,13)     =    109.427182    -0.000306    -0.316628   109.110554
	   38 D(1,4,7,5)      =    179.965873     0.000079     0.347057   180.312930
	   39 D(1,4,7,6)      =    -60.025575    -0.000042    -0.196757   -60.222332
	   40 D(1,4,7,10)     =     60.013132     0.000042     0.165189    60.178321
	   41 D(2,4,7,5)      =    -60.028143     0.000069     0.333169   -59.694974
	   42 D(2,4,7,6)      =     59.980409    -0.000051    -0.210645    59.769764
	   43 D(2,4,7,10)     =   -179.980883     0.000033     0.151300  -179.829583
	   44 D(3,4,7,5)      =     59.933911     0.000054     0.276997    60.210908
	   45 D(3,4,7,6)      =    179.942463    -0.000067    -0.266817   179.675645
	   46 D(3,4,7,10)     =    -60.018830     0.000017     0.095128   -59.923702
	   47 D(4,7,10,8)     =     70.044695     0.000032     0.182058    70.226753
	   48 D(4,7,10,9)     =   -170.009685    -0.000085    -0.336325  -170.346009
	   49 D(4,7,10,14)    =    -50.010483    -0.000054    -0.162629   -50.173113
	   50 D(5,7,10,8)     =    -49.904181     0.000001     0.008408   -49.895772
	   51 D(5,7,10,9)     =     70.041440    -0.000117    -0.509974    69.531465
	   52 D(5,7,10,14)    =   -169.959359    -0.000085    -0.336279  -170.295638
	   53 D(6,7,10,8)     =   -169.874379     0.000118     0.524404  -169.349976
	   54 D(6,7,10,9)     =    -49.928759     0.000000     0.006021   -49.922738
	   55 D(6,7,10,14)    =     70.070442     0.000032     0.179717    70.250159
	   56 D(7,10,14,11)   =    179.946720     0.000034     0.157121   180.103841
	   57 D(7,10,14,12)   =     59.992297     0.000043     0.167382    60.159679
	   58 D(7,10,14,13)   =    -59.996900     0.000017     0.095720   -59.901180
	   59 D(8,10,14,11)   =     59.931102    -0.000050    -0.205931    59.725171
	   60 D(8,10,14,12)   =    -60.023321    -0.000042    -0.195670   -60.218991
	   61 D(8,10,14,13)   =    179.987482    -0.000067    -0.267332   179.720150
	   62 D(9,10,14,11)   =    -60.018353     0.000069     0.332359   -59.685994
	   63 D(9,10,14,12)   =   -179.972776     0.000078     0.342620  -179.630156
	   64 D(9,10,14,13)   =     60.038027     0.000052     0.270958    60.308985
	 ---------------------------------------------------------------------------
	 Forces used to impose fixed constraints are not included.
	  Forces zeroed: 49 

  ==> Convergence Check <==

  Measures of convergence in internal coordinates in au.
  Criteria marked as inactive (o), active & met (*), and active & unmet ( ).
  --------------------------------------------------------------------------------------------- ~
   Step     Total Energy     Delta E     MAX Force     RMS Force      MAX Disp      RMS Disp    ~
  --------------------------------------------------------------------------------------------- ~
    Convergence Criteria    1.00e-06 *    3.00e-04 *             o    1.20e-03 *             o  ~
  --------------------------------------------------------------------------------------------- ~
      1    -158.44401285   -1.58e+02      3.21e-02      1.15e-02 o    3.80e-02      1.27e-02 o  ~
  ---------------------------------------------------------------------------------------------

	Writing optimization data to binary file.
	Structure for next step:
	Cartesian Geometry (in Angstrom)
	    H    -1.7427491807   0.3820290173   0.2097281645
	    H    -1.5382788943   2.0135289504  -0.4220364832
	    H    -1.2829946155   0.6208345465  -1.4743544938
	    C    -1.1677114355   0.9971216382  -0.4666345593
	    H     0.8803434813   1.5944960942  -0.7546597582
	    H     0.4273194240   1.3521160570   0.9381121033
	    C     0.3241695579   0.9684639607  -0.0686371960
	    H     0.9735303225  -0.7792328577  -1.1548598636
	    H     1.8886020999  -0.4636029085   0.3246035390
	    C     0.9026956568  -0.4670378423  -0.1212322632
	    H     0.4465780454  -2.4589538331   0.5901272276
	    H    -0.9759451808  -1.4929684486   0.2117898446
	    H    -0.0616332839  -1.1701797130   1.6831287229
	    C     0.0134385943  -1.4687094792   0.6453595807
			--------------------------
			 OPTKING Finished Execution 
			--------------------------

    Structure for next step:
    Molecular point group: c1
    Full point group: C1

    Geometry (in Angstrom), charge = 0, multiplicity = 1:

    H           -1.740651515296     0.382838595891     0.209400471123
    H           -1.536181228844     2.014338528928    -0.422364176633
    H           -1.280896950055     0.621644125066    -1.474682187214
    C           -1.165613770054     0.997931216751    -0.466962252731
    H            0.882441146759     1.595305672712    -0.754987451592
    H            0.429417089485     1.352925635601     0.937784409891
    C            0.326267223327     0.969273539218    -0.068964889426
    H            0.975627987939    -0.778423279145    -1.155187557018
    H            1.890699765376    -0.462793329988     0.324275845604
    C            0.904793322237    -0.466228263704    -0.121559956581
    H            0.448675710882    -2.458144254502     0.589799534209
    H           -0.973847515318    -1.492158870000     0.211462151169
    H           -0.059535618433    -1.169370134424     1.682801029501
    C            0.015536259781    -1.467899900644     0.645031887280

gradient() will perform analytic gradient computation.

*** tstart() called on lski1497
*** at Tue Feb 21 18:39:33 2017


         ---------------------------------------------------------
                                   SCF
            by Justin Turney, Rob Parrish, and Andy Simmonett
                              RKS Reference
                        1 Threads,   1000 MiB Core
         ---------------------------------------------------------

  ==> Geometry <==

    Molecular point group: c1
    Full point group: C1

    Geometry (in Angstrom), charge = 0, multiplicity = 1:

       Center              X                  Y                   Z               Mass       
    ------------   -----------------  -----------------  -----------------  -----------------
           H         -1.740651515296     0.382838595891     0.209400471123     1.007825032070
           H         -1.536181228844     2.014338528928    -0.422364176633     1.007825032070
           H         -1.280896950055     0.621644125066    -1.474682187214     1.007825032070
           C         -1.165613770054     0.997931216751    -0.466962252731    12.000000000000
           H          0.882441146759     1.595305672712    -0.754987451592     1.007825032070
           H          0.429417089485     1.352925635601     0.937784409891     1.007825032070
           C          0.326267223327     0.969273539218    -0.068964889426    12.000000000000
           H          0.975627987939    -0.778423279145    -1.155187557018     1.007825032070
           H          1.890699765376    -0.462793329988     0.324275845604     1.007825032070
           C          0.904793322237    -0.466228263704    -0.121559956581    12.000000000000
           H          0.448675710882    -2.458144254502     0.589799534209     1.007825032070
           H         -0.973847515318    -1.492158870000     0.211462151169     1.007825032070
           H         -0.059535618433    -1.169370134424     1.682801029501     1.007825032070
           C          0.015536259781    -1.467899900644     0.645031887280    12.000000000000

  Running in c1 symmetry.

  Rotational constants: A =      0.40967  B =      0.17454  C =      0.14046 [cm^-1]
  Rotational constants: A =  12281.56061  B =   5232.62926  C =   4210.97881 [MHz]
  Nuclear repulsion =  133.552569033384231

  Charge       = 0
  Multiplicity = 1
  Electrons    = 34
  Nalpha       = 17
  Nbeta        = 17

  ==> Algorithm <==

  SCF Algorithm Type is DF.
  DIIS enabled.
  MOM disabled.
  Fractional occupation disabled.
  Guess Type is READ.
  Energy threshold   = 1.00e-08
  Density threshold  = 1.00e-08
  Integral threshold = 0.00e+00

  ==> Primary Basis <==

  Basis Set: CC-PVDZ
    Number of shells: 54
    Number of basis function: 106
    Number of Cartesian functions: 110
    Spherical Harmonics?: true
    Max angular momentum: 2

  ==> DFT Potential <==

   => B3LYP Composite Functional <= 

    B3LYP Hybrid-GGA Exchange-Correlation Functional (VWN1-RPA)

    P.J. Stephens et. al., J. Phys. Chem., 98, 11623-11627, 1994

    Points   =           5000
    Deriv    =              1
    GGA      =           TRUE
    Meta     =          FALSE

    X_LRC        =          FALSE
    X_Hybrid     =           TRUE
    X_Alpha      =   2.000000E-01
    X_Omega      =   0.000000E+00
    C_LRC        =          FALSE
    C_Hybrid     =          FALSE
    C_Alpha      =   0.000000E+00
    C_Omega      =   0.000000E+00

   => Exchange Functionals <=

    0.8000    B3_X
    0.2000      HF 

   => Correlation Functionals <=

    0.1900 VWN3RPA_C
    0.8100   LYP_C

   => Molecular Quadrature <=

    Radial Scheme    =       TREUTLER
    Pruning Scheme   =           FLAT
    Nuclear Scheme   =       TREUTLER

    BS radius alpha  =              1
    Pruning alpha    =              1
    Radial Points    =             75
    Spherical Points =            302
    Total Points     =         312747
    Total Blocks     =            265
    Max Points       =           4997
    Max Functions    =            106

  ==> Pre-Iterations <==

   -------------------------------------------------------
    Irrep   Nso     Nmo     Nalpha   Nbeta   Ndocc  Nsocc
   -------------------------------------------------------
     A        106     106       0       0       0       0
   -------------------------------------------------------
    Total     106     106      17      17      17       0
   -------------------------------------------------------

  ==> Integral Setup <==

  ==> DFJK: Density-Fitted J/K Matrices <==

    J tasked:                  Yes
    K tasked:                  Yes
    wK tasked:                  No
    OpenMP threads:              1
    Integrals threads:           1
    Memory (MB):               715
    Algorithm:                Core
    Integral Cache:           NONE
    Schwarz Cutoff:          1E-12
    Fitting Condition:       1E-12

   => Auxiliary Basis Set <=

  Basis Set: 
    Number of shells: 186
    Number of basis function: 510
    Number of Cartesian functions: 574
    Spherical Harmonics?: true
    Max angular momentum: 3

  Minimum eigenvalue in the overlap matrix is 4.6865460133E-03.
  Using Symmetric Orthogonalization.
  SCF Guess was Projection but file not found.
  Switching over to SAD guess.

  SCF Guess: Superposition of Atomic Densities via on-the-fly atomic UHF.

  ==> Iterations <==

                           Total Energy        Delta E     RMS |[F,P]|

   @DF-RKS iter   0:  -158.94007542803473   -1.58940e+02   3.27772e-02 
   @DF-RKS iter   1:  -158.27043131479513    6.69644e-01   5.31505e-03 
   @DF-RKS iter   2:  -158.19374808563111    7.66832e-02   6.44050e-03 DIIS
   @DF-RKS iter   3:  -158.45023484909223   -2.56487e-01   3.87690e-04 DIIS
   @DF-RKS iter   4:  -158.45109047274099   -8.55624e-04   1.20542e-04 DIIS
   @DF-RKS iter   5:  -158.45116230136856   -7.18286e-05   4.82577e-05 DIIS
   @DF-RKS iter   6:  -158.45117493030213   -1.26289e-05   7.42578e-06 DIIS
   @DF-RKS iter   7:  -158.45117527384710   -3.43545e-07   1.05341e-06 DIIS
   @DF-RKS iter   8:  -158.45117528136956   -7.52246e-09   1.58911e-07 DIIS
   @DF-RKS iter   9:  -158.45117528148489   -1.15335e-10   9.08115e-08 DIIS
   @DF-RKS iter  10:  -158.45117528153040   -4.55032e-11   1.41162e-08 DIIS
   @DF-RKS iter  11:  -158.45117528153142   -1.02318e-12   1.96732e-09 DIIS

  ==> Post-Iterations <==

    Orbital Energies (a.u.)
    -----------------------

    Doubly Occupied:                                                      

       1A    -10.174570     2A    -10.174373     3A    -10.167971  
       4A    -10.167946     5A     -0.792376     6A     -0.715585  
       7A     -0.642074     8A     -0.563425     9A     -0.461535  
      10A     -0.453676    11A     -0.415036    12A     -0.383322  
      13A     -0.376919    14A     -0.358303    15A     -0.325921  
      16A     -0.319443    17A     -0.318397  

    Virtual:                                                              

      18A      0.060844    19A      0.097237    20A      0.100792  
      21A      0.107319    22A      0.134780    23A      0.140011  
      24A      0.156759    25A      0.162344    26A      0.169225  
      27A      0.174320    28A      0.213765    29A      0.227870  
      30A      0.260121    31A      0.411256    32A      0.417242  
      33A      0.436028    34A      0.440959    35A      0.446796  
      36A      0.479395    37A      0.517442    38A      0.587143  
      39A      0.599615    40A      0.622521    41A      0.624798  
      42A      0.645861    43A      0.659234    44A      0.673310  
      45A      0.678324    46A      0.681644    47A      0.683021  
      48A      0.704472    49A      0.714782    50A      0.726029  
      51A      0.767152    52A      0.819762    53A      0.893482  
      54A      0.909420    55A      0.968798    56A      1.090669  
      57A      1.138952    58A      1.187164    59A      1.214677  
      60A      1.280592    61A      1.314821    62A      1.386886  
      63A      1.396246    64A      1.431170    65A      1.459176  
      66A      1.521692    67A      1.573293    68A      1.590778  
      69A      1.592763    70A      1.628809    71A      1.647202  
      72A      1.650894    73A      1.673168    74A      1.686886  
      75A      1.692921    76A      1.698594    77A      1.703531  
      78A      1.732008    79A      1.749830    80A      1.756111  
      81A      1.793851    82A      1.810290    83A      1.874627  
      84A      1.892370    85A      1.979344    86A      1.982586  
      87A      2.028748    88A      2.059831    89A      2.111200  
      90A      2.127347    91A      2.214067    92A      2.262954  
      93A      2.266344    94A      2.294647    95A      2.328163  
      96A      2.339143    97A      2.466271    98A      2.475515  
      99A      2.495489   100A      2.515180   101A      2.517477  
     102A      2.548591   103A      2.632685   104A      2.656250  
     105A      2.729690   106A      2.731015  

    Final Occupation by Irrep:
              A 
    DOCC [    17 ]

  Energy converged.

  @DF-RKS Final Energy:  -158.45117528153142

   => Energetics <=

    Nuclear Repulsion Energy =            133.5525690333842306
    One-Electron Energy =                -475.5472269367923559
    Two-Electron Energy =                 204.1853427612174698
    DFT Exchange-Correlation Energy =     -20.6418601393407961
    Empirical Dispersion Energy =           0.0000000000000000
    PCM Polarization Energy =               0.0000000000000000
    EFP Energy =                            0.0000000000000000
    Total Energy =                       -158.4511752815314196


  Saving occupied orbitals to File 180.

*** tstop() called on lski1497 at Tue Feb 21 18:41:59 2017
Module time:
	user time   =     124.72 seconds =       2.08 minutes
	system time =       1.69 seconds =       0.03 minutes
	total time  =        146 seconds =       2.43 minutes
Total time:
	user time   =     288.85 seconds =       4.81 minutes
	system time =       4.16 seconds =       0.07 minutes
	total time  =        337 seconds =       5.62 minutes


Properties will be evaluated at   0.000000,   0.000000,   0.000000 Bohr

Properties computed using the SCF density matrix

  Nuclear Dipole Moment: (a.u.)
     X:    -0.9040      Y:    -0.3692      Z:     0.1390

  Electronic Dipole Moment: (a.u.)
     X:     0.9230      Y:     0.3766      Z:    -0.1423

  Dipole Moment: (a.u.)
     X:     0.0190      Y:     0.0074      Z:    -0.0032     Total:     0.0207

  Dipole Moment: (Debye)
     X:     0.0483      Y:     0.0188      Z:    -0.0082     Total:     0.0525


*** tstart() called on lski1497
*** at Tue Feb 21 18:41:59 2017


         ------------------------------------------------------------
                                   SCF GRAD                          
                          Rob Parrish, Justin Turney,                
                       Andy Simmonett, and Alex Sokolov              
         ------------------------------------------------------------

  ==> Geometry <==

    Molecular point group: c1
    Full point group: C1

    Geometry (in Angstrom), charge = 0, multiplicity = 1:

       Center              X                  Y                   Z               Mass       
    ------------   -----------------  -----------------  -----------------  -----------------
           H         -1.740651515296     0.382838595891     0.209400471123     1.007825032070
           H         -1.536181228844     2.014338528928    -0.422364176633     1.007825032070
           H         -1.280896950055     0.621644125066    -1.474682187214     1.007825032070
           C         -1.165613770054     0.997931216751    -0.466962252731    12.000000000000
           H          0.882441146759     1.595305672712    -0.754987451592     1.007825032070
           H          0.429417089485     1.352925635601     0.937784409891     1.007825032070
           C          0.326267223327     0.969273539218    -0.068964889426    12.000000000000
           H          0.975627987939    -0.778423279145    -1.155187557018     1.007825032070
           H          1.890699765376    -0.462793329988     0.324275845604     1.007825032070
           C          0.904793322237    -0.466228263704    -0.121559956581    12.000000000000
           H          0.448675710882    -2.458144254502     0.589799534209     1.007825032070
           H         -0.973847515318    -1.492158870000     0.211462151169     1.007825032070
           H         -0.059535618433    -1.169370134424     1.682801029501     1.007825032070
           C          0.015536259781    -1.467899900644     0.645031887280    12.000000000000

  Nuclear repulsion =  133.552569033384231

  ==> Basis Set <==

  Basis Set: CC-PVDZ
    Number of shells: 54
    Number of basis function: 106
    Number of Cartesian functions: 110
    Spherical Harmonics?: true
    Max angular momentum: 2

  ==> DFJKGrad: Density-Fitted SCF Gradients <==

    Gradient:                    1
    J tasked:                  Yes
    K tasked:                  Yes
    wK tasked:                  No
    OpenMP threads:              1
    Integrals threads:           1
    Memory (MB):               715
    Schwarz Cutoff:          0E+00
    Fitting Condition:       1E-12

   => Auxiliary Basis Set <=

  Basis Set: 
    Number of shells: 186
    Number of basis function: 510
    Number of Cartesian functions: 574
    Spherical Harmonics?: true
    Max angular momentum: 3

  ==> DFT Potential <==

   => B3LYP Composite Functional <= 

    B3LYP Hybrid-GGA Exchange-Correlation Functional (VWN1-RPA)

    P.J. Stephens et. al., J. Phys. Chem., 98, 11623-11627, 1994

    Points   =           5000
    Deriv    =              1
    GGA      =           TRUE
    Meta     =          FALSE

    X_LRC        =          FALSE
    X_Hybrid     =           TRUE
    X_Alpha      =   2.000000E-01
    X_Omega      =   0.000000E+00
    C_LRC        =          FALSE
    C_Hybrid     =          FALSE
    C_Alpha      =   0.000000E+00
    C_Omega      =   0.000000E+00

   => Exchange Functionals <=

    0.8000    B3_X
    0.2000      HF 

   => Correlation Functionals <=

    0.1900 VWN3RPA_C
    0.8100   LYP_C

   => Molecular Quadrature <=

    Radial Scheme    =       TREUTLER
    Pruning Scheme   =           FLAT
    Nuclear Scheme   =       TREUTLER

    BS radius alpha  =              1
    Pruning alpha    =              1
    Radial Points    =             75
    Spherical Points =            302
    Total Points     =         312747
    Total Blocks     =            265
    Max Points       =           4997
    Max Functions    =            106


  -Total Gradient:
     Atom            X                  Y                   Z
    ------   -----------------  -----------------  -----------------
       1        0.010548052233     0.004862533227    -0.006616732300
       2        0.007008164270    -0.011134228492     0.000835807803
       3        0.004640790332     0.004713559505     0.013235151449
       4       -0.022639574384    -0.005631526128    -0.006128792681
       5       -0.008736336225    -0.010495115714     0.005063323789
       6       -0.003256697248    -0.007708338968    -0.012562858634
       7        0.013981709110     0.022403132674     0.008732296816
       8       -0.004224332514     0.004673915155     0.013916846054
       9       -0.014762939160     0.000928614023    -0.001653424773
      10        0.022746166564    -0.007657607367    -0.014178149881
      11       -0.003304840952     0.013065464918    -0.001494340854
      12        0.011946807755     0.004375489395     0.003008007126
      13        0.002836786532    -0.001463132366    -0.014015793740
      14       -0.016800746202    -0.010939352395     0.011861310317


*** tstop() called on lski1497 at Tue Feb 21 18:42:47 2017
Module time:
	user time   =      40.84 seconds =       0.68 minutes
	system time =       0.71 seconds =       0.01 minutes
	total time  =         48 seconds =       0.80 minutes
Total time:
	user time   =     329.71 seconds =       5.50 minutes
	system time =       4.87 seconds =       0.08 minutes
	total time  =        385 seconds =       6.42 minutes

			-----------------------------------------
			 OPTKING 2.0: for geometry optimizations 
			  - R.A. King,  Bethel University        
			-----------------------------------------

	Previous internal coordinate definitions found.
	---Fragment 1 Geometry and Gradient---
	 H          -3.2893546567        0.7234600993        0.3957095425
	 H          -2.9029618130        3.8065481586       -0.7981526222
	 H          -2.4205444401        1.1747371485       -2.7867454669
	 C          -2.2026908021        1.8858166991       -0.8824307721
	 H           1.6675720958        3.0146908197       -1.4267195173
	 H           0.8114806959        2.5566589294        1.7721557064
	 C           0.6165556982        1.8316615370       -0.1303247538
	 H           1.8436697048       -1.4710068130       -2.1829881149
	 H           3.5729047561       -0.8745526498        0.6127925397
	 C           1.7098115859       -0.8810437338       -0.2297150267
	 H           0.8478742160       -4.6452194361        1.1145595930
	 H          -1.8403050991       -2.8197716111        0.3996055532
	 H          -0.1125060140       -2.2097893020        3.1800330819
	 C           0.0293592761       -2.7739288027        1.2189336139
	             0.0105480522        0.0048625332       -0.0066167323
	             0.0070081643       -0.0111342285        0.0008358078
	             0.0046407903        0.0047135595        0.0132351514
	            -0.0226395744       -0.0056315261       -0.0061287927
	            -0.0087363362       -0.0104951157        0.0050633238
	            -0.0032566972       -0.0077083390       -0.0125628586
	             0.0139817091        0.0224031327        0.0087322968
	            -0.0042243325        0.0046739152        0.0139168461
	            -0.0147629392        0.0009286140       -0.0016534248
	             0.0227461666       -0.0076576074       -0.0141781499
	            -0.0033048410        0.0130654649       -0.0014943409
	             0.0119468078        0.0043754894        0.0030080071
	             0.0028367865       -0.0014631324       -0.0140157937
	            -0.0168007462       -0.0109393524        0.0118613103

	---Fragment 1 Intrafragment Coordinates---
	 - Coordinate -           - BOHR/RAD -       - ANG/DEG -
	 R(1,4)           =         2.040969	       1.080034
	 R(2,4)           =         2.046141	       1.082771
	 R(3,4)           =         2.044385	       1.081842
	 R(4,7)           =         2.918347	       1.544323
	 R(5,7)           =         2.045686	       1.082531
	 R(6,7)           =         2.045250	       1.082300
	 R(7,10)          =         2.926407	       1.548588
	 R(8,10)          =         2.044811	       1.082067
	 R(9,10)          =         2.044744	       1.082032
	 R(10,14)         =         2.916422	       1.543304
	 R(11,14)         =         2.045138	       1.082240
	 R(12,14)         =         2.041824	       1.080487
	 R(13,14)         =         2.045554	       1.082460
	 B(1,4,2)         =         1.903495	     109.062235
	 B(1,4,3)         =         1.905523	     109.178412
	 B(1,4,7)         =         1.920250	     110.022211
	 B(2,4,3)         =         1.905405	     109.171673
	 B(2,4,7)         =         1.914974	     109.719926
	 B(3,4,7)         =         1.914045	     109.666704
	 B(4,7,5)         =         1.898927	     108.800481
	 B(4,7,6)         =         1.902039	     108.978799
	 B(4,7,10)        =         1.949101	     111.675278
	 B(5,7,6)         =         1.912955	     109.604269
	 B(5,7,10)        =         1.899286	     108.821069
	 B(6,7,10)        =         1.901364	     108.940152
	 B(7,10,8)        =         1.901117	     108.925998
	 B(7,10,9)        =         1.900178	     108.872175
	 B(7,10,14)       =         1.949285	     111.685832
	 B(8,10,9)        =         1.912253	     109.564010
	 B(8,10,14)       =         1.901749	     108.962212
	 B(9,10,14)       =         1.899069	     108.808629
	 B(10,14,11)      =         1.915492	     109.749615
	 B(10,14,12)      =         1.920768	     110.051923
	 B(10,14,13)      =         1.914712	     109.704920
	 B(11,14,12)      =         1.902291	     108.993255
	 B(11,14,13)      =         1.906072	     109.209889
	 B(12,14,13)      =         1.904338	     109.110554
	 D(1,4,7,5)       =        -3.136131	    -179.687070
	 D(1,4,7,6)       =        -1.051078	     -60.222332
	 D(1,4,7,10)      =         1.050310	      60.178321
	 D(2,4,7,5)       =        -1.041874	     -59.694974
	 D(2,4,7,6)       =         1.043179	      59.769764
	 D(2,4,7,10)      =        -3.138618	    -179.829583
	 D(3,4,7,5)       =         1.050879	      60.210908
	 D(3,4,7,6)       =         3.135932	     179.675645
	 D(3,4,7,10)      =        -1.045866	     -59.923702
	 D(4,7,10,8)      =         1.225688	      70.226753
	 D(4,7,10,9)      =        -2.973099	    -170.346009
	 D(4,7,10,14)     =        -0.875686	     -50.173113
	 D(5,7,10,8)      =        -0.870846	     -49.895772
	 D(5,7,10,9)      =         1.213553	      69.531465
	 D(5,7,10,14)     =        -2.972220	    -170.295638
	 D(6,7,10,8)      =        -2.955715	    -169.349976
	 D(6,7,10,9)      =        -0.871316	     -49.922738
	 D(6,7,10,14)     =         1.226097	      70.250159
	 D(7,10,14,11)    =        -3.139780	    -179.896159
	 D(7,10,14,12)    =         1.049984	      60.159679
	 D(7,10,14,13)    =        -1.045473	     -59.901180
	 D(8,10,14,11)    =         1.042401	      59.725171
	 D(8,10,14,12)    =        -1.051020	     -60.218991
	 D(8,10,14,13)    =         3.136708	     179.720150
	 D(9,10,14,11)    =        -1.041717	     -59.685994
	 D(9,10,14,12)    =        -3.135138	    -179.630156
	 D(9,10,14,13)    =         1.052590	      60.308985

	Current energy   :      -158.4511752815

	Energy change for the previous step:
		Projected    :        -0.0087958111
		Actual       :        -0.0071624279

	Performing BFGS update.
	Previous computed or guess Hessian on step 1.
	Steps to be used in Hessian update: 1
	Adding user-defined constraint: Fragment 1; Coordinate 49:
		Value =    -0.875686; Fixed value    =    -0.872660
		Force =     0.001589; Force constant =     0.525000
	Removing off-diagonal coupling between coordinate 49 and others.
	Taking RFO optimization step.
	Going to follow RFO solution 1.
	Using RFO vector 1.

	Determining step-restricting scale parameter for RS-RFO.
	Maximum step size allowed    0.10000

	 Iter      |step|        alpha        rfo_root  
	------------------------------------------------
	    0     0.19914       1.00000           1
	    1     0.15301       7.16436           1
	    2     0.12125      20.05637           1
	    3     0.10510      33.56330           1
	    4     0.10041      39.08446           1
	    5     0.10000      39.60239           1
	------------------------------------------------
	Norm of target step-size    0.10000
	Projected energy change by RFO approximation:        -0.0050811493

	Back-transformation to cartesian coordinates...
	Could not converge backtransformation.
	Using first guess instead.

	--- Internal Coordinate Step in ANG or DEG, aJ/ANG or AJ/DEG ---
	 ---------------------------------------------------------------------------
	   Coordinate                Previous        Force       Change         New 
	   ----------                --------       ------       ------       ------
	    1 R(1,4)          =      1.080034     0.103234     0.014052     1.094086
	    2 R(2,4)          =      1.082771     0.105589     0.012491     1.095262
	    3 R(3,4)          =      1.081842     0.119146     0.014251     1.096093
	    4 R(4,7)          =      1.544323     0.000422    -0.001954     1.542369
	    5 R(5,7)          =      1.082531     0.113409     0.013447     1.095977
	    6 R(6,7)          =      1.082300     0.121348     0.014474     1.096774
	    7 R(7,10)         =      1.548588     0.026890    -0.001462     1.547126
	    8 R(8,10)         =      1.082067     0.122915     0.014641     1.096708
	    9 R(9,10)         =      1.082032     0.116401     0.013774     1.095806
	   10 R(10,14)        =      1.543304     0.004331    -0.001403     1.541901
	   11 R(11,14)        =      1.082240     0.108764     0.012839     1.095079
	   12 R(12,14)        =      1.080487     0.100892     0.013795     1.094282
	   13 R(13,14)        =      1.082460     0.115645     0.013868     1.096328
	   14 B(1,4,2)        =    109.062235    -0.000312    -0.577513   108.484722
	   15 B(1,4,3)        =    109.178412    -0.000262    -0.613181   108.565232
	   16 B(1,4,7)        =    110.022211     0.000388     0.708018   110.730229
	   17 B(2,4,3)        =    109.171673    -0.000245    -0.526672   108.645001
	   18 B(2,4,7)        =    109.719926     0.000192     0.412072   110.131998
	   19 B(3,4,7)        =    109.666704     0.000229     0.559640   110.226344
	   20 B(4,7,5)        =    108.800481    -0.000295    -0.189181   108.611300
	   21 B(4,7,6)        =    108.978799    -0.000271    -0.215090   108.763708
	   22 B(4,7,10)       =    111.675278     0.001142     1.269345   112.944623
	   23 B(5,7,6)        =    109.604269     0.000008    -0.332873   109.271396
	   24 B(5,7,10)       =    108.821069    -0.000331    -0.351324   108.469745
	   25 B(6,7,10)       =    108.940152    -0.000263    -0.211208   108.728944
	   26 B(7,10,8)       =    108.925998    -0.000263    -0.211585   108.714414
	   27 B(7,10,9)       =    108.872175    -0.000338    -0.366039   108.506137
	   28 B(7,10,14)      =    111.685832     0.001145     1.271752   112.957584
	   29 B(8,10,9)       =    109.564010     0.000011    -0.326363   109.237646
	   30 B(8,10,14)      =    108.962212    -0.000270    -0.211889   108.750323
	   31 B(9,10,14)      =    108.808629    -0.000294    -0.186771   108.621857
	   32 B(10,14,11)     =    109.749615     0.000192     0.407867   110.157482
	   33 B(10,14,12)     =    110.051923     0.000382     0.694475   110.746398
	   34 B(10,14,13)     =    109.704920     0.000226     0.552126   110.257045
	   35 B(11,14,12)     =    108.993255    -0.000306    -0.561734   108.431521
	   36 B(11,14,13)     =    109.209889    -0.000247    -0.533636   108.676253
	   37 B(12,14,13)     =    109.110554    -0.000257    -0.597759   108.512794
	   38 D(1,4,7,5)      =   -179.687070     0.000048     0.361936  -179.325134
	   39 D(1,4,7,6)      =    -60.222332    -0.000026    -0.273229   -60.495561
	   40 D(1,4,7,10)     =     60.178321     0.000023     0.127603    60.305924
	   41 D(2,4,7,5)      =    -59.694974     0.000043     0.356613   -59.338361
	   42 D(2,4,7,6)      =     59.769764    -0.000031    -0.278552    59.491212
	   43 D(2,4,7,10)     =   -179.829583     0.000018     0.122280  -179.707303
	   44 D(3,4,7,5)      =     60.210908     0.000033     0.315372    60.526279
	   45 D(3,4,7,6)      =    179.675645    -0.000040    -0.319794   179.355851
	   46 D(3,4,7,10)     =    -59.923702     0.000009     0.081038   -59.842664
	   47 D(4,7,10,8)     =     70.226753     0.000026     0.231836    70.458589
	   48 D(4,7,10,9)     =   -170.346009    -0.000052    -0.494456  -170.840466
	   49 D(4,7,10,14)    =    -50.173113    -0.000022    -0.170932   -50.344044
	   50 D(5,7,10,8)     =    -49.895772    -0.000004    -0.095470   -49.991243
	   51 D(5,7,10,9)     =     69.531465    -0.000081    -0.821763    68.709703
	   52 D(5,7,10,14)    =   -170.295638    -0.000052    -0.498238  -170.793876
	   53 D(6,7,10,8)     =   -169.349976     0.000074     0.629832  -168.720143
	   54 D(6,7,10,9)     =    -49.922738    -0.000004    -0.096460   -50.019198
	   55 D(6,7,10,14)    =     70.250159     0.000026     0.227065    70.477224
	   56 D(7,10,14,11)   =   -179.896159     0.000019     0.135568  -179.760591
	   57 D(7,10,14,12)   =     60.159679     0.000024     0.132399    60.292078
	   58 D(7,10,14,13)   =    -59.901180     0.000009     0.079723   -59.821457
	   59 D(8,10,14,11)   =     59.725171    -0.000030    -0.267961    59.457210
	   60 D(8,10,14,12)   =    -60.218991    -0.000026    -0.271130   -60.490121
	   61 D(8,10,14,13)   =    179.720150    -0.000041    -0.323806   179.396344
	   62 D(9,10,14,11)   =    -59.685994     0.000042     0.355752   -59.330242
	   63 D(9,10,14,12)   =   -179.630156     0.000047     0.352583  -179.277574
	   64 D(9,10,14,13)   =     60.308985     0.000032     0.299907    60.608892
	 ---------------------------------------------------------------------------
	 Forces used to impose fixed constraints are not included.
	  Forces zeroed: 49 

  ==> Convergence Check <==

  Measures of convergence in internal coordinates in au.
  Criteria marked as inactive (o), active & met (*), and active & unmet ( ).
  ---------------------------------------------------------------------------------------------
   Step     Total Energy     Delta E     MAX Force     RMS Force      MAX Disp      RMS Disp   
  ---------------------------------------------------------------------------------------------
    Convergence Criteria    1.00e-06 *    3.00e-04 *             o    1.20e-03 *             o
  ---------------------------------------------------------------------------------------------
      2    -158.45117528   -7.16e-03      1.51e-02      6.55e-03 o    2.77e-02      1.26e-02 o  ~
  ---------------------------------------------------------------------------------------------

	Writing optimization data to binary file.
	Structure for next step:
	Cartesian Geometry (in Angstrom)
	    H    -1.7772682340   0.4184088456   0.2059479534
	    H    -1.5307247444   2.0572504400  -0.4342789871
	    H    -1.3038416690   0.6444497432  -1.4931227716
	    C    -1.1699947009   1.0238426069  -0.4735320026
	    H     0.8916218174   1.5915223930  -0.7676657522
	    H     0.4265219636   1.3606106365   0.9434425848
	    C     0.3186038576   0.9656581158  -0.0740445168
	    H     0.9773600056  -0.7864183130  -1.1609849415
	    H     1.8978151570  -0.4520192549   0.3344878608
	    C     0.8983212343  -0.4681804377  -0.1144450928
	    H     0.4849025808  -2.4844528153   0.5955627977
	    H    -0.9734581926  -1.5426165459   0.2206889998
	    H    -0.0548234795  -1.1997762019   1.7038623877
	    C     0.0316963119  -1.4890399305   0.6499283379
			--------------------------
			 OPTKING Finished Execution 
			--------------------------

    Structure for next step:
    Molecular point group: c1
    Full point group: C1

    Geometry (in Angstrom), charge = 0, multiplicity = 1:

    H           -1.776822263009     0.418559545313     0.205879451413
    H           -1.530278773392     2.057401139750    -0.434347489103
    H           -1.303395697915     0.644600442965    -1.493191273599
    C           -1.169548729825     1.023993306685    -0.473600504646
    H            0.892067788440     1.591673092720    -0.767734254169
    H            0.426967934595     1.360761336258     0.943374082791
    C            0.319049828619     0.965808815514    -0.074113018770
    H            0.977805976625    -0.786267613258    -1.161053443468
    H            1.898261128013    -0.451868555185     0.334419358807
    C            0.898767205310    -0.468029737964    -0.114513594758
    H            0.485348551887    -2.484302115558     0.595494295667
    H           -0.973012221588    -1.542465846150     0.220620497838
    H           -0.054377508441    -1.199625502149     1.703793885690
    C            0.032142282981    -1.488889230736     0.649859835853

gradient() will perform analytic gradient computation.

*** tstart() called on lski1497
*** at Tue Feb 21 18:42:48 2017


         ---------------------------------------------------------
                                   SCF
            by Justin Turney, Rob Parrish, and Andy Simmonett
                              RKS Reference
                        1 Threads,   1000 MiB Core
         ---------------------------------------------------------

  ==> Geometry <==

    Molecular point group: c1
    Full point group: C1

    Geometry (in Angstrom), charge = 0, multiplicity = 1:

       Center              X                  Y                   Z               Mass       
    ------------   -----------------  -----------------  -----------------  -----------------
           H         -1.776822263009     0.418559545313     0.205879451413     1.007825032070
           H         -1.530278773392     2.057401139750    -0.434347489103     1.007825032070
           H         -1.303395697915     0.644600442965    -1.493191273599     1.007825032070
           C         -1.169548729825     1.023993306685    -0.473600504646    12.000000000000
           H          0.892067788440     1.591673092720    -0.767734254169     1.007825032070
           H          0.426967934595     1.360761336258     0.943374082791     1.007825032070
           C          0.319049828619     0.965808815514    -0.074113018770    12.000000000000
           H          0.977805976625    -0.786267613258    -1.161053443468     1.007825032070
           H          1.898261128013    -0.451868555185     0.334419358807     1.007825032070
           C          0.898767205310    -0.468029737964    -0.114513594758    12.000000000000
           H          0.485348551887    -2.484302115558     0.595494295667     1.007825032070
           H         -0.973012221588    -1.542465846150     0.220620497838     1.007825032070
           H         -0.054377508441    -1.199625502149     1.703793885690     1.007825032070
           C          0.032142282981    -1.488889230736     0.649859835853    12.000000000000

  Running in c1 symmetry.

  Rotational constants: A =      0.41230  B =      0.16975  C =      0.13770 [cm^-1]
  Rotational constants: A =  12360.54318  B =   5088.88467  C =   4128.00177 [MHz]
  Nuclear repulsion =  132.584324996730146

  Charge       = 0
  Multiplicity = 1
  Electrons    = 34
  Nalpha       = 17
  Nbeta        = 17

  ==> Algorithm <==

  SCF Algorithm Type is DF.
  DIIS enabled.
  MOM disabled.
  Fractional occupation disabled.
  Guess Type is READ.
  Energy threshold   = 1.00e-08
  Density threshold  = 1.00e-08
  Integral threshold = 0.00e+00

  ==> Primary Basis <==

  Basis Set: CC-PVDZ
    Number of shells: 54
    Number of basis function: 106
    Number of Cartesian functions: 110
    Spherical Harmonics?: true
    Max angular momentum: 2

  ==> DFT Potential <==

   => B3LYP Composite Functional <= 

    B3LYP Hybrid-GGA Exchange-Correlation Functional (VWN1-RPA)

    P.J. Stephens et. al., J. Phys. Chem., 98, 11623-11627, 1994

    Points   =           5000
    Deriv    =              1
    GGA      =           TRUE
    Meta     =          FALSE

    X_LRC        =          FALSE
    X_Hybrid     =           TRUE
    X_Alpha      =   2.000000E-01
    X_Omega      =   0.000000E+00
    C_LRC        =          FALSE
    C_Hybrid     =          FALSE
    C_Alpha      =   0.000000E+00
    C_Omega      =   0.000000E+00

   => Exchange Functionals <=

    0.8000    B3_X
    0.2000      HF 

   => Correlation Functionals <=

    0.1900 VWN3RPA_C
    0.8100   LYP_C

   => Molecular Quadrature <=

    Radial Scheme    =       TREUTLER
    Pruning Scheme   =           FLAT
    Nuclear Scheme   =       TREUTLER

    BS radius alpha  =              1
    Pruning alpha    =              1
    Radial Points    =             75
    Spherical Points =            302
    Total Points     =         312778
    Total Blocks     =            268
    Max Points       =           4939
    Max Functions    =            106

  ==> Pre-Iterations <==

   -------------------------------------------------------
    Irrep   Nso     Nmo     Nalpha   Nbeta   Ndocc  Nsocc
   -------------------------------------------------------
     A        106     106       0       0       0       0
   -------------------------------------------------------
    Total     106     106      17      17      17       0
   -------------------------------------------------------

  ==> Integral Setup <==

  ==> DFJK: Density-Fitted J/K Matrices <==

    J tasked:                  Yes
    K tasked:                  Yes
    wK tasked:                  No
    OpenMP threads:              1
    Integrals threads:           1
    Memory (MB):               715
    Algorithm:                Core
    Integral Cache:           NONE
    Schwarz Cutoff:          1E-12
    Fitting Condition:       1E-12

   => Auxiliary Basis Set <=

  Basis Set: 
    Number of shells: 186
    Number of basis function: 510
    Number of Cartesian functions: 574
    Spherical Harmonics?: true
    Max angular momentum: 3

  Minimum eigenvalue in the overlap matrix is 4.6979995571E-03.
  Using Symmetric Orthogonalization.
  SCF Guess was Projection but file not found.
  Switching over to SAD guess.

  SCF Guess: Superposition of Atomic Densities via on-the-fly atomic UHF.

  ==> Iterations <==

                           Total Energy        Delta E     RMS |[F,P]|

   @DF-RKS iter   0:  -158.87790819197321   -1.58878e+02   3.21297e-02 
   @DF-RKS iter   1:  -158.27588502782376    6.02023e-01   5.27448e-03 
   @DF-RKS iter   2:  -158.19201274568320    8.38723e-02   6.48183e-03 DIIS
   @DF-RKS iter   3:  -158.45388084613577   -2.61868e-01   3.83176e-04 DIIS
   @DF-RKS iter   4:  -158.45472812560456   -8.47279e-04   1.19977e-04 DIIS
   @DF-RKS iter   5:  -158.45480003486495   -7.19093e-05   4.82584e-05 DIIS
   @DF-RKS iter   6:  -158.45481268875702   -1.26539e-05   7.58984e-06 DIIS
   @DF-RKS iter   7:  -158.45481304721858   -3.58462e-07   1.06758e-06 DIIS
   @DF-RKS iter   8:  -158.45481305493880   -7.72022e-09   1.76971e-07 DIIS
   @DF-RKS iter   9:  -158.45481305507840   -1.39607e-10   1.02137e-07 DIIS
   @DF-RKS iter  10:  -158.45481305513607   -5.76676e-11   1.38681e-08 DIIS
   @DF-RKS iter  11:  -158.45481305513772   -1.64846e-12   2.13527e-09 DIIS

  ==> Post-Iterations <==

    Orbital Energies (a.u.)
    -----------------------

    Doubly Occupied:                                                      

       1A    -10.178448     2A    -10.178282     3A    -10.172683  
       4A    -10.172665     5A     -0.790167     6A     -0.714377  
       7A     -0.639343     8A     -0.559973     9A     -0.459019  
      10A     -0.450316    11A     -0.412872    12A     -0.382651  
      13A     -0.375830    14A     -0.356804    15A     -0.323699  
      16A     -0.320096    17A     -0.318247  

    Virtual:                                                              

      18A      0.058123    19A      0.094465    20A      0.098324  
      21A      0.105069    22A      0.133043    23A      0.137752  
      24A      0.151866    25A      0.157522    26A      0.167000  
      27A      0.171129    28A      0.213409    29A      0.224770  
      30A      0.263758    31A      0.405843    32A      0.411051  
      33A      0.436818    34A      0.441400    35A      0.444443  
      36A      0.483826    37A      0.518997    38A      0.584574  
      39A      0.597599    40A      0.615685    41A      0.623525  
      42A      0.641300    43A      0.650599    44A      0.665591  
      45A      0.671813    46A      0.671887    47A      0.677765  
      48A      0.697401    49A      0.702755    50A      0.714821  
      51A      0.761597    52A      0.813749    53A      0.894049  
      54A      0.904339    55A      0.967819    56A      1.090148  
      57A      1.136963    58A      1.183870    59A      1.207727  
      60A      1.266723    61A      1.311494    62A      1.383012  
      63A      1.392405    64A      1.426059    65A      1.443919  
      66A      1.514105    67A      1.571555    68A      1.584422  
      69A      1.587776    70A      1.625735    71A      1.637655  
      72A      1.639063    73A      1.662617    74A      1.679062  
      75A      1.683119    76A      1.686975    77A      1.690801  
      78A      1.721358    79A      1.731866    80A      1.746143  
      81A      1.778201    82A      1.798775    83A      1.859925  
      84A      1.882606    85A      1.960662    86A      1.976742  
      87A      2.024995    88A      2.054931    89A      2.098411  
      90A      2.112909    91A      2.195573    92A      2.241703  
      93A      2.246538    94A      2.264793    95A      2.301536  
      96A      2.307915    97A      2.428048    98A      2.437403  
      99A      2.470134   100A      2.492315   101A      2.492924  
     102A      2.524861   103A      2.615325   104A      2.630995  
     105A      2.702468   106A      2.707652  

    Final Occupation by Irrep:
              A 
    DOCC [    17 ]

  Energy converged.

  @DF-RKS Final Energy:  -158.45481305513772

   => Energetics <=

    Nuclear Repulsion Energy =            132.5843249967301460
    One-Electron Energy =                -473.6565876668308306
    Two-Electron Energy =                 203.2192876325669317
    DFT Exchange-Correlation Energy =     -20.6018380176039244
    Empirical Dispersion Energy =           0.0000000000000000
    PCM Polarization Energy =               0.0000000000000000
    EFP Energy =                            0.0000000000000000
    Total Energy =                       -158.4548130551377199


  Saving occupied orbitals to File 180.

*** tstop() called on lski1497 at Tue Feb 21 18:45:12 2017
Module time:
	user time   =     122.67 seconds =       2.04 minutes
	system time =       1.57 seconds =       0.03 minutes
	total time  =        144 seconds =       2.40 minutes
Total time:
	user time   =     453.05 seconds =       7.55 minutes
	system time =       6.47 seconds =       0.11 minutes
	total time  =        530 seconds =       8.83 minutes


Properties will be evaluated at   0.000000,   0.000000,   0.000000 Bohr

Properties computed using the SCF density matrix

  Nuclear Dipole Moment: (a.u.)
     X:    -0.8976      Y:    -0.3671      Z:     0.1380

  Electronic Dipole Moment: (a.u.)
     X:     0.9157      Y:     0.3744      Z:    -0.1411

  Dipole Moment: (a.u.)
     X:     0.0182      Y:     0.0073      Z:    -0.0030     Total:     0.0198

  Dipole Moment: (Debye)
     X:     0.0461      Y:     0.0186      Z:    -0.0077     Total:     0.0503


*** tstart() called on lski1497
*** at Tue Feb 21 18:45:12 2017


         ------------------------------------------------------------
                                   SCF GRAD                          
                          Rob Parrish, Justin Turney,                
                       Andy Simmonett, and Alex Sokolov              
         ------------------------------------------------------------

  ==> Geometry <==

    Molecular point group: c1
    Full point group: C1

    Geometry (in Angstrom), charge = 0, multiplicity = 1:

       Center              X                  Y                   Z               Mass       
    ------------   -----------------  -----------------  -----------------  -----------------
           H         -1.776822263009     0.418559545313     0.205879451413     1.007825032070
           H         -1.530278773392     2.057401139750    -0.434347489103     1.007825032070
           H         -1.303395697915     0.644600442965    -1.493191273599     1.007825032070
           C         -1.169548729825     1.023993306685    -0.473600504646    12.000000000000
           H          0.892067788440     1.591673092720    -0.767734254169     1.007825032070
           H          0.426967934595     1.360761336258     0.943374082791     1.007825032070
           C          0.319049828619     0.965808815514    -0.074113018770    12.000000000000
           H          0.977805976625    -0.786267613258    -1.161053443468     1.007825032070
           H          1.898261128013    -0.451868555185     0.334419358807     1.007825032070
           C          0.898767205310    -0.468029737964    -0.114513594758    12.000000000000
           H          0.485348551887    -2.484302115558     0.595494295667     1.007825032070
           H         -0.973012221588    -1.542465846150     0.220620497838     1.007825032070
           H         -0.054377508441    -1.199625502149     1.703793885690     1.007825032070
           C          0.032142282981    -1.488889230736     0.649859835853    12.000000000000

  Nuclear repulsion =  132.584324996730146

  ==> Basis Set <==

  Basis Set: CC-PVDZ
    Number of shells: 54
    Number of basis function: 106
    Number of Cartesian functions: 110
    Spherical Harmonics?: true
    Max angular momentum: 2

  ==> DFJKGrad: Density-Fitted SCF Gradients <==

    Gradient:                    1
    J tasked:                  Yes
    K tasked:                  Yes
    wK tasked:                  No
    OpenMP threads:              1
    Integrals threads:           1
    Memory (MB):               715
    Schwarz Cutoff:          0E+00
    Fitting Condition:       1E-12

   => Auxiliary Basis Set <=

  Basis Set: 
    Number of shells: 186
    Number of basis function: 510
    Number of Cartesian functions: 574
    Spherical Harmonics?: true
    Max angular momentum: 3

  ==> DFT Potential <==

   => B3LYP Composite Functional <= 

    B3LYP Hybrid-GGA Exchange-Correlation Functional (VWN1-RPA)

    P.J. Stephens et. al., J. Phys. Chem., 98, 11623-11627, 1994

    Points   =           5000
    Deriv    =              1
    GGA      =           TRUE
    Meta     =          FALSE

    X_LRC        =          FALSE
    X_Hybrid     =           TRUE
    X_Alpha      =   2.000000E-01
    X_Omega      =   0.000000E+00
    C_LRC        =          FALSE
    C_Hybrid     =          FALSE
    C_Alpha      =   0.000000E+00
    C_Omega      =   0.000000E+00

   => Exchange Functionals <=

    0.8000    B3_X
    0.2000      HF 

   => Correlation Functionals <=

    0.1900 VWN3RPA_C
    0.8100   LYP_C

   => Molecular Quadrature <=

    Radial Scheme    =       TREUTLER
    Pruning Scheme   =           FLAT
    Nuclear Scheme   =       TREUTLER

    BS radius alpha  =              1
[...]
	   22 B(4,7,10)       =    114.316909     0.000198     0.800900   115.117810
	   23 B(5,7,6)        =    108.044051    -0.000086    -1.445165   106.598886
	   24 B(5,7,10)       =    108.234541    -0.000048     0.042697   108.277238
	   25 B(6,7,10)       =    108.741542    -0.000024     0.123515   108.865058
	   26 B(7,10,8)       =    108.730900    -0.000023     0.129657   108.860557
	   27 B(7,10,9)       =    108.252347    -0.000049     0.030969   108.283316
	   28 B(7,10,14)      =    114.326054     0.000198     0.795414   115.121468
	   29 B(8,10,9)       =    108.022905    -0.000085    -1.432013   106.590892
	   30 B(8,10,14)      =    108.571480    -0.000049    -0.026590   108.544889
	   31 B(9,10,14)      =    108.767732    -0.000006     0.341682   109.109414
	   32 B(10,14,11)     =    110.592565     0.000045     0.204489   110.797054
	   33 B(10,14,12)     =    111.582497     0.000080     0.400062   111.982559
	   34 B(10,14,13)     =    110.931405     0.000076     0.441445   111.372851
	   35 B(11,14,12)     =    107.739688    -0.000073    -0.383529   107.356159
	   36 B(11,14,13)     =    107.991372    -0.000074    -0.424100   107.567272
	   37 B(12,14,13)     =    107.856191    -0.000066    -0.304959   107.551232
	   38 D(1,4,7,5)      =   -178.262643     0.000022     1.585321  -176.677323
	   39 D(1,4,7,6)      =    -60.923611    -0.000009     0.037985   -60.885626
	   40 D(1,4,7,10)     =     60.667183     0.000007     0.721849    61.389032
	   41 D(2,4,7,5)      =    -58.327295     0.000020     1.489680   -56.837615
	   42 D(2,4,7,6)      =     59.011738    -0.000011    -0.057656    58.954082
	   43 D(2,4,7,10)     =   -179.397468     0.000004     0.626208  -178.771260
	   44 D(3,4,7,5)      =     61.429553     0.000017     1.410266    62.839819
	   45 D(3,4,7,6)      =    178.768585    -0.000013    -0.137070   178.631515
	   46 D(3,4,7,10)     =    -59.640621     0.000002     0.546794   -59.093827
	   47 D(4,7,10,8)     =     71.082475     0.000016     0.576004    71.658479
	   48 D(4,7,10,9)     =   -171.798756    -0.000017    -1.034272  -172.833027
	   49 D(4,7,10,14)    =    -50.407760     0.000003    -0.032654   -50.440413
	   50 D(5,7,10,8)     =    -50.276425    -0.000005    -0.443756   -50.720181
	   51 D(5,7,10,9)     =     66.842344    -0.000037    -2.054032    64.788313
	   52 D(5,7,10,14)    =   -171.766660    -0.000017    -1.052414  -172.819073
	   53 D(6,7,10,8)     =   -167.416312     0.000028     1.179066  -166.237245
	   54 D(6,7,10,9)     =    -50.297543    -0.000004    -0.431209   -50.728751
	   55 D(6,7,10,14)    =     71.093453     0.000016     0.570409    71.663863
	   56 D(7,10,14,11)   =   -179.425598     0.000005     0.648661  -178.776938
	   57 D(7,10,14,12)   =     60.663067     0.000007     0.729405    61.392471
	   58 D(7,10,14,13)   =    -59.625121     0.000002     0.540472   -59.084649
	   59 D(8,10,14,11)   =     58.996475    -0.000011    -0.042109    58.954366
	   60 D(8,10,14,12)   =    -60.914860    -0.000009     0.038635   -60.876225
	   61 D(8,10,14,13)   =    178.796952    -0.000014    -0.150298   178.646654
	   62 D(9,10,14,11)   =    -58.318964     0.000020     1.490191   -56.828773
	   63 D(9,10,14,12)   =   -178.230299     0.000022     1.570935  -176.659364
	   64 D(9,10,14,13)   =     61.481514     0.000017     1.382002    62.863515
	 ---------------------------------------------------------------------------
	 Forces used to impose fixed constraints are not included.
	  Forces zeroed: 49 

  ==> Convergence Check <==

  Measures of convergence in internal coordinates in au.
  Criteria marked as inactive (o), active & met (*), and active & unmet ( ).
  ---------------------------------------------------------------------------------------------
   Step     Total Energy     Delta E     MAX Force     RMS Force      MAX Disp      RMS Disp   
  ---------------------------------------------------------------------------------------------
    Convergence Criteria    1.00e-06 *    3.00e-04 *             o    1.20e-03 *             o
  ---------------------------------------------------------------------------------------------
      4    -158.45615681   -1.34e-03      2.61e-03      1.02e-03 o    3.58e-02      1.25e-02 o  ~
  ---------------------------------------------------------------------------------------------

	Writing optimization data to binary file.
	Structure for next step:
	Cartesian Geometry (in Angstrom)
	    H    -1.8285335914   0.4997341525   0.2023581007
	    H    -1.5087591266   2.1138315777  -0.4640507209
	    H    -1.3451099024   0.6766689365  -1.5007883073
	    C    -1.1745616223   1.0640010017  -0.4810919359
	    H     0.9060596982   1.5845479960  -0.7593391422
	    H     0.4241223730   1.3778460932   0.9323713225
	    C     0.3022458068   0.9562230110  -0.0822000550
	    H     0.9906168589  -0.7995904923  -1.1518538554
	    H     1.9005434471  -0.4376997446   0.3238155883
	    C     0.8828448964  -0.4719015608  -0.1016182945
	    H     0.5466698635  -2.5070407732   0.6130903709
	    H    -0.9516221133  -1.6359648742   0.2286577557
	    H    -0.0585568276  -1.2503020425   1.7183791968
	    C     0.0577221777  -1.5204595764   0.6542360753
			--------------------------
			 OPTKING Finished Execution 
			--------------------------

    Structure for next step:
    Molecular point group: c1
    Full point group: C1

    Geometry (in Angstrom), charge = 0, multiplicity = 1:

    H           -1.826591573473     0.500536041114     0.202088361958
    H           -1.506817108704     2.114633466279    -0.464320459619
    H           -1.343167884524     0.677470825116    -1.501058046070
    C           -1.172619604401     1.064802890249    -0.481361674580
    H            0.908001716127     1.585349884622    -0.759608880949
    H            0.426064390944     1.378647981784     0.932101583760
    C            0.304187824672     0.957024899624    -0.082469793753
    H            0.992558876765    -0.798788603707    -1.152123594104
    H            1.902485464955    -0.436897855988     0.323545849532
    C            0.884786914335    -0.471099672214    -0.101888033232
    H            0.548611881447    -2.506238884579     0.612820632139
    H           -0.949680095382    -1.635162985651     0.228388017010
    H           -0.056614809735    -1.249500153910     1.718109458037
    C            0.059664195614    -1.519657687846     0.653966336604

gradient() will perform analytic gradient computation.

*** tstart() called on lski1497
*** at Tue Feb 21 18:49:21 2017


         ---------------------------------------------------------
                                   SCF
            by Justin Turney, Rob Parrish, and Andy Simmonett
                              RKS Reference
                        1 Threads,   1000 MiB Core
         ---------------------------------------------------------

  ==> Geometry <==

    Molecular point group: c1
    Full point group: C1

    Geometry (in Angstrom), charge = 0, multiplicity = 1:

       Center              X                  Y                   Z               Mass       
    ------------   -----------------  -----------------  -----------------  -----------------
           H         -1.826591573473     0.500536041114     0.202088361958     1.007825032070
           H         -1.506817108704     2.114633466279    -0.464320459619     1.007825032070
           H         -1.343167884524     0.677470825116    -1.501058046070     1.007825032070
           C         -1.172619604401     1.064802890249    -0.481361674580    12.000000000000
           H          0.908001716127     1.585349884622    -0.759608880949     1.007825032070
           H          0.426064390944     1.378647981784     0.932101583760     1.007825032070
           C          0.304187824672     0.957024899624    -0.082469793753    12.000000000000
           H          0.992558876765    -0.798788603707    -1.152123594104     1.007825032070
           H          1.902485464955    -0.436897855988     0.323545849532     1.007825032070
           C          0.884786914335    -0.471099672214    -0.101888033232    12.000000000000
           H          0.548611881447    -2.506238884579     0.612820632139     1.007825032070
           H         -0.949680095382    -1.635162985651     0.228388017010     1.007825032070
           H         -0.056614809735    -1.249500153910     1.718109458037     1.007825032070
           C          0.059664195614    -1.519657687846     0.653966336604    12.000000000000

  Running in c1 symmetry.

  Rotational constants: A =      0.42191  B =      0.16341  C =      0.13409 [cm^-1]
  Rotational constants: A =  12648.67511  B =   4898.94562  C =   4019.91084 [MHz]
  Nuclear repulsion =  131.829975879479093

  Charge       = 0
  Multiplicity = 1
  Electrons    = 34
  Nalpha       = 17
  Nbeta        = 17

  ==> Algorithm <==

  SCF Algorithm Type is DF.
  DIIS enabled.
  MOM disabled.
  Fractional occupation disabled.
  Guess Type is READ.
  Energy threshold   = 1.00e-08
  Density threshold  = 1.00e-08
  Integral threshold = 0.00e+00

  ==> Primary Basis <==

  Basis Set: CC-PVDZ
    Number of shells: 54
    Number of basis function: 106
    Number of Cartesian functions: 110
    Spherical Harmonics?: true
    Max angular momentum: 2

  ==> DFT Potential <==

   => B3LYP Composite Functional <= 

    B3LYP Hybrid-GGA Exchange-Correlation Functional (VWN1-RPA)

    P.J. Stephens et. al., J. Phys. Chem., 98, 11623-11627, 1994

    Points   =           5000
    Deriv    =              1
    GGA      =           TRUE
    Meta     =          FALSE

    X_LRC        =          FALSE
    X_Hybrid     =           TRUE
    X_Alpha      =   2.000000E-01
    X_Omega      =   0.000000E+00
    C_LRC        =          FALSE
    C_Hybrid     =          FALSE
    C_Alpha      =   0.000000E+00
    C_Omega      =   0.000000E+00

   => Exchange Functionals <=

    0.8000    B3_X
    0.2000      HF 

   => Correlation Functionals <=

    0.1900 VWN3RPA_C
    0.8100   LYP_C

   => Molecular Quadrature <=

    Radial Scheme    =       TREUTLER
    Pruning Scheme   =           FLAT
    Nuclear Scheme   =       TREUTLER

    BS radius alpha  =              1
    Pruning alpha    =              1
    Radial Points    =             75
    Spherical Points =            302
    Total Points     =         312804
    Total Blocks     =            267
    Max Points       =           4977
    Max Functions    =            106

  ==> Pre-Iterations <==

   -------------------------------------------------------
    Irrep   Nso     Nmo     Nalpha   Nbeta   Ndocc  Nsocc
   -------------------------------------------------------
     A        106     106       0       0       0       0
   -------------------------------------------------------
    Total     106     106      17      17      17       0
   -------------------------------------------------------

  ==> Integral Setup <==

  ==> DFJK: Density-Fitted J/K Matrices <==

    J tasked:                  Yes
    K tasked:                  Yes
    wK tasked:                  No
    OpenMP threads:              1
    Integrals threads:           1
    Memory (MB):               715
    Algorithm:                Core
    Integral Cache:           NONE
    Schwarz Cutoff:          1E-12
    Fitting Condition:       1E-12

   => Auxiliary Basis Set <=

  Basis Set: 
    Number of shells: 186
    Number of basis function: 510
    Number of Cartesian functions: 574
    Spherical Harmonics?: true
    Max angular momentum: 3

  Minimum eigenvalue in the overlap matrix is 4.6883587287E-03.
  Using Symmetric Orthogonalization.
  SCF Guess was Projection but file not found.
  Switching over to SAD guess.

  SCF Guess: Superposition of Atomic Densities via on-the-fly atomic UHF.

  ==> Iterations <==

                           Total Energy        Delta E     RMS |[F,P]|

   @DF-RKS iter   0:  -158.84999061015588   -1.58850e+02   3.19091e-02 
   @DF-RKS iter   1:  -158.27552210048617    5.74469e-01   5.30028e-03 
   @DF-RKS iter   2:  -158.18382230875699    9.16998e-02   6.58547e-03 DIIS
   @DF-RKS iter   3:  -158.45560827351463   -2.71786e-01   3.88014e-04 DIIS
   @DF-RKS iter   4:  -158.45648491562298   -8.76642e-04   1.21210e-04 DIIS
   @DF-RKS iter   5:  -158.45655884576442   -7.39301e-05   4.86366e-05 DIIS
   @DF-RKS iter   6:  -158.45657170748623   -1.28617e-05   7.68539e-06 DIIS
   @DF-RKS iter   7:  -158.45657207307505   -3.65589e-07   1.09937e-06 DIIS
   @DF-RKS iter   8:  -158.45657208109935   -8.02430e-09   2.23730e-07 DIIS
   @DF-RKS iter   9:  -158.45657208132033   -2.20979e-10   1.20839e-07 DIIS
   @DF-RKS iter  10:  -158.45657208140420   -8.38725e-11   1.23511e-08 DIIS
   @DF-RKS iter  11:  -158.45657208140565   -1.44951e-12   2.13292e-09 DIIS

  ==> Post-Iterations <==

    Orbital Energies (a.u.)
    -----------------------

    Doubly Occupied:                                                      

       1A    -10.180520     2A    -10.180357     3A    -10.175210  
       4A    -10.175198     5A     -0.789359     6A     -0.715973  
       7A     -0.638939     8A     -0.559587     9A     -0.455303  
      10A     -0.448053    11A     -0.411585    12A     -0.384064  
      13A     -0.376377    14A     -0.355820    15A     -0.323030  
      16A     -0.321652    17A     -0.316528  

    Virtual:                                                              

      18A      0.056363    19A      0.092478    20A      0.097769  
      21A      0.102861    22A      0.132303    23A      0.137731  
      24A      0.148005    25A      0.152290    26A      0.166437  
      27A      0.166570    28A      0.217161    29A      0.225568  
      30A      0.271817    31A      0.398836    32A      0.401393  
      33A      0.437586    34A      0.442269    35A      0.442494  
      36A      0.491154    37A      0.522936    38A      0.586299  
      39A      0.600736    40A      0.611936    41A      0.627364  
      42A      0.640760    43A      0.646856    44A      0.658943  
      45A      0.667375    46A      0.668005    47A      0.676354  
      48A      0.688075    49A      0.696847    50A      0.710344  
      51A      0.753421    52A      0.805418    53A      0.897194  
      54A      0.900752    55A      0.968676    56A      1.087780  
      57A      1.132908    58A      1.182960    59A      1.199947  
      60A      1.251064    61A      1.307805    62A      1.382059  
      63A      1.389799    64A      1.428695    65A      1.429287  
      66A      1.505406    67A      1.568499    68A      1.586331  
      69A      1.591124    70A      1.620282    71A      1.637363  
      72A      1.642914    73A      1.665140    74A      1.673790  
      75A      1.675008    76A      1.681822    77A      1.690753  
      78A      1.716937    79A      1.720185    80A      1.739287  
      81A      1.767184    82A      1.790217    83A      1.844832  
      84A      1.874589    85A      1.945539    86A      1.989605  
      87A      2.036399    88A      2.064992    89A      2.092395  
      90A      2.102387    91A      2.186531    92A      2.226690  
      93A      2.232745    94A      2.249507    95A      2.277264  
      96A      2.288206    97A      2.407097    98A      2.410197  
      99A      2.464786   100A      2.482167   101A      2.491826  
     102A      2.517231   103A      2.616513   104A      2.625797  
     105A      2.698368   106A      2.703016  

    Final Occupation by Irrep:
              A 
    DOCC [    17 ]

  Energy converged.

  @DF-RKS Final Energy:  -158.45657208140565

   => Energetics <=

    Nuclear Repulsion Energy =            131.8299758794790932
    One-Electron Energy =                -472.1596330268046700
    Two-Electron Energy =                 202.4570678151286245
    DFT Exchange-Correlation Energy =     -20.5839827492086904
    Empirical Dispersion Energy =           0.0000000000000000
    PCM Polarization Energy =               0.0000000000000000
    EFP Energy =                            0.0000000000000000
    Total Energy =                       -158.4565720814056533


  Saving occupied orbitals to File 180.

*** tstop() called on lski1497 at Tue Feb 21 18:51:43 2017
Module time:
	user time   =     121.42 seconds =       2.02 minutes
	system time =       1.58 seconds =       0.03 minutes
	total time  =        142 seconds =       2.37 minutes
Total time:
	user time   =     782.46 seconds =      13.04 minutes
	system time =      11.14 seconds =       0.19 minutes
	total time  =        921 seconds =      15.35 minutes


Properties will be evaluated at   0.000000,   0.000000,   0.000000 Bohr

Properties computed using the SCF density matrix

  Nuclear Dipole Moment: (a.u.)
     X:    -0.8485      Y:    -0.3468      Z:     0.1312

  Electronic Dipole Moment: (a.u.)
     X:     0.8680      Y:     0.3548      Z:    -0.1343

  Dipole Moment: (a.u.)
     X:     0.0195      Y:     0.0080      Z:    -0.0031     Total:     0.0213

  Dipole Moment: (Debye)
     X:     0.0496      Y:     0.0202      Z:    -0.0078     Total:     0.0541


*** tstart() called on lski1497
*** at Tue Feb 21 18:51:43 2017


         ------------------------------------------------------------
                                   SCF GRAD                          
                          Rob Parrish, Justin Turney,                
                       Andy Simmonett, and Alex Sokolov              
         ------------------------------------------------------------

  ==> Geometry <==

    Molecular point group: c1
    Full point group: C1

    Geometry (in Angstrom), charge = 0, multiplicity = 1:

       Center              X                  Y                   Z               Mass       
    ------------   -----------------  -----------------  -----------------  -----------------
           H         -1.826591573473     0.500536041114     0.202088361958     1.007825032070
           H         -1.506817108704     2.114633466279    -0.464320459619     1.007825032070
           H         -1.343167884524     0.677470825116    -1.501058046070     1.007825032070
           C         -1.172619604401     1.064802890249    -0.481361674580    12.000000000000
           H          0.908001716127     1.585349884622    -0.759608880949     1.007825032070
           H          0.426064390944     1.378647981784     0.932101583760     1.007825032070
           C          0.304187824672     0.957024899624    -0.082469793753    12.000000000000
           H          0.992558876765    -0.798788603707    -1.152123594104     1.007825032070
           H          1.902485464955    -0.436897855988     0.323545849532     1.007825032070
           C          0.884786914335    -0.471099672214    -0.101888033232    12.000000000000
           H          0.548611881447    -2.506238884579     0.612820632139     1.007825032070
           H         -0.949680095382    -1.635162985651     0.228388017010     1.007825032070
           H         -0.056614809735    -1.249500153910     1.718109458037     1.007825032070
           C          0.059664195614    -1.519657687846     0.653966336604    12.000000000000

  Nuclear repulsion =  131.829975879479093

  ==> Basis Set <==

  Basis Set: CC-PVDZ
    Number of shells: 54
    Number of basis function: 106
    Number of Cartesian functions: 110
    Spherical Harmonics?: true
    Max angular momentum: 2

  ==> DFJKGrad: Density-Fitted SCF Gradients <==

    Gradient:                    1
    J tasked:                  Yes
    K tasked:                  Yes
    wK tasked:                  No
    OpenMP threads:              1
    Integrals threads:           1
    Memory (MB):               715
    Schwarz Cutoff:          0E+00
    Fitting Condition:       1E-12

   => Auxiliary Basis Set <=

  Basis Set: 
    Number of shells: 186
    Number of basis function: 510
    Number of Cartesian functions: 574
    Spherical Harmonics?: true
    Max angular momentum: 3

