    -----------------------------------------------------------------------
          Psi4: An Open-Source Ab Initio Electronic Structure Package
                              Psi4 1.0.0 Driver

                          Git: Rev {master} 6a9a71b 

    J. M. Turney, A. C. Simmonett, R. M. Parrish, E. G. Hohenstein,
    F. A. Evangelista, J. T. Fermann, B. J. Mintz, L. A. Burns, J. J. Wilke,
    M. L. Abrams, N. J. Russ, M. L. Leininger, C. L. Janssen, E. T. Seidl,
    W. D. Allen, H. F. Schaefer, R. A. King, E. F. Valeev, C. D. Sherrill,
    and T. D. Crawford, WIREs Comput. Mol. Sci. 2, 556-565 (2012)
    (doi: 10.1002/wcms.93)

                         Additional Contributions by
    A. E. DePrince, U. Bozkaya, A. Yu. Sokolov, D. G. A. Smith, R. Di Remigio,
    R. M. Richard, J. F. Gonthier, H. R. McAlexander, M. Saitow, and
    B. P. Pritchard
    -----------------------------------------------------------------------


    Psi4 started on: Mon Feb 20 17:21:31 2017

    Process ID:  28000
    PSI4DATADIR: /Users/sternc1/anaconda/share/psi4
    Memory level set to 256.000 MB

  ==> Input File <==

--------------------------------------------------------------------------

memory 1000 mb

molecule butane {
  symmetry C1
  0 1 
  H      1.604   0.760   -8.260
  H      1.745   2.388   -8.880
  H      2.043   1.024   -9.930
  C      2.142   1.395   -8.932
  H      4.169   2.051   -9.210
  H      3.731   1.788   -7.539
  C      3.631   1.416   -8.537
  H      5.189   0.020   -9.025
  H      4.242   -0.433   -7.629
  C      4.203   -0.012   -8.612
  H      3.698   -1.873   -9.558
  H      3.260   -0.461   -10.489
  H      2.313   -0.914   -9.093
  C      3.300   -0.881   -9.506
  units Angstrom
}

dih_string = "4 7 10 14 20"
set optking fixed_dihedral = $dih_string

optimize('MP2/6-31G(d)')
--------------------------------------------------------------------------

  Memory set to 1000.000 MiB by Python script.
gradient() will perform analytic gradient computation.
    SCF Algorithm Type (re)set to DF.

*** tstart() called on lski1497
*** at Mon Feb 20 17:21:33 2017


         ---------------------------------------------------------
                                   SCF
            by Justin Turney, Rob Parrish, and Andy Simmonett
                              RHF Reference
                        1 Threads,   1000 MiB Core
         ---------------------------------------------------------

  ==> Geometry <==

    Molecular point group: c1
    Full point group: C1

    Geometry (in Angstrom), charge = 0, multiplicity = 1:

       Center              X                  Y                   Z               Mass       
    ------------   -----------------  -----------------  -----------------  -----------------
           H         -1.694245952974     0.288222032547     0.647951285414     1.007825032070
           H         -1.553245952974     1.916222032547     0.027951285414     1.007825032070
           H         -1.255245952974     0.552222032547    -1.022048714586     1.007825032070
           C         -1.156245952974     0.923222032547    -0.024048714586    12.000000000000
           H          0.870754047026     1.579222032547    -0.302048714586     1.007825032070
           H          0.432754047026     1.316222032547     1.368951285414     1.007825032070
           C          0.332754047026     0.944222032547     0.370951285414    12.000000000000
           H          1.890754047026    -0.451777967453    -0.117048714586     1.007825032070
           H          0.943754047026    -0.904777967453     1.278951285414     1.007825032070
           C          0.904754047026    -0.483777967453     0.295951285414    12.000000000000
           H          0.399754047026    -2.344777967453    -0.650048714586     1.007825032070
           H         -0.038245952974    -0.932777967453    -1.581048714586     1.007825032070
           H         -0.985245952974    -1.385777967453    -0.185048714586     1.007825032070
           C          0.001754047026    -1.352777967453    -0.598048714586    12.000000000000

  Running in c1 symmetry.

  Rotational constants: A =      0.38128  B =      0.20637  C =      0.14976 [cm^-1]
  Rotational constants: A =  11430.59635  B =   6186.68213  C =   4489.73113 [MHz]
  Nuclear repulsion =  136.318242238261377

  Charge       = 0
  Multiplicity = 1
  Electrons    = 34
  Nalpha       = 17
  Nbeta        = 17

  ==> Algorithm <==

  SCF Algorithm Type is DF.
  DIIS enabled.
  MOM disabled.
  Fractional occupation disabled.
  Guess Type is SAD.
  Energy threshold   = 1.00e-10
  Density threshold  = 1.00e-10
  Integral threshold = 0.00e+00

  ==> Primary Basis <==

  Basis Set: 6-31G(D)
    Number of shells: 44
    Number of basis function: 80
    Number of Cartesian functions: 80
    Spherical Harmonics?: false
    Max angular momentum: 2

  ==> Pre-Iterations <==

   -------------------------------------------------------
    Irrep   Nso     Nmo     Nalpha   Nbeta   Ndocc  Nsocc
   -------------------------------------------------------
     A         80      80       0       0       0       0
   -------------------------------------------------------
    Total      80      80      17      17      17       0
   -------------------------------------------------------

  ==> Integral Setup <==

  ==> DFJK: Density-Fitted J/K Matrices <==

    J tasked:                  Yes
    K tasked:                  Yes
    wK tasked:                  No
    OpenMP threads:              1
    Integrals threads:           1
    Memory (MB):               715
    Algorithm:                Core
    Integral Cache:           NONE
    Schwarz Cutoff:          1E-12
    Fitting Condition:       1E-12

   => Auxiliary Basis Set <=

  Basis Set: 
    Number of shells: 186
    Number of basis function: 574
    Number of Cartesian functions: 574
    Spherical Harmonics?: false
    Max angular momentum: 3

  Minimum eigenvalue in the overlap matrix is 3.8225402540E-03.
  Using Symmetric Orthogonalization.
  SCF Guess: Superposition of Atomic Densities via on-the-fly atomic UHF.

  ==> Iterations <==

                           Total Energy        Delta E     RMS |[F,P]|

   @DF-RHF iter   0:  -158.95017588144870   -1.58950e+02   4.70110e-02 
   @DF-RHF iter   1:  -157.17684696467089    1.77333e+00   4.27641e-03 
   @DF-RHF iter   2:  -157.26654474637721   -8.96978e-02   1.28446e-03 DIIS
   @DF-RHF iter   3:  -157.27569561101862   -9.15086e-03   4.94910e-04 DIIS
   @DF-RHF iter   4:  -157.27684511204060   -1.14950e-03   8.62336e-05 DIIS
   @DF-RHF iter   5:  -157.27689852731774   -5.34153e-05   1.68854e-05 DIIS
   @DF-RHF iter   6:  -157.27690064765355   -2.12034e-06   3.94570e-06 DIIS
   @DF-RHF iter   7:  -157.27690072896652   -8.13130e-08   1.05533e-06 DIIS
   @DF-RHF iter   8:  -157.27690073613675   -7.17023e-09   2.36038e-07 DIIS
   @DF-RHF iter   9:  -157.27690073658712   -4.50370e-10   6.48492e-08 DIIS
   @DF-RHF iter  10:  -157.27690073662100   -3.38787e-11   1.75974e-08 DIIS
   @DF-RHF iter  11:  -157.27690073662282   -1.81899e-12   4.23541e-09 DIIS
   @DF-RHF iter  12:  -157.27690073662305   -2.27374e-13   9.67500e-10 DIIS
   @DF-RHF iter  13:  -157.27690073662288    1.70530e-13   1.67330e-10 DIIS
   @DF-RHF iter  14:  -157.27690073662265    2.27374e-13   3.54305e-11 DIIS

  ==> Post-Iterations <==

    Orbital Energies (a.u.)
    -----------------------

    Doubly Occupied:                                                      

       1A    -11.206976     2A    -11.206393     3A    -11.198257  
       4A    -11.198205     5A     -1.077452     6A     -0.967012  
       7A     -0.888456     8A     -0.771297     9A     -0.647948  
      10A     -0.627733    11A     -0.566599    12A     -0.539979  
      13A     -0.530855    14A     -0.511006    15A     -0.458280  
      16A     -0.454894    17A     -0.451835  

    Virtual:                                                              

      18A      0.230999    19A      0.276631    20A      0.284299  
      21A      0.306462    22A      0.309249    23A      0.316418  
      24A      0.357781    25A      0.361889    26A      0.372438  
      27A      0.378864    28A      0.423448    29A      0.428837  
      30A      0.474345    31A      0.711108    32A      0.734990  
      33A      0.759737    34A      0.779937    35A      0.787110  
      36A      0.812410    37A      0.854923    38A      0.931382  
      39A      0.939516    40A      1.004341    41A      1.127142  
      42A      1.151894    43A      1.166942    44A      1.188947  
      45A      1.198468    46A      1.208091    47A      1.213966  
      48A      1.217843    49A      1.230545    50A      1.271744  
      51A      1.276694    52A      1.295484    53A      1.333865  
      54A      1.643844    55A      1.648425    56A      1.716061  
      57A      1.756061    58A      1.941905    59A      2.079000  
      60A      2.101546    61A      2.170247    62A      2.297600  
      63A      2.300545    64A      2.324822    65A      2.369705  
      66A      2.438809    67A      2.530865    68A      2.589515  
      69A      2.658027    70A      2.698572    71A      2.736539  
      72A      2.753433    73A      2.822838    74A      2.918671  
      75A      2.973082    76A      3.100567    77A      4.593279  
      78A      4.703497    79A      4.786077    80A      4.999961  

    Final Occupation by Irrep:
              A 
    DOCC [    17 ]

  Energy converged.

  @DF-RHF Final Energy:  -157.27690073662265

   => Energetics <=

    Nuclear Repulsion Energy =            136.3182422382613765
    One-Electron Energy =                -480.5839352738833554
    Two-Electron Energy =                 186.9887922989993285
    DFT Exchange-Correlation Energy =       0.0000000000000000
    Empirical Dispersion Energy =           0.0000000000000000
    PCM Polarization Energy =               0.0000000000000000
    EFP Energy =                            0.0000000000000000
    Total Energy =                       -157.2769007366226788


  Saving occupied orbitals to File 180.

*** tstop() called on lski1497 at Mon Feb 20 17:21:40 2017
Module time:
	user time   =       4.93 seconds =       0.08 minutes
	system time =       0.16 seconds =       0.00 minutes
	total time  =          7 seconds =       0.12 minutes
Total time:
	user time   =       4.93 seconds =       0.08 minutes
	system time =       0.16 seconds =       0.00 minutes
	total time  =          7 seconds =       0.12 minutes


Properties will be evaluated at   0.000000,   0.000000,   0.000000 Bohr

Properties computed using the SCF density matrix

  Nuclear Dipole Moment: (a.u.)
     X:    -0.9267      Y:    -0.3448      Z:    -0.5001

  Electronic Dipole Moment: (a.u.)
     X:     0.9552      Y:     0.3550      Z:     0.5151

  Dipole Moment: (a.u.)
     X:     0.0285      Y:     0.0102      Z:     0.0150     Total:     0.0338

  Dipole Moment: (Debye)
     X:     0.0725      Y:     0.0259      Z:     0.0381     Total:     0.0859


  //>>>>>>>>>>>>>>>>>>>>>>>>>>>>>>>>>>>//
  //               DFMP2               //
  //<<<<<<<<<<<<<<<<<<<<<<<<<<<<<<<<<<<//


*** tstart() called on lski1497
*** at Mon Feb 20 17:21:40 2017


*** tstop() called on lski1497 at Mon Feb 20 17:21:40 2017
Module time:
	user time   =       0.54 seconds =       0.01 minutes
	system time =       0.00 seconds =       0.00 minutes
	total time  =          0 seconds =       0.00 minutes
Total time:
	user time   =       5.49 seconds =       0.09 minutes
	system time =       0.16 seconds =       0.00 minutes
	total time  =          7 seconds =       0.12 minutes
	 --------------------------------------------------------
	                          DF-MP2                         
	      2nd-Order Density-Fitted Moller-Plesset Theory     
	              RMP2 Wavefunction,   1 Threads             
	                                                         
	        Rob Parrish, Justin Turney, Andy Simmonett,      
	           Ed Hohenstein, and C. David Sherrill          
	 --------------------------------------------------------

   => Auxiliary Basis Set <=

  Basis Set: 
    Number of shells: 132
    Number of basis function: 364
    Number of Cartesian functions: 414
    Spherical Harmonics?: true
    Max angular momentum: 3

	 --------------------------------------------------------
	                 NBF =    80, NAUX =   364
	 --------------------------------------------------------
	   CLASS    FOCC     OCC    AOCC    AVIR     VIR    FVIR
	   PAIRS       0      17      17      63      63       0
	 --------------------------------------------------------

DGAS Warning! /src/lib/libfock/apps.cc:80 is not currently checking restricted

         ------------------------------------------------------------
                                     CPHF                           
                                  Rob Parrish                       
         ------------------------------------------------------------

  ==> Geometry <==

    Molecular point group: c1
    Full point group: C1

    Geometry (in Angstrom), charge = 0, multiplicity = 1:

       Center              X                  Y                   Z               Mass       
    ------------   -----------------  -----------------  -----------------  -----------------
           H         -1.694245952974     0.288222032547     0.647951285414     1.007825032070
           H         -1.553245952974     1.916222032547     0.027951285414     1.007825032070
           H         -1.255245952974     0.552222032547    -1.022048714586     1.007825032070
           C         -1.156245952974     0.923222032547    -0.024048714586    12.000000000000
           H          0.870754047026     1.579222032547    -0.302048714586     1.007825032070
           H          0.432754047026     1.316222032547     1.368951285414     1.007825032070
           C          0.332754047026     0.944222032547     0.370951285414    12.000000000000
           H          1.890754047026    -0.451777967453    -0.117048714586     1.007825032070
           H          0.943754047026    -0.904777967453     1.278951285414     1.007825032070
           C          0.904754047026    -0.483777967453     0.295951285414    12.000000000000
           H          0.399754047026    -2.344777967453    -0.650048714586     1.007825032070
           H         -0.038245952974    -0.932777967453    -1.581048714586     1.007825032070
           H         -0.985245952974    -1.385777967453    -0.185048714586     1.007825032070
           C          0.001754047026    -1.352777967453    -0.598048714586    12.000000000000

  Nuclear repulsion =  136.318242238261377
  Reference energy  = -157.276900736622650

  ==> Basis Set <==

  Basis Set: 6-31G(D)
    Number of shells: 44
    Number of basis function: 80
    Number of Cartesian functions: 80
    Spherical Harmonics?: false
    Max angular momentum: 2

  ==> CGRSolver (by Rob Parrish) <==

   Number of roots    =         1
   Preconditioning    =    JACOBI
   Convergence cutoff =     1E-06
   Maximum iterations =       100

  ==> CPHFRHamiltonian (by Rob Parrish) <== 

  ==> DFJK: Density-Fitted J/K Matrices <==

    J tasked:                  Yes
    K tasked:                  Yes
    wK tasked:                  No
    OpenMP threads:              1
    Integrals threads:           1
    Memory (MB):               715
    Algorithm:                Core
    Integral Cache:           NONE
    Schwarz Cutoff:          1E-12
    Fitting Condition:       1E-12

   => Auxiliary Basis Set <=

  Basis Set: 
    Number of shells: 186
    Number of basis function: 574
    Number of Cartesian functions: 574
    Spherical Harmonics?: false
    Max angular momentum: 3

  ==> CPHF Iterations <==

  => Iterations <=

             Iter  Converged  Remaining    Residual
  CGR           1          0          1   7.614E-02
  CGR           2          0          1   8.723E-03
  CGR           3          0          1   2.167E-03
  CGR           4          0          1   4.266E-04
  CGR           5          0          1   7.869E-05
  CGR           6          0          1   1.441E-05
  CGR           7          0          1   2.076E-06
  CGR           8          1          0   5.330E-07

    CGRSolver converged.

  ==> DFCorrGrad: Density-Fitted Correlated Gradients <==

    OpenMP threads:              1
    Integrals threads:           1
    Memory (MB):               715
    Schwarz Cutoff:          0E+00
    Fitting Condition:       1E-12

   => Auxiliary Basis Set <=

  Basis Set: 
    Number of shells: 186
    Number of basis function: 510
    Number of Cartesian functions: 574
    Spherical Harmonics?: true
    Max angular momentum: 3

	-----------------------------------------------------------
	 ==================> DF-MP2 Energies <==================== 
	-----------------------------------------------------------
	 Reference Energy          =    -157.2769007366226504 [Eh]
	 Singles Energy            =      -0.0000000000000000 [Eh]
	 Same-Spin Energy          =      -0.1254363534205614 [Eh]
	 Opposite-Spin Energy      =      -0.4216355044594841 [Eh]
	 Correlation Energy        =      -0.5470718578800455 [Eh]
	 Total Energy              =    -157.8239725945026919 [Eh]
	-----------------------------------------------------------
	 ================> DF-SCS-MP2 Energies <================== 
	-----------------------------------------------------------
	 SCS Same-Spin Scale       =       0.3333333333333333 [-]
	 SCS Opposite-Spin Scale   =       1.2000000000000000 [-]
	 SCS Same-Spin Energy      =      -0.0418121178068538 [Eh]
	 SCS Opposite-Spin Energy  =      -0.5059626053513809 [Eh]
	 SCS Correlation Energy    =      -0.5477747231582347 [Eh]
	 SCS Total Energy          =    -157.8246754597808774 [Eh]
	-----------------------------------------------------------


  -Total Gradient:
     Atom            X                  Y                   Z
    ------   -----------------  -----------------  -----------------
       1        0.012222900871     0.005741106767    -0.009155013630
       2        0.009071082567    -0.014439213250    -0.000618329972
       3        0.007202740818    -0.000702091773     0.011246698081
       4       -0.023112758941    -0.016453661349    -0.010525303907
       5       -0.007645781715    -0.012737077358     0.008714504815
       6       -0.003601624015    -0.010717395714    -0.013878421232
       7        0.018805990021     0.022643456680     0.008464777500
       8       -0.017720028957     0.002759106937     0.002567009081
       9       -0.003090966254     0.008744045625    -0.014724732946
      10        0.025640564422    -0.006356156573     0.015417207528
      11       -0.004464464794     0.016615790603     0.003165092582
      12        0.000878508076    -0.000879967887     0.016269755787
      13        0.010188700617     0.007526970573    -0.001211032230
      14       -0.024374862717    -0.001744913279    -0.015732211457


			-----------------------------------------
			 OPTKING 2.0: for geometry optimizations 
			  - R.A. King,  Bethel University        
			-----------------------------------------

	Previous internal coordinate definitions found.
	---Fragment 1 Geometry and Gradient---
	 H          -3.2016608529        0.5446607070        1.2244504769
	 H          -2.9352094681        3.6211348513        0.0528202745
	 H          -2.3720710805        1.0435484061       -1.9313921650
	 C          -2.1849881934        1.7446368014       -0.0454454844
	 H           1.6454866780        2.9842971445       -0.5707893494
	 H           0.8177866318        2.4872991716        2.5869430187
	 C           0.6288140185        1.7843210502        0.7009963381
	 H           3.5730073335       -0.8537366314       -0.2211900148
	 H           1.7834366857       -1.7097825696        2.4168676667
	 C           1.7097373665       -0.9142078676        0.5592668781
	 H           0.7554256694       -4.4309882009       -1.2284140436
	 H          -0.0722743768       -1.7626949013       -2.9877490733
	 H          -1.8618450247       -2.6187408395       -0.3496913918
	 C           0.0033146685       -2.5563798771       -1.1301482847
	             0.0122229009        0.0057411068       -0.0091550136
	             0.0090710826       -0.0144392133       -0.0006183300
	             0.0072027408       -0.0007020918        0.0112466981
	            -0.0231127589       -0.0164536613       -0.0105253039
	            -0.0076457817       -0.0127370774        0.0087145048
	            -0.0036016240       -0.0107173957       -0.0138784212
	             0.0188059900        0.0226434567        0.0084647775
	            -0.0177200290        0.0027591069        0.0025670091
	            -0.0030909663        0.0087440456       -0.0147247329
	             0.0256405644       -0.0063561566        0.0154172075
	            -0.0044644648        0.0166157906        0.0031650926
	             0.0008785081       -0.0008799679        0.0162697558
	             0.0101887006        0.0075269706       -0.0012110322
	            -0.0243748627       -0.0017449133       -0.0157322115

	Previous optimization step data not found.  Starting new optimization.

	---Fragment 1 Intrafragment Coordinates---
	 - Coordinate -           - BOHR/RAD -       - ANG/DEG -
	 R(1,4)           =         2.021436	       1.069698
	 R(2,4)           =         2.023298	       1.070683
	 R(3,4)           =         2.020723	       1.069320
	 R(4,7)           =         2.911397	       1.540645
	 R(5,7)           =         2.022623	       1.070326
	 R(6,7)           =         2.021555	       1.069761
	 R(7,10)          =         2.910419	       1.540128
	 R(8,10)          =         2.021026	       1.069481
	 R(9,10)          =         2.022140	       1.070071
	 R(10,14)         =         2.909077	       1.539417
	 R(11,14)         =         2.022247	       1.070127
	 R(12,14)         =         2.021467	       1.069714
	 R(13,14)         =         2.022825	       1.070433
	 B(1,4,2)         =         1.910870	     109.484805
	 B(1,4,3)         =         1.911121	     109.499161
	 B(1,4,7)         =         1.910399	     109.457783
	 B(2,4,3)         =         1.910042	     109.437340
	 B(2,4,7)         =         1.910564	     109.467262
	 B(3,4,7)         =         1.910803	     109.480971
	 B(4,7,5)         =         1.909937	     109.431343
	 B(4,7,6)         =         1.911630	     109.528316
	 B(4,7,10)        =         1.911154	     109.501062
	 B(5,7,6)         =         1.910605	     109.469614
	 B(5,7,10)        =         1.910047	     109.437654
	 B(6,7,10)        =         1.910425	     109.459295
	 B(7,10,8)        =         1.910778	     109.479538
	 B(7,10,9)        =         1.910905	     109.486805
	 B(7,10,14)       =         1.911155	     109.501117
	 B(8,10,9)        =         1.910192	     109.445931
	 B(8,10,14)       =         1.910731	     109.476816
	 B(9,10,14)       =         1.910038	     109.437096
	 B(10,14,11)      =         1.910645	     109.471881
	 B(10,14,12)      =         1.911297	     109.509223
	 B(10,14,13)      =         1.911557	     109.524147
	 B(11,14,12)      =         1.910510	     109.464170
	 B(11,14,13)      =         1.910386	     109.457048
	 B(12,14,13)      =         1.909404	     109.400813
	 D(1,4,7,5)       =         3.140997	     179.965873
	 D(1,4,7,6)       =        -1.047644	     -60.025575
	 D(1,4,7,10)      =         1.047427	      60.013132
	 D(2,4,7,5)       =        -1.047689	     -60.028143
	 D(2,4,7,6)       =         1.046856	      59.980409
	 D(2,4,7,10)      =        -3.141259	    -179.980883
	 D(3,4,7,5)       =         1.046044	      59.933911
	 D(3,4,7,6)       =         3.140588	     179.942463
	 D(3,4,7,10)      =        -1.047526	     -60.018830
	 D(4,7,10,8)      =         2.444072	     140.034999
	 D(4,7,10,9)      =        -1.745004	     -99.981338
	 D(4,7,10,14)     =         0.349148	      20.004725
	 D(5,7,10,8)      =         0.350569	      20.086123
	 D(5,7,10,9)      =         2.444679	     140.069787
	 D(5,7,10,14)     =        -1.744354	     -99.944151
	 D(6,7,10,8)      =        -1.743306	     -99.884075
	 D(6,7,10,9)      =         0.350804	      20.099588
	 D(6,7,10,14)     =         2.444956	     140.085651
	 D(7,10,14,11)    =         3.141326	     179.984745
	 D(7,10,14,12)    =         1.046669	      59.969693
	 D(7,10,14,13)    =        -1.047194	     -59.999780
	 D(8,10,14,11)    =         1.046374	      59.952807
	 D(8,10,14,12)    =        -1.048284	     -60.062245
	 D(8,10,14,13)    =         3.141039	     179.968281
	 D(9,10,14,11)    =        -1.047176	     -59.998769
	 D(9,10,14,12)    =         3.141351	     179.986179
	 D(9,10,14,13)    =         1.047489	      60.016706

	Current energy   :      -157.8239725945

	Generating empirical Hessian (Schlegel '84) for each fragment.
	Adding user-defined constraint: Fragment 1; Coordinate 49:
		Value =     0.349148; Fixed value    =     0.349070
		Force =    -0.000039; Force constant =     0.500000
	Removing off-diagonal coupling between coordinate 49 and others.
	Taking RFO optimization step.
	Going to follow RFO solution 1.
	Using RFO vector 1.

	Determining step-restricting scale parameter for RS-RFO.
	Maximum step size allowed    0.10000

	 Iter      |step|        alpha        rfo_root  
	------------------------------------------------
	    0     0.47389       1.00000           1
	    1     0.31395       4.40973           1
	    2     0.20987      13.71729           1
	    3     0.14841      32.38887           1
	    4     0.11595      57.52980           1
	    5     0.10277      75.57433           1
	    6     0.10011      80.14393           1
	    7     0.10000      80.34280           1
	------------------------------------------------
	Norm of target step-size    0.10000
	Projected energy change by RFO approximation:        -0.0115827047

	Back-transformation to cartesian coordinates...
	Could not converge backtransformation.
	Using first guess instead.

	--- Internal Coordinate Step in ANG or DEG, aJ/ANG or AJ/DEG ---
	 ---------------------------------------------------------------------------
	   Coordinate                Previous        Force       Change         New 
	   ----------                --------       ------       ------       ------
	    1 R(1,4)          =      1.069698     0.126109     0.006523     1.076221
	    2 R(2,4)          =      1.070683     0.138288     0.008069     1.078752
	    3 R(3,4)          =      1.069320     0.089965     0.005377     1.074697
	    4 R(4,7)          =      1.540645     0.020846     0.003001     1.543646
	    5 R(5,7)          =      1.070326     0.139064     0.006798     1.077124
	    6 R(6,7)          =      1.069761     0.140149     0.007038     1.076799
	    7 R(7,10)         =      1.540128     0.245600     0.012858     1.552986
	    8 R(8,10)         =      1.069481     0.142082     0.007132     1.076613
	    9 R(9,10)         =      1.070071     0.140713     0.006877     1.076948
	   10 R(10,14)        =      1.539417     0.026108     0.003278     1.542696
	   11 R(11,14)        =      1.070127     0.141846     0.008238     1.078365
	   12 R(12,14)        =      1.069714     0.126293     0.006532     1.076247
	   13 R(13,14)        =      1.070433     0.083160     0.005053     1.075486
	   14 B(1,4,2)        =    109.484805    -0.000372    -0.235176   109.249628
	   15 B(1,4,3)        =    109.499161    -0.000289    -0.277394   109.221767
	   16 B(1,4,7)        =    109.457783     0.000395     0.265838   109.723621
	   17 B(2,4,3)        =    109.437340    -0.000437    -0.276582   109.160758
	   18 B(2,4,7)        =    109.467262     0.000056     0.048763   109.516025
	   19 B(3,4,7)        =    109.480971     0.000647     0.470604   109.951575
	   20 B(4,7,5)        =    109.431343    -0.001211    -0.798454   108.632889
	   21 B(4,7,6)        =    109.528316    -0.001450    -0.908403   108.619913
	   22 B(4,7,10)       =    109.501062     0.004513     2.929906   112.430968
	   23 B(5,7,6)        =    109.469614     0.000541     0.266590   109.736203
	   24 B(5,7,10)       =    109.437654    -0.001189    -0.739347   108.698307
	   25 B(6,7,10)       =    109.459295    -0.001204    -0.759477   108.699818
	   26 B(7,10,8)       =    109.479538    -0.001207    -0.762213   108.717325
	   27 B(7,10,9)       =    109.486805    -0.001194    -0.743254   108.743550
	   28 B(7,10,14)      =    109.501117     0.004518     2.932570   112.433687
	   29 B(8,10,9)       =    109.445931     0.000543     0.267768   109.713700
	   30 B(8,10,14)      =    109.476816    -0.001446    -0.904875   108.571941
	   31 B(9,10,14)      =    109.437096    -0.001215    -0.800239   108.636857
	   32 B(10,14,11)     =    109.471881     0.000061     0.052076   109.523957
	   33 B(10,14,12)     =    109.509223     0.000384     0.259382   109.768605
	   34 B(10,14,13)     =    109.524147     0.000643     0.469131   109.993278
	   35 B(11,14,12)     =    109.464170    -0.000369    -0.233725   109.230446
	   36 B(11,14,13)     =    109.457048    -0.000441    -0.280623   109.176425
	   37 B(12,14,13)     =    109.400813    -0.000280    -0.270944   109.129869
	   38 D(1,4,7,5)      =    179.965873     0.000146     0.407675   180.373548
	   39 D(1,4,7,6)      =    -60.025575    -0.000076    -0.282936   -60.308511
	   40 D(1,4,7,10)     =     60.013132     0.000017     0.015950    60.029082
	   41 D(2,4,7,5)      =    -60.028143     0.000105     0.312449   -59.715694
	   42 D(2,4,7,6)      =     59.980409    -0.000117    -0.378162    59.602247
	   43 D(2,4,7,10)     =   -179.980883    -0.000024    -0.079277  -180.060160
	   44 D(3,4,7,5)      =     59.933911     0.000081     0.292498    60.226409
	   45 D(3,4,7,6)      =    179.942463    -0.000141    -0.398113   179.544349
	   46 D(3,4,7,10)     =    -60.018830    -0.000048    -0.099228   -60.118057
	   47 D(4,7,10,8)     =    140.034999     0.000137     0.392898   140.427897
	   48 D(4,7,10,9)     =    -99.981338    -0.000048    -0.179621  -100.160958
	   49 D(4,7,10,14)    =     20.004725     0.000078     0.178311    20.183037
	   50 D(5,7,10,8)     =     20.086123     0.000011     0.035087    20.121210
	   51 D(5,7,10,9)     =    140.069787    -0.000174    -0.537432   139.532355
	   52 D(5,7,10,14)    =    -99.944151    -0.000048    -0.179500  -100.123651
	   53 D(6,7,10,8)     =    -99.884075     0.000195     0.603416   -99.280660
	   54 D(6,7,10,9)     =     20.099588     0.000010     0.030897    20.130485
	   55 D(6,7,10,14)    =    140.085651     0.000136     0.388829   140.474480
	   56 D(7,10,14,11)   =    179.984745    -0.000023    -0.078219   179.906526
	   57 D(7,10,14,12)   =     59.969693     0.000018     0.017036    59.986730
	   58 D(7,10,14,13)   =    -59.999780    -0.000048    -0.101555   -60.101335
	   59 D(8,10,14,11)   =     59.952807    -0.000116    -0.375130    59.577676
	   60 D(8,10,14,12)   =    -60.062245    -0.000075    -0.279875   -60.342120
	   61 D(8,10,14,13)   =    179.968281    -0.000141    -0.398466   179.569815
	   62 D(9,10,14,11)   =    -59.998769     0.000105     0.310871   -59.687897
	   63 D(9,10,14,12)   =    179.986179     0.000146     0.406127   180.392306
	   64 D(9,10,14,13)   =     60.016706     0.000080     0.287536    60.304241
	 ---------------------------------------------------------------------------
	 Forces used to impose fixed constraints are not included.
	  Forces zeroed: 49 

  ==> Convergence Check <==

  Measures of convergence in internal coordinates in au.
  Criteria marked as inactive (o), active & met (*), and active & unmet ( ).
  --------------------------------------------------------------------------------------------- ~
   Step     Total Energy     Delta E     MAX Force     RMS Force      MAX Disp      RMS Disp    ~
  --------------------------------------------------------------------------------------------- ~
    Convergence Criteria    1.00e-06 *    3.00e-04 *             o    1.20e-03 *             o  ~
  --------------------------------------------------------------------------------------------- ~
      1    -157.82397259   -1.58e+02      5.94e-02      1.48e-02 o    5.12e-02      1.27e-02 o  ~
  ---------------------------------------------------------------------------------------------

	Writing optimization data to binary file.
	Structure for next step:
	Cartesian Geometry (in Angstrom)
	    H    -1.7489090046   0.3709754679   0.6601053449
	    H    -1.5382706624   2.0124198560   0.0695464265
	    H    -1.3194310533   0.6515644783  -1.0166817789
	    C    -1.1831155100   0.9967721588  -0.0081069296
	    H     0.8607924478   1.5796466203  -0.3051129679
	    H     0.4255922604   1.3004629886   1.3788364346
	    C     0.3127268642   0.9432607394   0.3693000922
	    H     1.8871959674  -0.4398364881  -0.1327088620
	    H     0.9376458228  -0.9110016450   1.2735215655
	    C     0.8949575804  -0.4937779439   0.2815951446
	    H     0.4870784116  -2.4030844995  -0.6365066463
	    H    -0.0079339002  -1.0246477513  -1.6063390216
	    H    -0.9549379668  -1.4979757454  -0.2089260989
	    C     0.0411654011  -1.4216697805  -0.6072047073
			--------------------------
			 OPTKING Finished Execution 
			--------------------------

    Structure for next step:
    Molecular point group: c1
    Full point group: C1

    Geometry (in Angstrom), charge = 0, multiplicity = 1:

    H           -1.745638156275     0.372168396432     0.661850659214
    H           -1.534999814091     2.013612784483     0.071291740841
    H           -1.316160205052     0.652757406823    -1.014936464627
    C           -1.179844661747     0.997965087271    -0.006361615313
    H            0.864063296119     1.580839548787    -0.303367653627
    H            0.428863108720     1.301655917090     1.380581748865
    C            0.315997712519     0.944453667874     0.371045406455
    H            1.890466815691    -0.438643559557    -0.130963547662
    H            0.940916671061    -0.909808716462     1.275266879806
    C            0.898228428670    -0.492585015425     0.283340458948
    H            0.490349259844    -2.401891571046    -0.634761331982
    H           -0.004663051940    -1.023454822799    -1.604593707254
    H           -0.951667118540    -1.496782816881    -0.207180784598
    C            0.044436249392    -1.420476851970    -0.605459393025

gradient() will perform analytic gradient computation.
    SCF Algorithm Type (re)set to DF.

*** tstart() called on lski1497
*** at Mon Feb 20 17:22:02 2017


         ---------------------------------------------------------
                                   SCF
            by Justin Turney, Rob Parrish, and Andy Simmonett
                              RHF Reference
                        1 Threads,   1000 MiB Core
         ---------------------------------------------------------

  ==> Geometry <==

    Molecular point group: c1
    Full point group: C1

    Geometry (in Angstrom), charge = 0, multiplicity = 1:

       Center              X                  Y                   Z               Mass       
    ------------   -----------------  -----------------  -----------------  -----------------
           H         -1.745638156275     0.372168396432     0.661850659214     1.007825032070
           H         -1.534999814091     2.013612784483     0.071291740841     1.007825032070
           H         -1.316160205052     0.652757406823    -1.014936464627     1.007825032070
           C         -1.179844661747     0.997965087271    -0.006361615313    12.000000000000
           H          0.864063296119     1.580839548787    -0.303367653627     1.007825032070
           H          0.428863108720     1.301655917090     1.380581748865     1.007825032070
           C          0.315997712519     0.944453667874     0.371045406455    12.000000000000
           H          1.890466815691    -0.438643559557    -0.130963547662     1.007825032070
           H          0.940916671061    -0.909808716462     1.275266879806     1.007825032070
           C          0.898228428670    -0.492585015425     0.283340458948    12.000000000000
           H          0.490349259844    -2.401891571046    -0.634761331982     1.007825032070
           H         -0.004663051940    -1.023454822799    -1.604593707254     1.007825032070
           H         -0.951667118540    -1.496782816881    -0.207180784598     1.007825032070
           C          0.044436249392    -1.420476851970    -0.605459393025    12.000000000000

  Running in c1 symmetry.

  Rotational constants: A =      0.38933  B =      0.18981  C =      0.14199 [cm^-1]
  Rotational constants: A =  11671.75677  B =   5690.34205  C =   4256.78844 [MHz]
  Nuclear repulsion =  134.367281081994406

  Charge       = 0
  Multiplicity = 1
  Electrons    = 34
  Nalpha       = 17
  Nbeta        = 17

  ==> Algorithm <==

  SCF Algorithm Type is DF.
  DIIS enabled.
  MOM disabled.
  Fractional occupation disabled.
  Guess Type is READ.
  Energy threshold   = 1.00e-10
  Density threshold  = 1.00e-10
  Integral threshold = 0.00e+00

  ==> Primary Basis <==

  Basis Set: 6-31G(D)
    Number of shells: 44
    Number of basis function: 80
    Number of Cartesian functions: 80
    Spherical Harmonics?: false
    Max angular momentum: 2

  ==> Pre-Iterations <==

   -------------------------------------------------------
    Irrep   Nso     Nmo     Nalpha   Nbeta   Ndocc  Nsocc
   -------------------------------------------------------
     A         80      80       0       0       0       0
   -------------------------------------------------------
    Total      80      80      17      17      17       0
   -------------------------------------------------------

  ==> Integral Setup <==

  ==> DFJK: Density-Fitted J/K Matrices <==

    J tasked:                  Yes
    K tasked:                  Yes
    wK tasked:                  No
    OpenMP threads:              1
    Integrals threads:           1
    Memory (MB):               715
    Algorithm:                Core
    Integral Cache:           NONE
    Schwarz Cutoff:          1E-12
    Fitting Condition:       1E-12

   => Auxiliary Basis Set <=

  Basis Set: 
    Number of shells: 186
    Number of basis function: 574
    Number of Cartesian functions: 574
    Spherical Harmonics?: false
    Max angular momentum: 3

  Minimum eigenvalue in the overlap matrix is 4.1053881359E-03.
  Using Symmetric Orthogonalization.
  SCF Guess was Projection but file not found.
  Switching over to SAD guess.

  SCF Guess: Superposition of Atomic Densities via on-the-fly atomic UHF.

  ==> Iterations <==

                           Total Energy        Delta E     RMS |[F,P]|

   @DF-RHF iter   0:  -158.82043608457565   -1.58820e+02   4.60678e-02 
   @DF-RHF iter   1:  -157.18538920673353    1.63505e+00   4.26450e-03 
   @DF-RHF iter   2:  -157.27522363155566   -8.98344e-02   1.30627e-03 DIIS
   @DF-RHF iter   3:  -157.28450245399785   -9.27882e-03   5.09958e-04 DIIS
   @DF-RHF iter   4:  -157.28573553923110   -1.23309e-03   8.47102e-05 DIIS
   @DF-RHF iter   5:  -157.28578785313141   -5.23139e-05   1.60120e-05 DIIS
   @DF-RHF iter   6:  -157.28578977804830   -1.92492e-06   3.60329e-06 DIIS
   @DF-RHF iter   7:  -157.28578984337173   -6.53234e-08   9.63799e-07 DIIS
   @DF-RHF iter   8:  -157.28578984912315   -5.75142e-09   2.06881e-07 DIIS
   @DF-RHF iter   9:  -157.28578984946114   -3.37991e-10   5.84822e-08 DIIS
   @DF-RHF iter  10:  -157.28578984948837   -2.72280e-11   1.62462e-08 DIIS
   @DF-RHF iter  11:  -157.28578984948979   -1.42109e-12   3.84912e-09 DIIS
   @DF-RHF iter  12:  -157.28578984948979    0.00000e+00   8.56392e-10 DIIS
   @DF-RHF iter  13:  -157.28578984948967    1.13687e-13   1.59347e-10 DIIS
   @DF-RHF iter  14:  -157.28578984948967    0.00000e+00   5.00541e-11 DIIS

  ==> Post-Iterations <==

    Orbital Energies (a.u.)
    -----------------------

    Doubly Occupied:                                                      

       1A    -11.210677     2A    -11.210132     3A    -11.202703  
       4A    -11.202660     5A     -1.068925     6A     -0.970281  
       7A     -0.882106     8A     -0.770316     9A     -0.642951  
      10A     -0.618795    11A     -0.569296    12A     -0.533467  
      13A     -0.526874    14A     -0.517657    15A     -0.458276  
      16A     -0.453068    17A     -0.453041  

    Virtual:                                                              

      18A      0.227183    19A      0.277973    20A      0.284682  
      21A      0.302439    22A      0.306656    23A      0.314743  
      24A      0.353110    25A      0.361699    26A      0.363548  
      27A      0.374289    28A      0.413333    29A      0.424556  
      30A      0.476467    31A      0.711242    32A      0.732662  
      33A      0.743462    34A      0.780414    35A      0.791008  
      36A      0.809802    37A      0.858121    38A      0.919486  
      39A      0.940374    40A      1.004220    41A      1.118468  
      42A      1.138211    43A      1.163272    44A      1.170216  
      45A      1.184689    46A      1.197269    47A      1.199124  
      48A      1.212240    49A      1.224092    50A      1.261998  
      51A      1.265588    52A      1.287179    53A      1.321481  
      54A      1.636632    55A      1.641835    56A      1.717173  
      57A      1.720011    58A      1.935773    59A      2.062251  
      60A      2.079632    61A      2.168058    62A      2.280173  
      63A      2.291617    64A      2.320586    65A      2.363107  
      66A      2.429580    67A      2.525200    68A      2.582902  
      69A      2.654748    70A      2.684783    71A      2.714166  
      72A      2.740147    73A      2.800709    74A      2.908357  
      75A      2.976250    76A      3.087114    77A      4.564831  
      78A      4.706525    79A      4.775426    80A      4.989205  

    Final Occupation by Irrep:
              A 
    DOCC [    17 ]

  Energy converged.

  @DF-RHF Final Energy:  -157.28578984948967

   => Energetics <=

    Nuclear Repulsion Energy =            134.3672810819944061
    One-Electron Energy =                -476.7236890815894412
    Two-Electron Energy =                 185.0706181501052754
    DFT Exchange-Correlation Energy =       0.0000000000000000
    Empirical Dispersion Energy =           0.0000000000000000
    PCM Polarization Energy =               0.0000000000000000
    EFP Energy =                            0.0000000000000000
    Total Energy =                       -157.2857898494897597


  Saving occupied orbitals to File 180.

*** tstop() called on lski1497 at Mon Feb 20 17:22:09 2017
Module time:
	user time   =       4.98 seconds =       0.08 minutes
	system time =       0.14 seconds =       0.00 minutes
	total time  =          7 seconds =       0.12 minutes
Total time:
	user time   =      27.56 seconds =       0.46 minutes
	system time =       0.79 seconds =       0.01 minutes
	total time  =         36 seconds =       0.60 minutes


Properties will be evaluated at   0.000000,   0.000000,   0.000000 Bohr

Properties computed using the SCF density matrix

  Nuclear Dipole Moment: (a.u.)
     X:    -0.8798      Y:    -0.3277      Z:    -0.4751

  Electronic Dipole Moment: (a.u.)
     X:     0.9068      Y:     0.3375      Z:     0.4894

  Dipole Moment: (a.u.)
     X:     0.0271      Y:     0.0098      Z:     0.0143     Total:     0.0321

  Dipole Moment: (Debye)
     X:     0.0688      Y:     0.0249      Z:     0.0363     Total:     0.0816


  //>>>>>>>>>>>>>>>>>>>>>>>>>>>>>>>>>>>//
  //               DFMP2               //
  //<<<<<<<<<<<<<<<<<<<<<<<<<<<<<<<<<<<//


*** tstart() called on lski1497
*** at Mon Feb 20 17:22:09 2017


*** tstop() called on lski1497 at Mon Feb 20 17:22:10 2017
Module time:
	user time   =       0.51 seconds =       0.01 minutes
	system time =       0.01 seconds =       0.00 minutes
	total time  =          1 seconds =       0.02 minutes
Total time:
	user time   =      28.08 seconds =       0.47 minutes
	system time =       0.80 seconds =       0.01 minutes
	total time  =         37 seconds =       0.62 minutes
	 --------------------------------------------------------
	                          DF-MP2                         
	      2nd-Order Density-Fitted Moller-Plesset Theory     
	              RMP2 Wavefunction,   1 Threads             
	                                                         
	        Rob Parrish, Justin Turney, Andy Simmonett,      
	           Ed Hohenstein, and C. David Sherrill          
	 --------------------------------------------------------

   => Auxiliary Basis Set <=

  Basis Set: 
    Number of shells: 132
    Number of basis function: 364
    Number of Cartesian functions: 414
    Spherical Harmonics?: true
    Max angular momentum: 3

	 --------------------------------------------------------
	                 NBF =    80, NAUX =   364
	 --------------------------------------------------------
	   CLASS    FOCC     OCC    AOCC    AVIR     VIR    FVIR
	   PAIRS       0      17      17      63      63       0
	 --------------------------------------------------------

DGAS Warning! /src/lib/libfock/apps.cc:80 is not currently checking restricted

         ------------------------------------------------------------
                                     CPHF                           
                                  Rob Parrish                       
         ------------------------------------------------------------

  ==> Geometry <==

    Molecular point group: c1
    Full point group: C1

    Geometry (in Angstrom), charge = 0, multiplicity = 1:

       Center              X                  Y                   Z               Mass       
    ------------   -----------------  -----------------  -----------------  -----------------
           H         -1.745638156275     0.372168396432     0.661850659214     1.007825032070
           H         -1.534999814091     2.013612784483     0.071291740841     1.007825032070
           H         -1.316160205052     0.652757406823    -1.014936464627     1.007825032070
           C         -1.179844661747     0.997965087271    -0.006361615313    12.000000000000
           H          0.864063296119     1.580839548787    -0.303367653627     1.007825032070
           H          0.428863108720     1.301655917090     1.380581748865     1.007825032070
           C          0.315997712519     0.944453667874     0.371045406455    12.000000000000
           H          1.890466815691    -0.438643559557    -0.130963547662     1.007825032070
           H          0.940916671061    -0.909808716462     1.275266879806     1.007825032070
           C          0.898228428670    -0.492585015425     0.283340458948    12.000000000000
           H          0.490349259844    -2.401891571046    -0.634761331982     1.007825032070
           H         -0.004663051940    -1.023454822799    -1.604593707254     1.007825032070
           H         -0.951667118540    -1.496782816881    -0.207180784598     1.007825032070
           C          0.044436249392    -1.420476851970    -0.605459393025    12.000000000000

  Nuclear repulsion =  134.367281081994406
  Reference energy  = -157.285789849489674

  ==> Basis Set <==

  Basis Set: 6-31G(D)
    Number of shells: 44
    Number of basis function: 80
    Number of Cartesian functions: 80
    Spherical Harmonics?: false
    Max angular momentum: 2

  ==> CGRSolver (by Rob Parrish) <==

   Number of roots    =         1
   Preconditioning    =    JACOBI
   Convergence cutoff =     1E-06
   Maximum iterations =       100

  ==> CPHFRHamiltonian (by Rob Parrish) <== 

  ==> DFJK: Density-Fitted J/K Matrices <==

    J tasked:                  Yes
    K tasked:                  Yes
    wK tasked:                  No
    OpenMP threads:              1
    Integrals threads:           1
    Memory (MB):               715
    Algorithm:                Core
    Integral Cache:           NONE
    Schwarz Cutoff:          1E-12
    Fitting Condition:       1E-12

   => Auxiliary Basis Set <=

  Basis Set: 
    Number of shells: 186
    Number of basis function: 574
    Number of Cartesian functions: 574
    Spherical Harmonics?: false
    Max angular momentum: 3

  ==> CPHF Iterations <==

  => Iterations <=

             Iter  Converged  Remaining    Residual
  CGR           1          0          1   7.484E-02
  CGR           2          0          1   8.604E-03
  CGR           3          0          1   2.183E-03
  CGR           4          0          1   4.282E-04
  CGR           5          0          1   7.525E-05
  CGR           6          0          1   1.366E-05
  CGR           7          0          1   1.772E-06
  CGR           8          1          0   4.458E-07

    CGRSolver converged.

  ==> DFCorrGrad: Density-Fitted Correlated Gradients <==

    OpenMP threads:              1
    Integrals threads:           1
    Memory (MB):               715
    Schwarz Cutoff:          0E+00
    Fitting Condition:       1E-12

   => Auxiliary Basis Set <=

  Basis Set: 
    Number of shells: 186
    Number of basis function: 510
    Number of Cartesian functions: 574
    Spherical Harmonics?: true
    Max angular momentum: 3

	-----------------------------------------------------------
	 ==================> DF-MP2 Energies <==================== 
	-----------------------------------------------------------
	 Reference Energy          =    -157.2857898494896745 [Eh]
	 Singles Energy            =      -0.0000000000000000 [Eh]
	 Same-Spin Energy          =      -0.1246905957158136 [Eh]
	 Opposite-Spin Energy      =      -0.4216570391986845 [Eh]
	 Correlation Energy        =      -0.5463476349144981 [Eh]
	 Total Energy              =    -157.8321374844041713 [Eh]
	-----------------------------------------------------------
	 ================> DF-SCS-MP2 Energies <================== 
	-----------------------------------------------------------
	 SCS Same-Spin Scale       =       0.3333333333333333 [-]
	 SCS Opposite-Spin Scale   =       1.2000000000000000 [-]
	 SCS Same-Spin Energy      =      -0.0415635319052712 [Eh]
	 SCS Opposite-Spin Energy  =      -0.5059884470384214 [Eh]
	 SCS Correlation Energy    =      -0.5475519789436926 [Eh]
	 SCS Total Energy          =    -157.8333418284333618 [Eh]
	-----------------------------------------------------------


  -Total Gradient:
     Atom            X                  Y                   Z
    ------   -----------------  -----------------  -----------------
       1        0.009321006736     0.004621886795    -0.006119771432
       2        0.005639295020    -0.008788849353    -0.000505889644
       3        0.005071430213     0.001191562776     0.009623224236
       4       -0.022136755863    -0.005675453493    -0.008846526272
       5       -0.005881483498    -0.010104710482     0.004539426154
       6       -0.004502655440    -0.008731419028    -0.008875789559
       7        0.015484279062     0.020658612885     0.009233638684
       8       -0.013197597546     0.002104176857    -0.000552256469
       9       -0.004158299591     0.006347239311    -0.010113470498
      10        0.023841573726    -0.006177235210     0.011932804308
      11       -0.002783534766     0.010160327002     0.002076548162
      12        0.001422297886    -0.000633867450     0.011958847307
      13        0.009341730226     0.004397981166    -0.001437712075
      14       -0.017461286165    -0.009370251776    -0.012913072902


			-----------------------------------------
			 OPTKING 2.0: for geometry optimizations 
			  - R.A. King,  Bethel University        
			-----------------------------------------

	Previous internal coordinate definitions found.
	---Fragment 1 Geometry and Gradient---
	 H          -3.2987780425        0.7032963446        1.2507164868
	 H          -2.9007292627        3.8051767004        0.1347218657
	 H          -2.4871823346        1.2335327301       -1.9179519604
	 C          -2.2295832900        1.8858807051       -0.0120217107
	 H           1.6328429911        2.9873538072       -0.5732817829
	 H           0.8104338240        2.4597732026        2.6089214094
	 C           0.5971491353        1.7847587775        0.7011742011
	 H           3.5724645450       -0.8289161975       -0.2474852385
	 H           1.7780748222       -1.7192893074        2.4099051492
	 C           1.6974057350       -0.9308507763        0.5354358698
	 H           0.9266258106       -4.5389172702       -1.1995250772
	 H          -0.0088118911       -1.9340493245       -3.0322426613
	 H          -1.7983902237       -2.8285096043       -0.3915149429
	 C           0.0839723417       -2.6843122283       -1.1441524374
	             0.0093210067        0.0046218868       -0.0061197714
	             0.0056392950       -0.0087888494       -0.0005058896
	             0.0050714302        0.0011915628        0.0096232242
	            -0.0221367559       -0.0056754535       -0.0088465263
	            -0.0058814835       -0.0101047105        0.0045394262
	            -0.0045026554       -0.0087314190       -0.0088757896
	             0.0154842791        0.0206586129        0.0092336387
	            -0.0131975975        0.0021041769       -0.0005522565
	            -0.0041582996        0.0063472393       -0.0101134705
	             0.0238415737       -0.0061772352        0.0119328043
	            -0.0027835348        0.0101603270        0.0020765482
	             0.0014222979       -0.0006338675        0.0119588473
	             0.0093417302        0.0043979812       -0.0014377121
	            -0.0174612862       -0.0093702518       -0.0129130729

	---Fragment 1 Intrafragment Coordinates---
	 - Coordinate -           - BOHR/RAD -       - ANG/DEG -
	 R(1,4)           =         2.033763	       1.076221
	 R(2,4)           =         2.038545	       1.078752
	 R(3,4)           =         2.030883	       1.074697
	 R(4,7)           =         2.917069	       1.543646
	 R(5,7)           =         2.035469	       1.077124
	 R(6,7)           =         2.034855	       1.076799
	 R(7,10)          =         2.934718	       1.552986
	 R(8,10)          =         2.034503	       1.076613
	 R(9,10)          =         2.035136	       1.076948
	 R(10,14)         =         2.915272	       1.542696
	 R(11,14)         =         2.037815	       1.078365
	 R(12,14)         =         2.033811	       1.076247
	 R(13,14)         =         2.032374	       1.075486
	 B(1,4,2)         =         1.906766	     109.249628
	 B(1,4,3)         =         1.906279	     109.221767
	 B(1,4,7)         =         1.915038	     109.723621
	 B(2,4,3)         =         1.905215	     109.160758
	 B(2,4,7)         =         1.911415	     109.516025
	 B(3,4,7)         =         1.919017	     109.951575
	 B(4,7,5)         =         1.896002	     108.632889
	 B(4,7,6)         =         1.895775	     108.619913
	 B(4,7,10)        =         1.962291	     112.430968
	 B(5,7,6)         =         1.915258	     109.736203
	 B(5,7,10)        =         1.897143	     108.698307
	 B(6,7,10)        =         1.897170	     108.699818
	 B(7,10,8)        =         1.897475	     108.717325
	 B(7,10,9)        =         1.897933	     108.743550
	 B(7,10,14)       =         1.962338	     112.433687
	 B(8,10,9)        =         1.914865	     109.713700
	 B(8,10,14)       =         1.894938	     108.571941
	 B(9,10,14)       =         1.896071	     108.636857
	 B(10,14,11)      =         1.911554	     109.523957
	 B(10,14,12)      =         1.915824	     109.768605
	 B(10,14,13)      =         1.919745	     109.993278
	 B(11,14,12)      =         1.906431	     109.230446
	 B(11,14,13)      =         1.905488	     109.176425
	 B(12,14,13)      =         1.904676	     109.129869
	 D(1,4,7,5)       =        -3.135073	    -179.626452
	 D(1,4,7,6)       =        -1.052582	     -60.308511
	 D(1,4,7,10)      =         1.047705	      60.029082
	 D(2,4,7,5)       =        -1.042235	     -59.715694
	 D(2,4,7,6)       =         1.040255	      59.602247
	 D(2,4,7,10)      =         3.140543	     179.939840
	 D(3,4,7,5)       =         1.051149	      60.226409
	 D(3,4,7,6)       =         3.133640	     179.544349
	 D(3,4,7,10)      =        -1.049258	     -60.118057
	 D(4,7,10,8)      =         2.450929	     140.427897
	 D(4,7,10,9)      =        -1.748139	    -100.160958
	 D(4,7,10,14)     =         0.352260	      20.183037
	 D(5,7,10,8)      =         0.351181	      20.121210
	 D(5,7,10,9)      =         2.435299	     139.532355
	 D(5,7,10,14)     =        -1.747487	    -100.123651
	 D(6,7,10,8)      =        -1.732774	     -99.280660
	 D(6,7,10,9)      =         0.351343	      20.130485
	 D(6,7,10,14)     =         2.451742	     140.474480
	 D(7,10,14,11)    =         3.139961	     179.906526
	 D(7,10,14,12)    =         1.046966	      59.986730
	 D(7,10,14,13)    =        -1.048966	     -60.101335
	 D(8,10,14,11)    =         1.039827	      59.577676
	 D(8,10,14,12)    =        -1.053169	     -60.342120
	 D(8,10,14,13)    =         3.134085	     179.569815
	 D(9,10,14,11)    =        -1.041750	     -59.687897
	 D(9,10,14,12)    =        -3.134746	    -179.607694
	 D(9,10,14,13)    =         1.052508	      60.304241

	Current energy   :      -157.8321374844

	Energy change for the previous step:
		Projected    :        -0.0115827047
		Actual       :        -0.0081648899

	Performing BFGS update.
	Previous computed or guess Hessian on step 1.
	Steps to be used in Hessian update: 1
	Adding user-defined constraint: Fragment 1; Coordinate 49:
		Value =     0.352260; Fixed value    =     0.349070
		Force =    -0.001675; Force constant =     0.525000
	Removing off-diagonal coupling between coordinate 49 and others.
	Taking RFO optimization step.
	Going to follow RFO solution 1.
	Using RFO vector 1.

	Determining step-restricting scale parameter for RS-RFO.
	Maximum step size allowed    0.10000

	 Iter      |step|        alpha        rfo_root  
	------------------------------------------------
	    0     0.20608       1.00000           1
	    1     0.15672       5.44264           1
	    2     0.12413      15.06600           1
	    3     0.10655      26.61087           1
	    4     0.10068      32.37058           1
	    5     0.10001      33.10733           1
	------------------------------------------------
	Norm of target step-size    0.10001
	Projected energy change by RFO approximation:        -0.0042832294

	Back-transformation to cartesian coordinates...
	Successfully converged to displaced geometry.

	--- Internal Coordinate Step in ANG or DEG, aJ/ANG or AJ/DEG ---
	 ---------------------------------------------------------------------------
	   Coordinate                Previous        Force       Change         New 
	   ----------                --------       ------       ------       ------
	    1 R(1,4)          =      1.076221     0.093818     0.012684     1.088905
	    2 R(2,4)          =      1.078752     0.083769     0.010865     1.089617
	    3 R(3,4)          =      1.074697     0.082858     0.012375     1.087072
	    4 R(4,7)          =      1.543646    -0.026116    -0.005955     1.537691
	    5 R(5,7)          =      1.077124     0.097258     0.012640     1.089764
	    6 R(6,7)          =      1.076799     0.096309     0.012511     1.089310
	    7 R(7,10)         =      1.552986     0.061751     0.000927     1.553913
	    8 R(8,10)         =      1.076613     0.097591     0.012669     1.089281
	    9 R(9,10)         =      1.076948     0.098361     0.012775     1.089723
	   10 R(10,14)        =      1.542696    -0.022158    -0.005331     1.537365
	   11 R(11,14)        =      1.078365     0.086130     0.011156     1.089522
	   12 R(12,14)        =      1.076247     0.093927     0.012697     1.088944
	   13 R(13,14)        =      1.075486     0.078240     0.011809     1.087295
	   14 B(1,4,2)        =    109.249628    -0.000274    -0.623770   108.625859
	   15 B(1,4,3)        =    109.221767    -0.000245    -0.644182   108.577586
	   16 B(1,4,7)        =    109.723621     0.000319     0.779619   110.503240
	   17 B(2,4,3)        =    109.160758    -0.000269    -0.534625   108.626133
	   18 B(2,4,7)        =    109.516025     0.000096     0.278404   109.794430
	   19 B(3,4,7)        =    109.951575     0.000365     0.707963   110.659539
	   20 B(4,7,5)        =    108.632889    -0.000425    -0.345203   108.287686
	   21 B(4,7,6)        =    108.619913    -0.000479    -0.311802   108.308111
	   22 B(4,7,10)       =    112.430968     0.001587     1.361126   113.792094
	   23 B(5,7,6)        =    109.736203     0.000030    -0.527467   109.208736
	   24 B(5,7,10)       =    108.698307    -0.000354    -0.086537   108.611769
	   25 B(6,7,10)       =    108.699818    -0.000373    -0.139676   108.560142
	   26 B(7,10,8)       =    108.717325    -0.000378    -0.165330   108.551995
	   27 B(7,10,9)       =    108.743550    -0.000359    -0.095394   108.648157
	   28 B(7,10,14)      =    112.433687     0.001590     1.370120   113.803807
	   29 B(8,10,9)       =    109.713700     0.000032    -0.521764   109.191936
	   30 B(8,10,14)      =    108.571941    -0.000475    -0.290424   108.281517
	   31 B(9,10,14)      =    108.636857    -0.000426    -0.347187   108.289670
	   32 B(10,14,11)     =    109.523957     0.000100     0.290164   109.814121
	   33 B(10,14,12)     =    109.768605     0.000310     0.762619   110.531224
	   34 B(10,14,13)     =    109.993278     0.000360     0.698413   110.691691
	   35 B(11,14,12)     =    109.230446    -0.000271    -0.620137   108.610309
	   36 B(11,14,13)     =    109.176425    -0.000271    -0.546718   108.629707
	   37 B(12,14,13)     =    109.129869    -0.000235    -0.622272   108.507597
	   38 D(1,4,7,5)      =   -179.626452     0.000071     0.592083  -179.034368
	   39 D(1,4,7,6)      =    -60.308511    -0.000040    -0.409801   -60.718312
	   40 D(1,4,7,10)     =     60.029082     0.000009     0.069035    60.098117
	   41 D(2,4,7,5)      =    -59.715694     0.000053     0.482359   -59.233335
	   42 D(2,4,7,6)      =     59.602247    -0.000058    -0.519526    59.082721
	   43 D(2,4,7,10)     =    179.939840    -0.000010    -0.040689   179.899151
	   44 D(3,4,7,5)      =     60.226409     0.000043     0.440170    60.666579
	   45 D(3,4,7,6)      =    179.544349    -0.000068    -0.561715   178.982635
	   46 D(3,4,7,10)     =    -60.118057    -0.000020    -0.082878   -60.200936
	   47 D(4,7,10,8)     =    140.427897     0.000067     0.654575   141.082472
	   48 D(4,7,10,9)     =   -100.160958    -0.000022    -0.121877  -100.282835
	   49 D(4,7,10,14)    =     20.183037     0.000031     0.256236    20.439273
	   50 D(5,7,10,8)     =     20.121210     0.000014     0.275290    20.396500
	   51 D(5,7,10,9)     =    139.532355    -0.000075    -0.501162   139.031193
	   52 D(5,7,10,14)    =   -100.123651    -0.000022    -0.123049  -100.246700
	   53 D(6,7,10,8)     =    -99.280660     0.000102     1.038336   -98.242323
	   54 D(6,7,10,9)     =     20.130485     0.000013     0.261885    20.392369
	   55 D(6,7,10,14)    =    140.474480     0.000066     0.639998   141.114477
	   56 D(7,10,14,11)   =    179.906526    -0.000009    -0.038039   179.868487
	   57 D(7,10,14,12)   =     59.986730     0.000009     0.069829    60.056559
	   58 D(7,10,14,13)   =    -60.101335    -0.000020    -0.092830   -60.194165
	   59 D(8,10,14,11)   =     59.577676    -0.000057    -0.503960    59.073717
	   60 D(8,10,14,12)   =    -60.342120    -0.000039    -0.396092   -60.738212
	   61 D(8,10,14,13)   =    179.569815    -0.000068    -0.558751   179.011064
	   62 D(9,10,14,11)   =    -59.687897     0.000053     0.479165   -59.208732
	   63 D(9,10,14,12)   =   -179.607694     0.000071     0.587034  -179.020660
	   64 D(9,10,14,13)   =     60.304241     0.000041     0.424375    60.728616
	 ---------------------------------------------------------------------------
	 Forces used to impose fixed constraints are not included.
	  Forces zeroed: 49 

  ==> Convergence Check <==

  Measures of convergence in internal coordinates in au.
  Criteria marked as inactive (o), active & met (*), and active & unmet ( ).
  ---------------------------------------------------------------------------------------------
   Step     Total Energy     Delta E     MAX Force     RMS Force      MAX Disp      RMS Disp   
  ---------------------------------------------------------------------------------------------
    Convergence Criteria    1.00e-06 *    3.00e-04 *             o    1.20e-03 *             o
  ---------------------------------------------------------------------------------------------
      2    -157.83213748   -8.16e-03      2.09e-02      6.58e-03 o    2.41e-02      1.25e-02 o  ~
  ---------------------------------------------------------------------------------------------

	Writing optimization data to binary file.
	Structure for next step:
	Cartesian Geometry (in Angstrom)
	    H    -1.7972221968   0.4020696931   0.6299165787
	    H    -1.5287052533   2.0595402487   0.0717342918
	    H    -1.3234338873   0.7045008355  -1.0451166142
	    C    -1.1855559081   1.0291691893  -0.0168631454
	    H     0.8702431134   1.5890892052  -0.2696528648
	    H     0.3920832755   1.2870160107   1.4142201948
	    C     0.2952049429   0.9368883297   0.3872722933
	    H     1.8987026352  -0.4351016320  -0.0867551889
	    H     0.9024591757  -0.9306279132   1.2975880167
	    C     0.8813022601  -0.4994238937   0.2970324129
	    H     0.5467568412  -2.4245662194  -0.6346312551
	    H     0.0500476359  -1.0515293910  -1.6337080995
	    H    -0.9412112973  -1.5468150390  -0.2582864920
	    C     0.0796771974  -1.4403999692  -0.6169977322
			--------------------------
			 OPTKING Finished Execution 
			--------------------------

    Structure for next step:
    Molecular point group: c1
    Full point group: C1

    Geometry (in Angstrom), charge = 0, multiplicity = 1:

    H           -1.795672261652     0.402660811241     0.628425365792
    H           -1.527155318150     2.060131366863     0.070243078989
    H           -1.321883952211     0.705091953632    -1.046607827048
    C           -1.184005972921     1.029760307472    -0.018354358276
    H            0.871793048504     1.589680323319    -0.271144077661
    H            0.393633210626     1.287607128898     1.412728981900
    C            0.296754877983     0.937479447883     0.385781080432
    H            1.900252570336    -0.434510513878    -0.088246401802
    H            0.904009110793    -0.930036795093     1.296096803839
    C            0.882852195247    -0.498832775513     0.295541200077
    H            0.548306776291    -2.423975101214    -0.636122467968
    H            0.051597571023    -1.050938272854    -1.635199312350
    H           -0.939661362214    -1.546223920881    -0.259777704849
    C            0.081227132544    -1.439808851070    -0.618488945066

gradient() will perform analytic gradient computation.
    SCF Algorithm Type (re)set to DF.

*** tstart() called on lski1497
*** at Mon Feb 20 17:22:33 2017


         ---------------------------------------------------------
                                   SCF
            by Justin Turney, Rob Parrish, and Andy Simmonett
                              RHF Reference
                        1 Threads,   1000 MiB Core
         ---------------------------------------------------------

  ==> Geometry <==

    Molecular point group: c1
    Full point group: C1

    Geometry (in Angstrom), charge = 0, multiplicity = 1:

       Center              X                  Y                   Z               Mass       
    ------------   -----------------  -----------------  -----------------  -----------------
           H         -1.795672261652     0.402660811241     0.628425365792     1.007825032070
           H         -1.527155318150     2.060131366863     0.070243078989     1.007825032070
           H         -1.321883952211     0.705091953632    -1.046607827048     1.007825032070
           C         -1.184005972921     1.029760307472    -0.018354358276    12.000000000000
           H          0.871793048504     1.589680323319    -0.271144077661     1.007825032070
           H          0.393633210626     1.287607128898     1.412728981900     1.007825032070
           C          0.296754877983     0.937479447883     0.385781080432    12.000000000000
           H          1.900252570336    -0.434510513878    -0.088246401802     1.007825032070
           H          0.904009110793    -0.930036795093     1.296096803839     1.007825032070
           C          0.882852195247    -0.498832775513     0.295541200077    12.000000000000
           H          0.548306776291    -2.423975101214    -0.636122467968     1.007825032070
           H          0.051597571023    -1.050938272854    -1.635199312350     1.007825032070
           H         -0.939661362214    -1.546223920881    -0.259777704849     1.007825032070
           C          0.081227132544    -1.439808851070    -0.618488945066    12.000000000000

  Running in c1 symmetry.

  Rotational constants: A =      0.39378  B =      0.18340  C =      0.13913 [cm^-1]
  Rotational constants: A =  11805.31079  B =   5498.16192  C =   4171.05353 [MHz]
  Nuclear repulsion =  133.428379367597785

  Charge       = 0
  Multiplicity = 1
  Electrons    = 34
  Nalpha       = 17
  Nbeta        = 17

  ==> Algorithm <==

  SCF Algorithm Type is DF.
  DIIS enabled.
  MOM disabled.
  Fractional occupation disabled.
  Guess Type is READ.
  Energy threshold   = 1.00e-10
  Density threshold  = 1.00e-10
  Integral threshold = 0.00e+00

  ==> Primary Basis <==

  Basis Set: 6-31G(D)
    Number of shells: 44
    Number of basis function: 80
    Number of Cartesian functions: 80
    Spherical Harmonics?: false
    Max angular momentum: 2

  ==> Pre-Iterations <==

   -------------------------------------------------------
    Irrep   Nso     Nmo     Nalpha   Nbeta   Ndocc  Nsocc
   -------------------------------------------------------
     A         80      80       0       0       0       0
   -------------------------------------------------------
    Total      80      80      17      17      17       0
   -------------------------------------------------------

  ==> Integral Setup <==

  ==> DFJK: Density-Fitted J/K Matrices <==

    J tasked:                  Yes
    K tasked:                  Yes
    wK tasked:                  No
    OpenMP threads:              1
    Integrals threads:           1
    Memory (MB):               715
    Algorithm:                Core
    Integral Cache:           NONE
    Schwarz Cutoff:          1E-12
    Fitting Condition:       1E-12

   => Auxiliary Basis Set <=

  Basis Set: 
    Number of shells: 186
    Number of basis function: 574
    Number of Cartesian functions: 574
    Spherical Harmonics?: false
    Max angular momentum: 3

  Minimum eigenvalue in the overlap matrix is 4.2233425212E-03.
  Using Symmetric Orthogonalization.
  SCF Guess was Projection but file not found.
  Switching over to SAD guess.

  SCF Guess: Superposition of Atomic Densities via on-the-fly atomic UHF.

  ==> Iterations <==

                           Total Energy        Delta E     RMS |[F,P]|

   @DF-RHF iter   0:  -158.73277651972464   -1.58733e+02   4.53738e-02 
   @DF-RHF iter   1:  -157.18790053607049    1.54488e+00   4.23156e-03 
   @DF-RHF iter   2:  -157.27775429981060   -8.98538e-02   1.30661e-03 DIIS
   @DF-RHF iter   3:  -157.28711068350859   -9.35638e-03   5.11199e-04 DIIS
   @DF-RHF iter   4:  -157.28835416711868   -1.24348e-03   8.52914e-05 DIIS
   @DF-RHF iter   5:  -157.28840709808404   -5.29310e-05   1.57320e-05 DIIS
   @DF-RHF iter   6:  -157.28840900127787   -1.90319e-06   3.38808e-06 DIIS
   @DF-RHF iter   7:  -157.28840905966118   -5.83833e-08   9.36693e-07 DIIS
   @DF-RHF iter   8:  -157.28840906490782   -5.24665e-09   1.96280e-07 DIIS
   @DF-RHF iter   9:  -157.28840906520574   -2.97916e-10   5.61856e-08 DIIS
   @DF-RHF iter  10:  -157.28840906523047   -2.47269e-11   1.57738e-08 DIIS
   @DF-RHF iter  11:  -157.28840906523229   -1.81899e-12   3.64698e-09 DIIS
   @DF-RHF iter  12:  -157.28840906523223    5.68434e-14   7.98029e-10 DIIS
   @DF-RHF iter  13:  -157.28840906523217    5.68434e-14   1.45116e-10 DIIS
   @DF-RHF iter  14:  -157.28840906523195    2.27374e-13   4.16027e-11 DIIS

  ==> Post-Iterations <==

    Orbital Energies (a.u.)
    -----------------------

    Doubly Occupied:                                                      

       1A    -11.214846     2A    -11.214314     3A    -11.207574  
       4A    -11.207558     5A     -1.066377     6A     -0.970489  
       7A     -0.877475     8A     -0.766834     9A     -0.638400  
      10A     -0.614772    11A     -0.567054    12A     -0.533872  
      13A     -0.524133    14A     -0.514308    15A     -0.455824  
      16A     -0.455647    17A     -0.451381  

    Virtual:                                                              

      18A      0.224191    19A      0.275491    20A      0.280831  
      21A      0.299377    22A      0.304684    23A      0.313025  
      24A      0.348578    25A      0.357007    26A      0.358985  
      27A      0.372425    28A      0.407830    29A      0.423992  
      30A      0.480478    31A      0.709372    32A      0.733574  
      33A      0.734992    34A      0.784959    35A      0.792717  
      36A      0.816928    37A      0.863726    38A      0.917241  
      39A      0.942733    40A      1.004917    41A      1.116115  
      42A      1.126378    43A      1.151457    44A      1.160913  
      45A      1.169951    46A      1.182789    47A      1.183430  
      48A      1.198972    49A      1.221109    50A      1.249044  
      51A      1.251889    52A      1.280971    53A      1.306956  
      54A      1.627897    55A      1.630004    56A      1.710264  
      57A      1.721963    58A      1.936746    59A      2.049937  
      60A      2.071332    61A      2.164670    62A      2.270144  
      63A      2.285430    64A      2.319032    65A      2.359666  
      66A      2.419957    67A      2.511129    68A      2.568496  
      69A      2.645354    70A      2.665329    71A      2.708499  
      72A      2.730415    73A      2.780679    74A      2.904182  
      75A      2.981253    76A      3.084559    77A      4.551681  
      78A      4.700804    79A      4.768294    80A      4.983492  

    Final Occupation by Irrep:
              A 
    DOCC [    17 ]

  Energy converged.

  @DF-RHF Final Energy:  -157.28840906523195

   => Energetics <=

    Nuclear Repulsion Energy =            133.4283793675977847
    One-Electron Energy =                -474.8718598728404459
    Two-Electron Energy =                 184.1550714400105164
    DFT Exchange-Correlation Energy =       0.0000000000000000
    Empirical Dispersion Energy =           0.0000000000000000
    PCM Polarization Energy =               0.0000000000000000
    EFP Energy =                            0.0000000000000000
    Total Energy =                       -157.2884090652321163


  Saving occupied orbitals to File 180.

*** tstop() called on lski1497 at Mon Feb 20 17:22:41 2017
Module time:
	user time   =       4.86 seconds =       0.08 minutes
	system time =       0.15 seconds =       0.00 minutes
	total time  =          8 seconds =       0.13 minutes
Total time:
	user time   =      50.11 seconds =       0.84 minutes
	system time =       1.41 seconds =       0.02 minutes
	total time  =         68 seconds =       1.13 minutes


Properties will be evaluated at   0.000000,   0.000000,   0.000000 Bohr

Properties computed using the SCF density matrix

  Nuclear Dipole Moment: (a.u.)
     X:    -0.8576      Y:    -0.3192      Z:    -0.4965

  Electronic Dipole Moment: (a.u.)
     X:     0.8822      Y:     0.3284      Z:     0.5106

  Dipole Moment: (a.u.)
     X:     0.0246      Y:     0.0091      Z:     0.0141     Total:     0.0298

  Dipole Moment: (Debye)
     X:     0.0626      Y:     0.0232      Z:     0.0359     Total:     0.0758


  //>>>>>>>>>>>>>>>>>>>>>>>>>>>>>>>>>>>//
  //               DFMP2               //
  //<<<<<<<<<<<<<<<<<<<<<<<<<<<<<<<<<<<//


*** tstart() called on lski1497
*** at Mon Feb 20 17:22:41 2017


*** tstop() called on lski1497 at Mon Feb 20 17:22:41 2017
Module time:
	user time   =       0.53 seconds =       0.01 minutes
	system time =       0.01 seconds =       0.00 minutes
	total time  =          0 seconds =       0.00 minutes
Total time:
	user time   =      50.66 seconds =       0.84 minutes
	system time =       1.42 seconds =       0.02 minutes
	total time  =         68 seconds =       1.13 minutes
	 --------------------------------------------------------
	                          DF-MP2                         
	      2nd-Order Density-Fitted Moller-Plesset Theory     
	              RMP2 Wavefunction,   1 Threads             
	                                                         
	        Rob Parrish, Justin Turney, Andy Simmonett,      
	           Ed Hohenstein, and C. David Sherrill          
	 --------------------------------------------------------

   => Auxiliary Basis Set <=

  Basis Set: 
    Number of shells: 132
    Number of basis function: 364
    Number of Cartesian functions: 414
    Spherical Harmonics?: true
    Max angular momentum: 3

	 --------------------------------------------------------
	                 NBF =    80, NAUX =   364
	 --------------------------------------------------------
	   CLASS    FOCC     OCC    AOCC    AVIR     VIR    FVIR
	   PAIRS       0      17      17      63      63       0
	 --------------------------------------------------------

DGAS Warning! /src/lib/libfock/apps.cc:80 is not currently checking restricted

         ------------------------------------------------------------
                                     CPHF                           
                                  Rob Parrish                       
         ------------------------------------------------------------

  ==> Geometry <==

    Molecular point group: c1
    Full point group: C1

    Geometry (in Angstrom), charge = 0, multiplicity = 1:

       Center              X                  Y                   Z               Mass       
    ------------   -----------------  -----------------  -----------------  -----------------
           H         -1.795672261652     0.402660811241     0.628425365792     1.007825032070
           H         -1.527155318150     2.060131366863     0.070243078989     1.007825032070
           H         -1.321883952211     0.705091953632    -1.046607827048     1.007825032070
           C         -1.184005972921     1.029760307472    -0.018354358276    12.000000000000
           H          0.871793048504     1.589680323319    -0.271144077661     1.007825032070
           H          0.393633210626     1.287607128898     1.412728981900     1.007825032070
           C          0.296754877983     0.937479447883     0.385781080432    12.000000000000
           H          1.900252570336    -0.434510513878    -0.088246401802     1.007825032070
           H          0.904009110793    -0.930036795093     1.296096803839     1.007825032070
           C          0.882852195247    -0.498832775513     0.295541200077    12.000000000000
           H          0.548306776291    -2.423975101214    -0.636122467968     1.007825032070
           H          0.051597571023    -1.050938272854    -1.635199312350     1.007825032070
           H         -0.939661362214    -1.546223920881    -0.259777704849     1.007825032070
           C          0.081227132544    -1.439808851070    -0.618488945066    12.000000000000

  Nuclear repulsion =  133.428379367597785
  Reference energy  = -157.288409065231946

  ==> Basis Set <==

  Basis Set: 6-31G(D)
    Number of shells: 44
    Number of basis function: 80
    Number of Cartesian functions: 80
    Spherical Harmonics?: false
    Max angular momentum: 2

  ==> CGRSolver (by Rob Parrish) <==

[...]
	 SCS Same-Spin Energy      =      -0.0414805267404533 [Eh]
	 SCS Opposite-Spin Energy  =      -0.5072096617331768 [Eh]
	 SCS Correlation Energy    =      -0.5486901884736302 [Eh]
	 SCS Total Energy          =    -157.8388014253072242 [Eh]
	-----------------------------------------------------------


  -Total Gradient:
     Atom            X                  Y                   Z
    ------   -----------------  -----------------  -----------------
       1        0.000012911129    -0.000063825924     0.000041938596
       2        0.000154682693    -0.000071213756     0.000025402639
       3        0.000143757820    -0.000082824545    -0.000068790414
       4        0.001071846116     0.001185867715    -0.004360816286
       5       -0.000154925187     0.000016199853    -0.000126186494
       6        0.000132901633     0.000046531197    -0.000259649467
       7       -0.003070723248    -0.002159313450     0.008305880834
       8       -0.000186392037     0.000025367427     0.000203733981
       9       -0.000137132536    -0.000140470541    -0.000074549542
      10        0.004597474351     0.002649561795    -0.007322360647
      11        0.000016652173     0.000128950668     0.000109851083
      12        0.000025180902     0.000070773202    -0.000086619264
      13       -0.000065277413     0.000137650573     0.000097175444
      14       -0.002540956397    -0.001743254213     0.003514989535


			-----------------------------------------
			 OPTKING 2.0: for geometry optimizations 
			  - R.A. King,  Bethel University        
			-----------------------------------------

	Previous internal coordinate definitions found.
	---Fragment 1 Geometry and Gradient---
	 H          -3.4934547526        0.8267992936        1.1873843430
	 H          -2.8751010054        3.9639244312        0.2407790247
	 H          -2.5666253889        1.4732645056       -1.9562872647
	 C          -2.2625677480        2.0034736218        0.0143203653
	 H           1.5932545586        3.0246310016       -0.4561902701
	 H           0.7855144337        2.4352979612        2.6876989313
	 C           0.5124820799        1.7400188510        0.7591219922
	 H           3.6229278739       -0.7977135371       -0.0632349627
	 H           1.6833365824       -1.8094755979        2.4069395765
	 C           1.6457515442       -0.9392628521        0.5264520286
	 H           1.1803847289       -4.5936326971       -1.2402728956
	 H           0.1786502533       -2.0635351856       -3.1680428446
	 H          -1.7043799306       -3.0503197944       -0.5912449564
	 C           0.2383322429       -2.7546144264       -1.2199006830
	             0.0000129111       -0.0000638259        0.0000419386
	             0.0001546827       -0.0000712138        0.0000254026
	             0.0001437578       -0.0000828245       -0.0000687904
	             0.0010718461        0.0011858677       -0.0043608163
	            -0.0001549252        0.0000161999       -0.0001261865
	             0.0001329016        0.0000465312       -0.0002596495
	            -0.0030707232       -0.0021593135        0.0083058808
	            -0.0001863920        0.0000253674        0.0002037340
	            -0.0001371325       -0.0001404705       -0.0000745495
	             0.0045974744        0.0026495618       -0.0073223606
	             0.0000166522        0.0001289507        0.0001098511
	             0.0000251809        0.0000707732       -0.0000866193
	            -0.0000652774        0.0001376506        0.0000971754
	            -0.0025409564       -0.0017432542        0.0035149895

	---Fragment 1 Intrafragment Coordinates---
	 - Coordinate -           - BOHR/RAD -       - ANG/DEG -
	 R(1,4)           =         2.067782	       1.094223
	 R(2,4)           =         2.066361	       1.093471
	 R(3,4)           =         2.063218	       1.091808
	 R(4,7)           =         2.885314	       1.526843
	 R(5,7)           =         2.072506	       1.096723
	 R(6,7)           =         2.068180	       1.094434
	 R(7,10)          =         2.918387	       1.544344
	 R(8,10)          =         2.068089	       1.094386
	 R(9,10)          =         2.072418	       1.096676
	 R(10,14)         =         2.885494	       1.526938
	 R(11,14)         =         2.066365	       1.093473
	 R(12,14)         =         2.067948	       1.094311
	 R(13,14)         =         2.063197	       1.091797
	 B(1,4,2)         =         1.876806	     107.533061
	 B(1,4,3)         =         1.883761	     107.931528
	 B(1,4,7)         =         1.954243	     111.969899
	 B(2,4,3)         =         1.880523	     107.746058
	 B(2,4,7)         =         1.921375	     110.086695
	 B(3,4,7)         =         1.944239	     111.396668
	 B(4,7,5)         =         1.868772	     107.072756
	 B(4,7,6)         =         1.914510	     109.693327
	 B(4,7,10)        =         2.022755	     115.895321
	 B(5,7,6)         =         1.843770	     105.640225
	 B(5,7,10)        =         1.896314	     108.650772
	 B(6,7,10)        =         1.908918	     109.372925
	 B(7,10,8)        =         1.908314	     109.338333
	 B(7,10,9)        =         1.896737	     108.675005
	 B(7,10,14)       =         2.022424	     115.876350
	 B(8,10,9)        =         1.844325	     105.672036
	 B(8,10,14)       =         1.914319	     109.682398
	 B(9,10,14)       =         1.869038	     107.088009
	 B(10,14,11)      =         1.921449	     110.090922
	 B(10,14,12)      =         1.954099	     111.961600
	 B(10,14,13)      =         1.944464	     111.409601
	 B(11,14,12)      =         1.876839	     107.534953
	 B(11,14,13)      =         1.880445	     107.741574
	 B(12,14,13)      =         1.883643	     107.924822
	 D(1,4,7,5)       =        -3.106569	    -177.993321
	 D(1,4,7,6)       =        -1.113901	     -63.821849
	 D(1,4,7,10)      =         1.057822	      60.608738
	 D(2,4,7,5)       =        -1.019770	     -58.428507
	 D(2,4,7,6)       =         0.972898	      55.742965
	 D(2,4,7,10)      =        -3.138564	    -179.826448
	 D(3,4,7,5)       =         1.065239	      61.033672
	 D(3,4,7,6)       =         3.057907	     175.205144
	 D(3,4,7,10)      =        -1.053555	     -60.364268
	 D(4,7,10,8)      =         2.530117	     144.965045
	 D(4,7,10,9)      =        -1.747932	    -100.149133
	 D(4,7,10,14)     =         0.356520	      20.427065
	 D(5,7,10,8)      =         0.426110	      24.414326
	 D(5,7,10,9)      =         2.431246	     139.300148
	 D(5,7,10,14)     =        -1.747487	    -100.123654
	 D(6,7,10,8)      =        -1.578459	     -90.439059
	 D(6,7,10,9)      =         0.426677	      24.446763
	 D(6,7,10,14)     =         2.531128	     145.022961
	 D(7,10,14,11)    =        -3.133899	    -179.559175
	 D(7,10,14,12)    =         1.062490	      60.876181
	 D(7,10,14,13)    =        -1.048795	     -60.091532
	 D(8,10,14,11)    =         0.978790	      56.080563
	 D(8,10,14,12)    =        -1.108006	     -63.484081
	 D(8,10,14,13)    =         3.063894	     175.548206
	 D(9,10,14,11)    =        -1.014575	     -58.130869
	 D(9,10,14,12)    =        -3.101372	    -177.695513
	 D(9,10,14,13)    =         1.070529	      61.336774

	Current energy   :      -157.8372275352

	Energy change for the previous step:
		Projected    :         0.0000012821
		Actual       :        -0.0000069300

	Performing BFGS update.
	Previous computed or guess Hessian on step 1.
	Steps to be used in Hessian update: 23 22
	Adding user-defined constraint: Fragment 1; Coordinate 49:
		Value =     0.356520; Fixed value    =     0.349070
		Force =    -0.008008; Force constant =     1.075000
	Removing off-diagonal coupling between coordinate 49 and others.
	Taking RFO optimization step.
	Going to follow RFO solution 1.
	Rejecting RFO root 1 because normalization gives large value.
	Rejecting RFO root 2 because normalization gives large value.
	Using RFO vector 3.
	Norm of target step-size    0.00242
	Projected energy change by RFO approximation:        -0.0000001301

	Back-transformation to cartesian coordinates...
	Successfully converged to displaced geometry.

	--- Internal Coordinate Step in ANG or DEG, aJ/ANG or AJ/DEG ---
	 ---------------------------------------------------------------------------
	   Coordinate                Previous        Force       Change         New 
	   ----------                --------       ------       ------       ------
	    1 R(1,4)          =      1.094223    -0.000432     0.000003     1.094226
	    2 R(2,4)          =      1.093471     0.000911    -0.000037     1.093434
	    3 R(3,4)          =      1.091808    -0.000542    -0.000011     1.091796
	    4 R(4,7)          =      1.526843     0.000955     0.000061     1.526904
	    5 R(5,7)          =      1.096723    -0.000027     0.000009     1.096732
	    6 R(6,7)          =      1.094434     0.001721    -0.000023     1.094410
	    7 R(7,10)         =      1.544344     0.000730    -0.000041     1.544304
	    8 R(8,10)         =      1.094386     0.001932    -0.000028     1.094358
	    9 R(9,10)         =      1.096676     0.000092     0.000017     1.096694
	   10 R(10,14)        =      1.526938     0.000535     0.000040     1.526978
	   11 R(11,14)        =      1.093473     0.000892    -0.000034     1.093439
	   12 R(12,14)        =      1.094311    -0.000861    -0.000002     1.094309
	   13 R(13,14)        =      1.091797    -0.000588    -0.000017     1.091779
	   14 B(1,4,2)        =    107.533061    -0.000008    -0.006819   107.526241
	   15 B(1,4,3)        =    107.931528    -0.000007    -0.003938   107.927590
	   16 B(1,4,7)        =    111.969899     0.000000     0.006307   111.976206
	   17 B(2,4,3)        =    107.746058    -0.000012    -0.005138   107.740920
	   18 B(2,4,7)        =    110.086695     0.000010     0.000524   110.087218
	   19 B(3,4,7)        =    111.396668     0.000015     0.008069   111.404737
	   20 B(4,7,5)        =    107.072756     0.000009     0.018874   107.091630
	   21 B(4,7,6)        =    109.693327    -0.000001     0.004237   109.697564
	   22 B(4,7,10)       =    115.895321    -0.000006    -0.004811   115.890510
	   23 B(5,7,6)        =    105.640225     0.000000    -0.000177   105.640048
	   24 B(5,7,10)       =    108.650772    -0.000001    -0.004164   108.646608
	   25 B(6,7,10)       =    109.372925     0.000000    -0.012958   109.359967
	   26 B(7,10,8)       =    109.338333     0.000003    -0.002940   109.335394
	   27 B(7,10,9)       =    108.675005    -0.000003    -0.003350   108.671655
	   28 B(7,10,14)      =    115.876350    -0.000005     0.006349   115.882699
	   29 B(8,10,9)       =    105.672036    -0.000001    -0.007330   105.664706
	   30 B(8,10,14)      =    109.682398    -0.000003     0.014280   109.696678
	   31 B(9,10,14)      =    107.088009     0.000009    -0.008653   107.079355
	   32 B(10,14,11)     =    110.090922     0.000010     0.001628   110.092550
	   33 B(10,14,12)     =    111.961600     0.000000     0.008025   111.969625
	   34 B(10,14,13)     =    111.409601     0.000014     0.002610   111.412211
	   35 B(11,14,12)     =    107.534953    -0.000007    -0.005733   107.529220
	   36 B(11,14,13)     =    107.741574    -0.000012    -0.003763   107.737811
	   37 B(12,14,13)     =    107.924822    -0.000007    -0.003562   107.921260
	   38 D(1,4,7,5)      =   -177.993321    -0.000000     0.029182  -177.964139
	   39 D(1,4,7,6)      =    -63.821849     0.000001     0.041092   -63.780757
	   40 D(1,4,7,10)     =     60.608738    -0.000000     0.023440    60.632179
	   41 D(2,4,7,5)      =    -58.428507    -0.000001     0.025045   -58.403462
	   42 D(2,4,7,6)      =     55.742965     0.000000     0.036955    55.779920
	   43 D(2,4,7,10)     =   -179.826448    -0.000001     0.019303  -179.807144
	   44 D(3,4,7,5)      =     61.033672    -0.000000     0.024137    61.057809
	   45 D(3,4,7,6)      =    175.205144     0.000001     0.036047   175.241191
	   46 D(3,4,7,10)     =    -60.364268    -0.000001     0.018395   -60.345873
	   47 D(4,7,10,8)     =    144.965045    -0.000001     0.017726   144.982771
	   48 D(4,7,10,9)     =   -100.149133    -0.000001     0.005629  -100.143504
	   49 D(4,7,10,14)    =     20.427065     0.000001    -0.003887    20.423178
	   50 D(5,7,10,8)     =     24.414326    -0.000002    -0.000413    24.413913
	   51 D(5,7,10,9)     =    139.300148    -0.000002    -0.012510   139.287638
	   52 D(5,7,10,14)    =   -100.123654    -0.000001    -0.022026  -100.145680
	   53 D(6,7,10,8)     =    -90.439059    -0.000002     0.008989   -90.430070
	   54 D(6,7,10,9)     =     24.446763    -0.000002    -0.003108    24.443655
	   55 D(6,7,10,14)    =    145.022961    -0.000001    -0.012623   145.010337
	   56 D(7,10,14,11)   =   -179.559175    -0.000001    -0.024137  -179.583312
	   57 D(7,10,14,12)   =     60.876181    -0.000000    -0.023225    60.852956
	   58 D(7,10,14,13)   =    -60.091532    -0.000001    -0.026101   -60.117633
	   59 D(8,10,14,11)   =     56.080563    -0.000000    -0.036917    56.043646
	   60 D(8,10,14,12)   =    -63.484081     0.000000    -0.036005   -63.520085
	   61 D(8,10,14,13)   =    175.548206    -0.000000    -0.038880   175.509326
	   62 D(9,10,14,11)   =    -58.130869    -0.000001    -0.030838   -58.161707
	   63 D(9,10,14,12)   =   -177.695513    -0.000000    -0.029925  -177.725438
	   64 D(9,10,14,13)   =     61.336774    -0.000001    -0.032801    61.303973
	 ---------------------------------------------------------------------------
	 Forces used to impose fixed constraints are not included.
	  Forces zeroed: 49 

  ==> Convergence Check <==

  Measures of convergence in internal coordinates in au.
  Criteria marked as inactive (o), active & met (*), and active & unmet ( ).
  ---------------------------------------------------------------------------------------------
   Step     Total Energy     Delta E     MAX Force     RMS Force      MAX Disp      RMS Disp   
  ---------------------------------------------------------------------------------------------
    Convergence Criteria    1.00e-06 *    3.00e-04 *             o    1.20e-03 *             o
  ---------------------------------------------------------------------------------------------
     24    -157.83722754   -6.93e-06      2.35e-04 *    8.89e-05 o    7.17e-04 *    3.03e-04 o  ~
  ---------------------------------------------------------------------------------------------


  **** Optimization is complete! (in 24 steps) ****

  ==> Optimization Summary <==

  Measures of convergence in internal coordinates in au.
  --------------------------------------------------------------------------------------------------------------- ~
   Step         Total Energy             Delta E       MAX Force       RMS Force        MAX Disp        RMS Disp  ~
  --------------------------------------------------------------------------------------------------------------- ~
      1    -157.823972594503   -157.823972594503      0.05937620      0.01476916      0.05118304      0.01266268  ~
      2    -157.832137481077     -0.008164886574      0.02089528      0.00658365      0.02414202      0.01253653  ~
      3    -157.835533521204     -0.003396040127      0.01014442      0.00280059      0.03919357      0.01251695  ~
      4    -157.836758279503     -0.001224758299      0.00445463      0.00121359      0.04905526      0.01249659  ~
      5    -157.837213874179     -0.000455594676      0.00123112      0.00035916      0.03652394      0.01161244  ~
      6    -157.837291648515     -0.000077774336      0.00023404      0.00010449      0.00682763      0.00276037  ~
      7    -157.837295375180     -0.000003726665      0.00026527      0.00006056      0.00249815      0.00067691  ~
      8    -157.837298452345     -0.000003077164      0.00042068      0.00009758      0.00361231      0.00109628  ~
      9    -157.837298361297      0.000000091048      0.00051749      0.00012253      0.02689209      0.01250331  ~
     10    -157.837278172435      0.000020188862      0.00110923      0.00042475      0.02657406      0.01250205  ~
     11    -157.837305691065     -0.000027518630      0.00093326      0.00021911      0.02965077      0.01249786  ~
     12    -157.837051115599      0.000254575466      0.00143251      0.00063481      0.03301176      0.01250505  ~
     13    -157.836828168775      0.000222946824      0.00435297      0.00147974      0.03046580      0.01249200  ~
     14    -157.836882470145     -0.000054301370      0.00644644      0.00146639      0.03591805      0.01249855  ~
     15    -157.836689069786      0.000193400359      0.00778356      0.00229801      0.02541942      0.01108173  ~
     16    -157.837220315177     -0.000531245391      0.00133482      0.00037190      0.00436378      0.00159718  ~
     17    -157.837263977878     -0.000043662701      0.00078191      0.00023291      0.00437614      0.00158713  ~
     18    -157.837254074841      0.000009903037      0.00062327      0.00020509      0.02838050      0.01248304  ~
     19    -157.836787931207      0.000466143634      0.00831691      0.00266665      0.03005896      0.01251283  ~
     20    -157.837197829888     -0.000409898681      0.00076203      0.00032578      0.03311745      0.01250527  ~
     21    -157.837045437336      0.000152392552      0.00277450      0.00084397      0.02620936      0.00883530  ~
     22    -157.837205993202     -0.000160555866      0.00076235      0.00020007      0.00279559      0.00095534  ~
     23    -157.837220605148     -0.000014611946      0.00048220      0.00015193      0.00236665      0.00090234  ~
     24    -157.837227535166     -0.000006930018      0.00023456      0.00008895      0.00071719      0.00030281  ~
  --------------------------------------------------------------------------------------------------------------- ~

	Writing optimization data to binary file.
	Final energy is   -157.8372275351659
	Final (previous) structure:
	Cartesian Geometry (in Angstrom)
	    H    -1.8486566343   0.4375233423   0.6283367321
	    H    -1.5214379245   2.0976184656   0.1274147722
	    H    -1.3581996588   0.7796179986  -1.0352226339
	    C    -1.1972992851   1.0601925787   0.0075780109
	    H     0.8431139999   1.6005657904  -0.2414054937
	    H     0.4156763354   1.2887041772   1.4222690180
	    C     0.2711938365   0.9207783185   0.4017100568
	    H     1.9171708592  -0.4221318228  -0.0334625011
	    H     0.8907833538  -0.9575332459   1.2736975663
	    C     0.8708942082  -0.4970364942   0.2785864150
	    H     0.6246326959  -2.4308457279  -0.6563241488
	    H     0.0945376424  -1.0919757893  -1.6764560692
	    H    -0.9019190140  -1.6141597141  -0.3128733556
	    C     0.1261199910  -1.4576791729  -0.6455436382
	Saving final (previous) structure.
			--------------------------
			 OPTKING Finished Execution 
			--------------------------

    Final optimized geometry and variables:
    Molecular point group: c1
    Full point group: C1

    Geometry (in Angstrom), charge = 0, multiplicity = 1:

    H           -1.848656634295     0.437523342277     0.628336732136
    H           -1.521437924467     2.097618465582     0.127414772196
    H           -1.358199658773     0.779617998610    -1.035222633941
    C           -1.197299285139     1.060192578684     0.007578010918
    H            0.843113999908     1.600565790447    -0.241405493725
    H            0.415676335353     1.288704177192     1.422269018008
    C            0.271193836494     0.920778318478     0.401710056824
    H            1.917170859225    -0.422131822811    -0.033462501063
    H            0.890783353799    -0.957533245929     1.273697566332
    C            0.870894208192    -0.497036494217     0.278586414977
    H            0.624632695886    -2.430845727919    -0.656324148768
    H            0.094537642359    -1.091975789320    -1.676456069197
    H           -0.901919014049    -1.614159714091    -0.312873355645
    C            0.126119991009    -1.457679172920    -0.645543638204

	Cleaning optimization helper files.

*** Psi4 exiting successfully. Buy a developer a beer!
