    -----------------------------------------------------------------------
          Psi4: An Open-Source Ab Initio Electronic Structure Package
                              Psi4 1.0.0 Driver

                          Git: Rev {master} 6a9a71b 

    J. M. Turney, A. C. Simmonett, R. M. Parrish, E. G. Hohenstein,
    F. A. Evangelista, J. T. Fermann, B. J. Mintz, L. A. Burns, J. J. Wilke,
    M. L. Abrams, N. J. Russ, M. L. Leininger, C. L. Janssen, E. T. Seidl,
    W. D. Allen, H. F. Schaefer, R. A. King, E. F. Valeev, C. D. Sherrill,
    and T. D. Crawford, WIREs Comput. Mol. Sci. 2, 556-565 (2012)
    (doi: 10.1002/wcms.93)

                         Additional Contributions by
    A. E. DePrince, U. Bozkaya, A. Yu. Sokolov, D. G. A. Smith, R. Di Remigio,
    R. M. Richard, J. F. Gonthier, H. R. McAlexander, M. Saitow, and
    B. P. Pritchard
    -----------------------------------------------------------------------


    Psi4 started on: Thu Feb 16 16:22:31 2017

    Process ID:   1313
    PSI4DATADIR: /Users/sternc1/anaconda/share/psi4
    Memory level set to 256.000 MB

  ==> Input File <==

--------------------------------------------------------------------------

memory 1000 mb

molecule butane {
  symmetry C1
  0 1 
  H      1.604   0.760   -8.260
  H      1.745   2.388   -8.880
  H      2.043   1.024   -9.930
  C      2.142   1.395   -8.932
  H      4.169   2.051   -9.210
  H      3.731   1.788   -7.539
  C      3.631   1.416   -8.537
  H      4.405   -0.367   -7.623
  H      3.492   -0.657   -9.084
  C      4.203   -0.012   -8.612
  H      5.904   -0.993   -9.482
  H      6.219   0.644   -8.959
  H      5.306   0.354   -10.419
  C      5.507   -0.001   -9.430
  units Angstrom
}

dih_string = "4 7 10 14 130"
set optking fixed_dihedral = $dih_string

optimize('MP2/6-31G(d)')
--------------------------------------------------------------------------

  Memory set to 1000.000 MiB by Python script.
gradient() will perform analytic gradient computation.
    SCF Algorithm Type (re)set to DF.

*** tstart() called on lski1497
*** at Thu Feb 16 16:22:33 2017


         ---------------------------------------------------------
                                   SCF
            by Justin Turney, Rob Parrish, and Andy Simmonett
                              RHF Reference
                        1 Threads,   1000 MiB Core
         ---------------------------------------------------------

  ==> Geometry <==

    Molecular point group: c1
    Full point group: C1

    Geometry (in Angstrom), charge = 0, multiplicity = 1:

       Center              X                  Y                   Z               Mass       
    ------------   -----------------  -----------------  -----------------  -----------------
           H         -2.265196917049     0.060552058646     0.628309228775     1.007825032070
           H         -2.124196917049     1.688552058646     0.008309228775     1.007825032070
           H         -1.826196917049     0.324552058646    -1.041690771225     1.007825032070
           C         -1.727196917049     0.695552058646    -0.043690771225    12.000000000000
           H          0.299803082951     1.351552058646    -0.321690771225     1.007825032070
           H         -0.138196917049     1.088552058646     1.349309228775     1.007825032070
           C         -0.238196917049     0.716552058646     0.351309228775    12.000000000000
           H          0.535803082951    -1.066447941354     1.265309228775     1.007825032070
           H         -0.377196917049    -1.356447941354    -0.195690771225     1.007825032070
           C          0.333803082951    -0.711447941354     0.276309228775    12.000000000000
           H          2.034803082951    -1.692447941354    -0.593690771225     1.007825032070
           H          2.349803082951    -0.055447941354    -0.070690771225     1.007825032070
           H          1.436803082951    -0.345447941354    -1.530690771225     1.007825032070
           C          1.637803082951    -0.700447941354    -0.541690771225    12.000000000000

  Running in c1 symmetry.

  Rotational constants: A =      0.63077  B =      0.12932  C =      0.12654 [cm^-1]
  Rotational constants: A =  18910.12966  B =   3876.87935  C =   3793.68694 [MHz]
  Nuclear repulsion =  132.350612314562881

  Charge       = 0
  Multiplicity = 1
  Electrons    = 34
  Nalpha       = 17
  Nbeta        = 17

  ==> Algorithm <==

  SCF Algorithm Type is DF.
  DIIS enabled.
  MOM disabled.
  Fractional occupation disabled.
  Guess Type is SAD.
  Energy threshold   = 1.00e-10
  Density threshold  = 1.00e-10
  Integral threshold = 0.00e+00

  ==> Primary Basis <==

  Basis Set: 6-31G(D)
    Number of shells: 44
    Number of basis function: 80
    Number of Cartesian functions: 80
    Spherical Harmonics?: false
    Max angular momentum: 2

  ==> Pre-Iterations <==

   -------------------------------------------------------
    Irrep   Nso     Nmo     Nalpha   Nbeta   Ndocc  Nsocc
   -------------------------------------------------------
     A         80      80       0       0       0       0
   -------------------------------------------------------
    Total      80      80      17      17      17       0
   -------------------------------------------------------

  ==> Integral Setup <==

  ==> DFJK: Density-Fitted J/K Matrices <==

    J tasked:                  Yes
    K tasked:                  Yes
    wK tasked:                  No
    OpenMP threads:              1
    Integrals threads:           1
    Memory (MB):               715
    Algorithm:                Core
    Integral Cache:           NONE
    Schwarz Cutoff:          1E-12
    Fitting Condition:       1E-12

   => Auxiliary Basis Set <=

  Basis Set: 
    Number of shells: 186
    Number of basis function: 574
    Number of Cartesian functions: 574
    Spherical Harmonics?: false
    Max angular momentum: 3

  Minimum eigenvalue in the overlap matrix is 4.7021480745E-03.
  Using Symmetric Orthogonalization.
  SCF Guess: Superposition of Atomic Densities via on-the-fly atomic UHF.

  ==> Iterations <==

                           Total Energy        Delta E     RMS |[F,P]|

   @DF-RHF iter   0:  -158.97526005475802   -1.58975e+02   4.74665e-02 
   @DF-RHF iter   1:  -157.20188490848219    1.77338e+00   3.90378e-03 
   @DF-RHF iter   2:  -157.27999103833875   -7.81061e-02   1.09243e-03 DIIS
   @DF-RHF iter   3:  -157.28793354932705   -7.94251e-03   2.45525e-04 DIIS
   @DF-RHF iter   4:  -157.28826348395970   -3.29935e-04   7.60843e-05 DIIS
   @DF-RHF iter   5:  -157.28829740717364   -3.39232e-05   1.24385e-05 DIIS
   @DF-RHF iter   6:  -157.28829852055125   -1.11338e-06   2.48239e-06 DIIS
   @DF-RHF iter   7:  -157.28829854937354   -2.88223e-08   6.85940e-07 DIIS
   @DF-RHF iter   8:  -157.28829855181735   -2.44381e-09   1.02701e-07 DIIS
   @DF-RHF iter   9:  -157.28829855190881   -9.14611e-11   2.30536e-08 DIIS
   @DF-RHF iter  10:  -157.28829855191319   -4.37694e-12   5.01279e-09 DIIS
   @DF-RHF iter  11:  -157.28829855191353   -3.41061e-13   1.30062e-09 DIIS
   @DF-RHF iter  12:  -157.28829855191358   -5.68434e-14   3.88771e-10 DIIS
   @DF-RHF iter  13:  -157.28829855191387   -2.84217e-13   7.99187e-11 DIIS

  ==> Post-Iterations <==

    Orbital Energies (a.u.)
    -----------------------

    Doubly Occupied:                                                      

       1A    -11.206333     2A    -11.205756     3A    -11.200835  
       4A    -11.200709     5A     -1.071322     6A     -0.980343  
       7A     -0.863824     8A     -0.793782     9A     -0.641036  
      10A     -0.599001    11A     -0.584898    12A     -0.556807  
      13A     -0.511901    14A     -0.511513    15A     -0.470156  
      16A     -0.465696    17A     -0.441308  

    Virtual:                                                              

      18A      0.235228    19A      0.270446    20A      0.291747  
      21A      0.299737    22A      0.324217    23A      0.332580  
      24A      0.333996    25A      0.343770    26A      0.349898  
      27A      0.357710    28A      0.416898    29A      0.444047  
      30A      0.452332    31A      0.709387    32A      0.725233  
      33A      0.737747    34A      0.780596    35A      0.805362  
      36A      0.824317    37A      0.827899    38A      0.935783  
      39A      0.940122    40A      1.003556    41A      1.055167  
      42A      1.089788    43A      1.172829    44A      1.183930  
      45A      1.192873    46A      1.209799    47A      1.212488  
      48A      1.222557    49A      1.245885    50A      1.257826  
      51A      1.268591    52A      1.273653    53A      1.288559  
      54A      1.466725    55A      1.657789    56A      1.732940  
      57A      1.772697    58A      1.921933    59A      1.990764  
      60A      2.100965    61A      2.193039    62A      2.236917  
      63A      2.288190    64A      2.300943    65A      2.361864  
      66A      2.452771    67A      2.525621    68A      2.633548  
      69A      2.661469    70A      2.695384    71A      2.718666  
      72A      2.752140    73A      2.779627    74A      2.892959  
      75A      3.013399    76A      3.092982    77A      4.576284  
      78A      4.665700    79A      4.812062    80A      4.970428  

    Final Occupation by Irrep:
              A 
    DOCC [    17 ]

  Energy converged.

  @DF-RHF Final Energy:  -157.28829855191387

   => Energetics <=

    Nuclear Repulsion Energy =            132.3506123145628806
    One-Electron Energy =                -472.6673823159546828
    Two-Electron Energy =                 183.0284714494779337
    DFT Exchange-Correlation Energy =       0.0000000000000000
    Empirical Dispersion Energy =           0.0000000000000000
    PCM Polarization Energy =               0.0000000000000000
    EFP Energy =                            0.0000000000000000
    Total Energy =                       -157.2882985519138401


  Saving occupied orbitals to File 180.

*** tstop() called on lski1497 at Thu Feb 16 16:22:40 2017
Module time:
	user time   =       5.58 seconds =       0.09 minutes
	system time =       0.19 seconds =       0.00 minutes
	total time  =          7 seconds =       0.12 minutes
Total time:
	user time   =       5.58 seconds =       0.09 minutes
	system time =       0.19 seconds =       0.00 minutes
	total time  =          7 seconds =       0.12 minutes


Properties will be evaluated at   0.000000,   0.000000,   0.000000 Bohr

Properties computed using the SCF density matrix

  Nuclear Dipole Moment: (a.u.)
     X:    -0.0693      Y:    -0.0023      Z:    -0.4715

  Electronic Dipole Moment: (a.u.)
     X:     0.0741      Y:     0.0021      Z:     0.5018

  Dipole Moment: (a.u.)
     X:     0.0047      Y:    -0.0002      Z:     0.0304     Total:     0.0307

  Dipole Moment: (Debye)
     X:     0.0120      Y:    -0.0006      Z:     0.0772     Total:     0.0781


  //>>>>>>>>>>>>>>>>>>>>>>>>>>>>>>>>>>>//
  //               DFMP2               //
  //<<<<<<<<<<<<<<<<<<<<<<<<<<<<<<<<<<<//


*** tstart() called on lski1497
*** at Thu Feb 16 16:22:40 2017


*** tstop() called on lski1497 at Thu Feb 16 16:22:40 2017
Module time:
	user time   =       0.48 seconds =       0.01 minutes
	system time =       0.01 seconds =       0.00 minutes
	total time  =          0 seconds =       0.00 minutes
Total time:
	user time   =       6.08 seconds =       0.10 minutes
	system time =       0.20 seconds =       0.00 minutes
	total time  =          7 seconds =       0.12 minutes
	 --------------------------------------------------------
	                          DF-MP2                         
	      2nd-Order Density-Fitted Moller-Plesset Theory     
	              RMP2 Wavefunction,   1 Threads             
	                                                         
	        Rob Parrish, Justin Turney, Andy Simmonett,      
	           Ed Hohenstein, and C. David Sherrill          
	 --------------------------------------------------------

   => Auxiliary Basis Set <=

  Basis Set: 
    Number of shells: 132
    Number of basis function: 364
    Number of Cartesian functions: 414
    Spherical Harmonics?: true
    Max angular momentum: 3

	 --------------------------------------------------------
	                 NBF =    80, NAUX =   364
	 --------------------------------------------------------
	   CLASS    FOCC     OCC    AOCC    AVIR     VIR    FVIR
	   PAIRS       0      17      17      63      63       0
	 --------------------------------------------------------

DGAS Warning! /src/lib/libfock/apps.cc:80 is not currently checking restricted

         ------------------------------------------------------------
                                     CPHF                           
                                  Rob Parrish                       
         ------------------------------------------------------------

  ==> Geometry <==

    Molecular point group: c1
    Full point group: C1

    Geometry (in Angstrom), charge = 0, multiplicity = 1:

       Center              X                  Y                   Z               Mass       
    ------------   -----------------  -----------------  -----------------  -----------------
           H         -2.265196917049     0.060552058646     0.628309228775     1.007825032070
           H         -2.124196917049     1.688552058646     0.008309228775     1.007825032070
           H         -1.826196917049     0.324552058646    -1.041690771225     1.007825032070
           C         -1.727196917049     0.695552058646    -0.043690771225    12.000000000000
           H          0.299803082951     1.351552058646    -0.321690771225     1.007825032070
           H         -0.138196917049     1.088552058646     1.349309228775     1.007825032070
           C         -0.238196917049     0.716552058646     0.351309228775    12.000000000000
           H          0.535803082951    -1.066447941354     1.265309228775     1.007825032070
           H         -0.377196917049    -1.356447941354    -0.195690771225     1.007825032070
           C          0.333803082951    -0.711447941354     0.276309228775    12.000000000000
           H          2.034803082951    -1.692447941354    -0.593690771225     1.007825032070
           H          2.349803082951    -0.055447941354    -0.070690771225     1.007825032070
           H          1.436803082951    -0.345447941354    -1.530690771225     1.007825032070
           C          1.637803082951    -0.700447941354    -0.541690771225    12.000000000000

  Nuclear repulsion =  132.350612314562881
  Reference energy  = -157.288298551913869

  ==> Basis Set <==

  Basis Set: 6-31G(D)
    Number of shells: 44
    Number of basis function: 80
    Number of Cartesian functions: 80
    Spherical Harmonics?: false
    Max angular momentum: 2

  ==> CGRSolver (by Rob Parrish) <==

   Number of roots    =         1
   Preconditioning    =    JACOBI
   Convergence cutoff =     1E-06
   Maximum iterations =       100

  ==> CPHFRHamiltonian (by Rob Parrish) <== 

  ==> DFJK: Density-Fitted J/K Matrices <==

    J tasked:                  Yes
    K tasked:                  Yes
    wK tasked:                  No
    OpenMP threads:              1
    Integrals threads:           1
    Memory (MB):               715
    Algorithm:                Core
    Integral Cache:           NONE
    Schwarz Cutoff:          1E-12
    Fitting Condition:       1E-12

   => Auxiliary Basis Set <=

  Basis Set: 
    Number of shells: 186
    Number of basis function: 574
    Number of Cartesian functions: 574
    Spherical Harmonics?: false
    Max angular momentum: 3

  ==> CPHF Iterations <==

  => Iterations <=

             Iter  Converged  Remaining    Residual
  CGR           1          0          1   7.322E-02
  CGR           2          0          1   8.864E-03
  CGR           3          0          1   2.713E-03
  CGR           4          0          1   4.075E-04
  CGR           5          0          1   7.840E-05
  CGR           6          0          1   1.954E-05
  CGR           7          0          1   3.604E-06
  CGR           8          1          0   6.393E-07

    CGRSolver converged.

  ==> DFCorrGrad: Density-Fitted Correlated Gradients <==

    OpenMP threads:              1
    Integrals threads:           1
    Memory (MB):               715
    Schwarz Cutoff:          0E+00
    Fitting Condition:       1E-12

   => Auxiliary Basis Set <=

  Basis Set: 
    Number of shells: 186
    Number of basis function: 510
    Number of Cartesian functions: 574
    Spherical Harmonics?: true
    Max angular momentum: 3

	-----------------------------------------------------------
	 ==================> DF-MP2 Energies <==================== 
	-----------------------------------------------------------
	 Reference Energy          =    -157.2882985519138686 [Eh]
	 Singles Energy            =      -0.0000000000000000 [Eh]
	 Same-Spin Energy          =      -0.1244181095023516 [Eh]
	 Opposite-Spin Energy      =      -0.4204083512323415 [Eh]
	 Correlation Energy        =      -0.5448264607346931 [Eh]
	 Total Energy              =    -157.8331250126485656 [Eh]
	-----------------------------------------------------------
	 ================> DF-SCS-MP2 Energies <================== 
	-----------------------------------------------------------
	 SCS Same-Spin Scale       =       0.3333333333333333 [-]
	 SCS Opposite-Spin Scale   =       1.2000000000000000 [-]
	 SCS Same-Spin Energy      =      -0.0414727031674505 [Eh]
	 SCS Opposite-Spin Energy  =      -0.5044900214788097 [Eh]
	 SCS Correlation Energy    =      -0.5459627246462603 [Eh]
	 SCS Total Energy          =    -157.8342612765601416 [Eh]
	-----------------------------------------------------------


  -Total Gradient:
     Atom            X                  Y                   Z
    ------   -----------------  -----------------  -----------------
       1        0.010567995020     0.009408314271    -0.008951190604
       2        0.010740056466    -0.013731933612     0.000533499852
       3        0.003824836845     0.005682167889     0.015549477805
       4       -0.026811913778    -0.008918287720    -0.009873238753
       5       -0.008167689490    -0.012696427299     0.008149110734
       6       -0.003137964212    -0.010319347013    -0.014271951942
       7        0.023802781785     0.027233871346     0.007295486915
       8       -0.001171716325     0.010038060771    -0.014576339424
       9        0.010538694593     0.013021146748     0.005340925261
      10       -0.020441734196    -0.027284098286     0.013673006867
      11       -0.010415055169     0.014428344967     0.003502136352
      12       -0.012570596309    -0.009381393406    -0.005302590739
      13        0.001004489678    -0.005238184175     0.015751691570
      14        0.022237815091     0.007757765518    -0.016820023894


			-----------------------------------------
			 OPTKING 2.0: for geometry optimizations 
			  - R.A. King,  Bethel University        
			-----------------------------------------

	Previous internal coordinate definitions found.
	---Fragment 1 Geometry and Gradient---
	 H          -4.2806018103        0.1144268076        1.1873323692
	 H          -4.0141504255        3.1909009520        0.0157021668
	 H          -3.4510120379        0.6133145067       -1.9685102728
	 C          -3.2639291508        1.3144029020       -0.0825635921
	 H           0.5665457206        2.5540632452       -0.6079074571
	 H          -0.2611543256        2.0570652722        2.5498249110
	 C          -0.4501269389        1.3540871508        0.6638782303
	 H           1.0125210879       -2.0152945441        2.3910879158
	 H          -0.7127988714       -2.5633151227       -0.3698019643
	 C           0.6307964091       -1.3444417670        0.5221487704
	 H           3.8452205611       -3.1982631033       -1.1219129652
	 H           4.4404842930       -0.1047814238       -0.1335861977
	 H           2.7151643337       -0.6528020023       -2.8925863517
	 C           3.0949992864       -1.3236547795       -1.0236472063
	             0.0105679950        0.0094083143       -0.0089511906
	             0.0107400565       -0.0137319336        0.0005334999
	             0.0038248368        0.0056821679        0.0155494778
	            -0.0268119138       -0.0089182877       -0.0098732388
	            -0.0081676895       -0.0126964273        0.0081491107
	            -0.0031379642       -0.0103193470       -0.0142719519
	             0.0238027818        0.0272338713        0.0072954869
	            -0.0011717163        0.0100380608       -0.0145763394
	             0.0105386946        0.0130211467        0.0053409253
	            -0.0204417342       -0.0272840983        0.0136730069
	            -0.0104150552        0.0144283450        0.0035021364
	            -0.0125705963       -0.0093813934       -0.0053025907
	             0.0010044897       -0.0052381842        0.0157516916
	             0.0222378151        0.0077577655       -0.0168200239

	Previous optimization step data not found.  Starting new optimization.

	---Fragment 1 Intrafragment Coordinates---
	 - Coordinate -           - BOHR/RAD -       - ANG/DEG -
	 R(1,4)           =         2.021436	       1.069698
	 R(2,4)           =         2.023298	       1.070683
	 R(3,4)           =         2.020723	       1.069320
	 R(4,7)           =         2.911397	       1.540645
	 R(5,7)           =         2.022623	       1.070326
	 R(6,7)           =         2.021555	       1.069761
	 R(7,10)          =         2.910419	       1.540128
	 R(8,10)          =         2.022051	       1.070023
	 R(9,10)          =         2.021504	       1.069734
	 R(10,14)         =         2.908988	       1.539370
	 R(11,14)         =         2.021545	       1.069756
	 R(12,14)         =         2.021927	       1.069958
	 R(13,14)         =         2.021695	       1.069835
	 B(1,4,2)         =         1.910870	     109.484805
	 B(1,4,3)         =         1.911121	     109.499161
	 B(1,4,7)         =         1.910399	     109.457783
	 B(2,4,3)         =         1.910042	     109.437340
	 B(2,4,7)         =         1.910564	     109.467262
	 B(3,4,7)         =         1.910803	     109.480971
	 B(4,7,5)         =         1.909937	     109.431343
	 B(4,7,6)         =         1.911630	     109.528316
	 B(4,7,10)        =         1.911154	     109.501062
	 B(5,7,6)         =         1.910605	     109.469614
	 B(5,7,10)        =         1.910047	     109.437654
	 B(6,7,10)        =         1.910425	     109.459295
	 B(7,10,8)        =         1.909980	     109.433789
	 B(7,10,9)        =         1.911015	     109.493080
	 B(7,10,14)       =         1.911194	     109.503379
	 B(8,10,9)        =         1.910548	     109.466355
	 B(8,10,14)       =         1.910920	     109.487637
	 B(9,10,14)       =         1.910142	     109.443087
	 B(10,14,11)      =         1.910888	     109.485811
	 B(10,14,12)      =         1.911435	     109.517145
	 B(10,14,13)      =         1.911822	     109.539338
	 B(11,14,12)      =         1.910760	     109.478486
	 B(11,14,13)      =         1.909745	     109.420341
	 B(12,14,13)      =         1.909148	     109.386113
	 D(1,4,7,5)       =         3.140997	     179.965873
	 D(1,4,7,6)       =        -1.047644	     -60.025575
	 D(1,4,7,10)      =         1.047427	      60.013132
	 D(2,4,7,5)       =        -1.047689	     -60.028143
	 D(2,4,7,6)       =         1.046856	      59.980409
	 D(2,4,7,10)      =        -3.141259	    -179.980883
	 D(3,4,7,5)       =         1.046044	      59.933911
	 D(3,4,7,6)       =         3.140588	     179.942463
	 D(3,4,7,10)      =        -1.047526	     -60.018830
	 D(4,7,10,8)      =        -1.919625	    -109.986390
	 D(4,7,10,9)      =         0.174500	       9.998109
	 D(4,7,10,14)     =         2.268871	     129.996747
	 D(5,7,10,8)      =         2.270058	     130.064734
	 D(5,7,10,9)      =        -1.919003	    -109.950767
	 D(5,7,10,14)     =         0.175368	      10.047872
	 D(6,7,10,8)      =         0.176183	      10.094536
	 D(6,7,10,9)      =         2.270307	     130.079035
	 D(6,7,10,14)     =        -1.918507	    -109.922327
	 D(7,10,14,11)    =        -3.141492	    -179.994218
	 D(7,10,14,12)    =         1.046496	      59.959777
	 D(7,10,14,13)    =        -1.047300	     -60.005863
	 D(8,10,14,11)    =         1.047579	      60.021874
	 D(8,10,14,12)    =        -1.047619	     -60.024131
	 D(8,10,14,13)    =        -3.141414	    -179.989771
	 D(9,10,14,11)    =        -1.046586	     -59.964988
	 D(9,10,14,12)    =         3.141401	     179.989007
	 D(9,10,14,13)    =         1.047605	      60.023367

	Current energy   :      -157.8331250126

	Generating empirical Hessian (Schlegel '84) for each fragment.
	Adding user-defined constraint: Fragment 1; Coordinate 49:
		Value =     2.268871; Fixed value    =     2.268930
		Force =     0.000029; Force constant =     0.500000
	Removing off-diagonal coupling between coordinate 49 and others.
	Taking RFO optimization step.
	Going to follow RFO solution 1.
	Using RFO vector 1.

	Determining step-restricting scale parameter for RS-RFO.
	Maximum step size allowed    0.10000

	 Iter      |step|        alpha        rfo_root  
	------------------------------------------------
	    0     0.23751       1.00000           1
	    1     0.17476       6.22674           1
	    2     0.13349      18.21225           1
	    3     0.11029      34.51861           1
	    4     0.10143      44.67527           1
	    5     0.10003      46.57609           1
	    6     0.10000      46.62389           1
	------------------------------------------------
	Norm of target step-size    0.10000
	Projected energy change by RFO approximation:        -0.0053326205

	Back-transformation to cartesian coordinates...
	Successfully converged to displaced geometry.

	--- Internal Coordinate Step in ANG or DEG, aJ/ANG or AJ/DEG ---
	 ---------------------------------------------------------------------------
	   Coordinate                Previous        Force       Change         New 
	   ----------                --------       ------       ------       ------
	    1 R(1,4)          =      1.069698     0.136133     0.013663     1.083360
	    2 R(2,4)          =      1.070683     0.137520     0.013829     1.084512
	    3 R(3,4)          =      1.069320     0.138723     0.013912     1.083233
	    4 R(4,7)          =      1.540645    -0.020007    -0.002328     1.538317
	    5 R(5,7)          =      1.070326     0.138097     0.013877     1.084203
	    6 R(6,7)          =      1.069761     0.141676     0.014221     1.083982
	    7 R(7,10)         =      1.540128     0.059254     0.006890     1.547018
	    8 R(8,10)         =      1.070023     0.140257     0.014086     1.084109
	    9 R(9,10)         =      1.069734     0.141807     0.014233     1.083967
	   10 R(10,14)        =      1.539370    -0.014794    -0.001718     1.537652
	   11 R(11,14)        =      1.069756     0.143476     0.014402     1.084157
	   12 R(12,14)        =      1.069958     0.134742     0.013530     1.083488
	   13 R(13,14)        =      1.069835     0.135844     0.013638     1.083473
	   14 B(1,4,2)        =    109.484805    -0.000299    -0.518705   108.966100
	   15 B(1,4,3)        =    109.499161    -0.000194    -0.364963   109.134198
	   16 B(1,4,7)        =    109.457783     0.000168     0.289002   109.746784
	   17 B(2,4,3)        =    109.437340    -0.000279    -0.487997   108.949343
	   18 B(2,4,7)        =    109.467262     0.000490     0.875649   110.342911
	   19 B(3,4,7)        =    109.480971     0.000114     0.195802   109.676773
	   20 B(4,7,5)        =    109.431343    -0.000222    -0.362694   109.068649
	   21 B(4,7,6)        =    109.528316    -0.000253    -0.389420   109.138896
	   22 B(4,7,10)       =    109.501062     0.000759     1.235666   110.736729
	   23 B(5,7,6)        =    109.469614    -0.000045    -0.265307   109.204306
	   24 B(5,7,10)       =    109.437654    -0.000138    -0.151125   109.286529
	   25 B(6,7,10)       =    109.459295    -0.000100    -0.076158   109.383137
	   26 B(7,10,8)       =    109.433789    -0.000100    -0.075883   109.357907
	   27 B(7,10,9)       =    109.493080    -0.000145    -0.166392   109.326688
	   28 B(7,10,14)      =    109.503379     0.000763     1.243294   110.746673
	   29 B(8,10,9)       =    109.466355    -0.000045    -0.265818   109.200536
	   30 B(8,10,14)      =    109.487637    -0.000251    -0.383802   109.103835
	   31 B(9,10,14)      =    109.443087    -0.000222    -0.360665   109.082422
	   32 B(10,14,11)     =    109.485811     0.000491     0.878115   110.363925
	   33 B(10,14,12)     =    109.517145     0.000158     0.270691   109.787837
	   34 B(10,14,13)     =    109.539338     0.000104     0.179419   109.718757
	   35 B(11,14,12)     =    109.478486    -0.000297    -0.515636   108.962851
	   36 B(11,14,13)     =    109.420341    -0.000276    -0.484030   108.936311
	   37 B(12,14,13)     =    109.386113    -0.000181    -0.341824   109.044289
	   38 D(1,4,7,5)      =    179.965873     0.000030     0.287937   180.253810
	   39 D(1,4,7,6)      =    -60.025575    -0.000049    -0.487839   -60.513414
	   40 D(1,4,7,10)     =     60.013132    -0.000006    -0.060598    59.952535
	   41 D(2,4,7,5)      =    -60.028143     0.000039     0.373248   -59.654895
	   42 D(2,4,7,6)      =     59.980409    -0.000041    -0.402528    59.577881
	   43 D(2,4,7,10)     =   -179.980883     0.000002     0.024713  -179.956170
	   44 D(3,4,7,5)      =     59.933911     0.000045     0.437238    60.371148
	   45 D(3,4,7,6)      =    179.942463    -0.000035    -0.338538   179.603925
	   46 D(3,4,7,10)     =    -60.018830     0.000009     0.088703   -59.930127
	   47 D(4,7,10,8)     =   -109.986390     0.000031     0.309995  -109.676395
	   48 D(4,7,10,9)     =      9.998109    -0.000016    -0.161794     9.836315
	   49 D(4,7,10,14)    =    129.996747     0.000009     0.059901   130.056648
	   50 D(5,7,10,8)     =    130.064734     0.000007     0.087606   130.152340
	   51 D(5,7,10,9)     =   -109.950767    -0.000040    -0.384183  -110.334950
	   52 D(5,7,10,14)    =     10.047872    -0.000016    -0.162488     9.885384
	   53 D(6,7,10,8)     =     10.094536     0.000053     0.549510    10.644046
	   54 D(6,7,10,9)     =    130.079035     0.000006     0.077721   130.156756
	   55 D(6,7,10,14)    =   -109.922327     0.000030     0.299416  -109.622911
	   56 D(7,10,14,11)   =   -179.994218     0.000003     0.030133  -179.964086
	   57 D(7,10,14,12)   =     59.959777    -0.000005    -0.050541    59.909235
	   58 D(7,10,14,13)   =    -60.005863     0.000009     0.091570   -59.914293
	   59 D(8,10,14,11)   =     60.021874    -0.000041    -0.404331    59.617543
	   60 D(8,10,14,12)   =    -60.024131    -0.000049    -0.485005   -60.509136
	   61 D(8,10,14,13)   =   -179.989771    -0.000035    -0.342893  -180.332664
	   62 D(9,10,14,11)   =    -59.964988     0.000038     0.366880   -59.598108
	   63 D(9,10,14,12)   =    179.989007     0.000030     0.286206   180.275213
	   64 D(9,10,14,13)   =     60.023367     0.000044     0.428318    60.451685
	 ---------------------------------------------------------------------------
	 Forces used to impose fixed constraints are not included.
	  Forces zeroed: 49 

  ==> Convergence Check <==

  Measures of convergence in internal coordinates in au.
  Criteria marked as inactive (o), active & met (*), and active & unmet ( ).
  --------------------------------------------------------------------------------------------- ~
   Step     Total Energy     Delta E     MAX Force     RMS Force      MAX Disp      RMS Disp    ~
  --------------------------------------------------------------------------------------------- ~
    Convergence Criteria    1.00e-06 *    3.00e-04 *             o    1.20e-03 *             o  ~
  --------------------------------------------------------------------------------------------- ~
      1    -157.83312501   -1.58e+02      1.74e-02      7.29e-03 o    2.72e-02      1.25e-02 o  ~
  ---------------------------------------------------------------------------------------------

	Writing optimization data to binary file.
	Structure for next step:
	Cartesian Geometry (in Angstrom)
	    H    -2.2895959224   0.0475320654   0.6364363403
	    H    -2.1594768849   1.6957496889   0.0199947841
	    H    -1.8511889427   0.3276953723  -1.0504826274
	    C    -1.7429747874   0.6960606234  -0.0375710038
	    H     0.2807382458   1.3687234377  -0.3270524467
	    H    -0.1558747254   1.0899436116   1.3627215245
	    C    -0.2546378814   0.7136226394   0.3509682953
	    H     0.5563744526  -1.0677990895   1.2724813742
	    H    -0.3612052188  -1.3734594822  -0.2066550894
	    C     0.3492056367  -0.7084256112   0.2708704459
	    H     2.0722638646  -1.7000236499  -0.5938752264
	    H     2.3756240372  -0.0426083592  -0.0706915701
	    H     1.4580577640  -0.3484849262  -1.5466573793
	    C     1.6549335233  -0.7007974996  -0.5411582184
			--------------------------
			 OPTKING Finished Execution 
			--------------------------

    Structure for next step:
    Molecular point group: c1
    Full point group: C1

    Geometry (in Angstrom), charge = 0, multiplicity = 1:

    H           -2.289655381709     0.047484386306     0.636271187040
    H           -2.159536344229     1.695702009782     0.019829630849
    H           -1.851248402033     0.327647693193    -1.050647780706
    C           -1.743034246770     0.696012944241    -0.037736157103
    H            0.280678786492     1.368675758515    -0.327217599957
    H           -0.155934184726     1.089895932482     1.362556371226
    C           -0.254697340764     0.713574960303     0.350803141970
    H            0.556314993241    -1.067846768653     1.272316220901
    H           -0.361264678126    -1.373507161379    -0.206820242737
    C            0.349146177395    -0.708473290339     0.270705292610
    H            2.072204405293    -1.700071328993    -0.594040379666
    H            2.375564577868    -0.042656038346    -0.070856723350
    H            1.457998304608    -0.348532605342    -1.546822532553
    C            1.654874063929    -0.700845178697    -0.541323371695

gradient() will perform analytic gradient computation.
    SCF Algorithm Type (re)set to DF.

*** tstart() called on lski1497
*** at Thu Feb 16 16:23:01 2017


         ---------------------------------------------------------
                                   SCF
            by Justin Turney, Rob Parrish, and Andy Simmonett
                              RHF Reference
                        1 Threads,   1000 MiB Core
         ---------------------------------------------------------

  ==> Geometry <==

    Molecular point group: c1
    Full point group: C1

    Geometry (in Angstrom), charge = 0, multiplicity = 1:

       Center              X                  Y                   Z               Mass       
    ------------   -----------------  -----------------  -----------------  -----------------
           H         -2.289655381709     0.047484386306     0.636271187040     1.007825032070
           H         -2.159536344229     1.695702009782     0.019829630849     1.007825032070
           H         -1.851248402033     0.327647693193    -1.050647780706     1.007825032070
           C         -1.743034246770     0.696012944241    -0.037736157103    12.000000000000
           H          0.280678786492     1.368675758515    -0.327217599957     1.007825032070
           H         -0.155934184726     1.089895932482     1.362556371226     1.007825032070
           C         -0.254697340764     0.713574960303     0.350803141970    12.000000000000
           H          0.556314993241    -1.067846768653     1.272316220901     1.007825032070
           H         -0.361264678126    -1.373507161379    -0.206820242737     1.007825032070
           C          0.349146177395    -0.708473290339     0.270705292610    12.000000000000
           H          2.072204405293    -1.700071328993    -0.594040379666     1.007825032070
           H          2.375564577868    -0.042656038346    -0.070856723350     1.007825032070
           H          1.457998304608    -0.348532605342    -1.546822532553     1.007825032070
           C          1.654874063929    -0.700845178697    -0.541323371695    12.000000000000

  Running in c1 symmetry.

  Rotational constants: A =      0.63202  B =      0.12688  C =      0.12432 [cm^-1]
  Rotational constants: A =  18947.55281  B =   3803.85086  C =   3727.15044 [MHz]
  Nuclear repulsion =  131.387017968531580

  Charge       = 0
  Multiplicity = 1
  Electrons    = 34
  Nalpha       = 17
  Nbeta        = 17

  ==> Algorithm <==

  SCF Algorithm Type is DF.
  DIIS enabled.
  MOM disabled.
  Fractional occupation disabled.
  Guess Type is READ.
  Energy threshold   = 1.00e-10
  Density threshold  = 1.00e-10
  Integral threshold = 0.00e+00

  ==> Primary Basis <==

  Basis Set: 6-31G(D)
    Number of shells: 44
    Number of basis function: 80
    Number of Cartesian functions: 80
    Spherical Harmonics?: false
    Max angular momentum: 2

  ==> Pre-Iterations <==

   -------------------------------------------------------
    Irrep   Nso     Nmo     Nalpha   Nbeta   Ndocc  Nsocc
   -------------------------------------------------------
     A         80      80       0       0       0       0
   -------------------------------------------------------
    Total      80      80      17      17      17       0
   -------------------------------------------------------

  ==> Integral Setup <==

  ==> DFJK: Density-Fitted J/K Matrices <==

    J tasked:                  Yes
    K tasked:                  Yes
    wK tasked:                  No
    OpenMP threads:              1
    Integrals threads:           1
    Memory (MB):               715
    Algorithm:                Core
    Integral Cache:           NONE
    Schwarz Cutoff:          1E-12
    Fitting Condition:       1E-12

   => Auxiliary Basis Set <=

  Basis Set: 
    Number of shells: 186
    Number of basis function: 574
    Number of Cartesian functions: 574
    Spherical Harmonics?: false
    Max angular momentum: 3

  Minimum eigenvalue in the overlap matrix is 4.8206400549E-03.
  Using Symmetric Orthogonalization.
  SCF Guess was Projection but file not found.
  Switching over to SAD guess.

  SCF Guess: Superposition of Atomic Densities via on-the-fly atomic UHF.

  ==> Iterations <==

                           Total Energy        Delta E     RMS |[F,P]|

   @DF-RHF iter   0:  -158.86879752535006   -1.58869e+02   4.64899e-02 
   @DF-RHF iter   1:  -157.20386605308025    1.66493e+00   3.88077e-03 
   @DF-RHF iter   2:  -157.28272773782513   -7.88617e-02   1.10459e-03 DIIS
   @DF-RHF iter   3:  -157.29091867111040   -8.19093e-03   2.51943e-04 DIIS
   @DF-RHF iter   4:  -157.29127059512328   -3.51924e-04   7.51768e-05 DIIS
   @DF-RHF iter   5:  -157.29130576152070   -3.51664e-05   1.21538e-05 DIIS
   @DF-RHF iter   6:  -157.29130685752889   -1.09601e-06   2.22298e-06 DIIS
   @DF-RHF iter   7:  -157.29130688212373   -2.45948e-08   7.09775e-07 DIIS
   @DF-RHF iter   8:  -157.29130688453174   -2.40800e-09   1.09078e-07 DIIS
   @DF-RHF iter   9:  -157.29130688463115   -9.94191e-11   2.61804e-08 DIIS
   @DF-RHF iter  10:  -157.29130688463684   -5.68434e-12   5.53130e-09 DIIS
   @DF-RHF iter  11:  -157.29130688463690   -5.68434e-14   1.08570e-09 DIIS
   @DF-RHF iter  12:  -157.29130688463741   -5.11591e-13   3.51335e-10 DIIS
   @DF-RHF iter  13:  -157.29130688463741    0.00000e+00   9.24061e-11 DIIS

  ==> Post-Iterations <==

    Orbital Energies (a.u.)
    -----------------------

    Doubly Occupied:                                                      

       1A    -11.211854     2A    -11.211302     3A    -11.206573  
       4A    -11.206515     5A     -1.067598     6A     -0.978236  
       7A     -0.860042     8A     -0.788409     9A     -0.636547  
      10A     -0.596078    11A     -0.581352    12A     -0.554717  
      13A     -0.508808    14A     -0.508278    15A     -0.466452  
      16A     -0.462303    17A     -0.445863  

    Virtual:                                                              

      18A      0.233211    19A      0.267747    20A      0.288068  
      21A      0.296398    22A      0.321744    23A      0.328721  
      24A      0.329964    25A      0.338791    26A      0.346442  
      27A      0.354613    28A      0.414312    29A      0.444421  
      30A      0.452417    31A      0.711061    32A      0.722935  
      33A      0.739294    34A      0.780830    35A      0.810487  
      36A      0.825189    37A      0.830590    38A      0.935370  
      39A      0.936769    40A      0.999218    41A      1.062122  
      42A      1.089317    43A      1.161028    44A      1.171063  
      45A      1.177542    46A      1.196224    47A      1.198326  
      48A      1.209624    49A      1.239559    50A      1.242500  
      51A      1.253394    52A      1.264322    53A      1.272913  
      54A      1.464422    55A      1.660878    56A      1.735732  
      57A      1.763837    58A      1.915826    59A      1.975681  
      60A      2.093986    61A      2.193065    62A      2.226452  
      63A      2.288036    64A      2.299303    65A      2.346361  
      66A      2.441403    67A      2.502156    68A      2.614229  
      69A      2.643427    70A      2.676436    71A      2.706809  
      72A      2.733803    73A      2.770189    74A      2.885599  
      75A      3.011898    76A      3.082312    77A      4.562736  
      78A      4.657038    79A      4.805663    80A      4.963344  

    Final Occupation by Irrep:
              A 
    DOCC [    17 ]

  Energy converged.

  @DF-RHF Final Energy:  -157.29130688463741

   => Energetics <=

    Nuclear Repulsion Energy =            131.3870179685315804
    One-Electron Energy =                -470.7747985880154147
    Two-Electron Energy =                 182.0964737348464553
    DFT Exchange-Correlation Energy =       0.0000000000000000
    Empirical Dispersion Energy =           0.0000000000000000
    PCM Polarization Energy =               0.0000000000000000
    EFP Energy =                            0.0000000000000000
    Total Energy =                       -157.2913068846373505


  Saving occupied orbitals to File 180.

*** tstop() called on lski1497 at Thu Feb 16 16:23:08 2017
Module time:
	user time   =       5.48 seconds =       0.09 minutes
	system time =       0.16 seconds =       0.00 minutes
	total time  =          7 seconds =       0.12 minutes
Total time:
	user time   =      29.77 seconds =       0.50 minutes
	system time =       0.91 seconds =       0.02 minutes
	total time  =         35 seconds =       0.58 minutes


Properties will be evaluated at   0.000000,   0.000000,   0.000000 Bohr

Properties computed using the SCF density matrix

  Nuclear Dipole Moment: (a.u.)
     X:    -0.0702      Y:    -0.0030      Z:    -0.4738

  Electronic Dipole Moment: (a.u.)
     X:     0.0744      Y:     0.0031      Z:     0.5015

  Dipole Moment: (a.u.)
     X:     0.0042      Y:     0.0001      Z:     0.0276     Total:     0.0279

  Dipole Moment: (Debye)
     X:     0.0108      Y:     0.0002      Z:     0.0702     Total:     0.0710


  //>>>>>>>>>>>>>>>>>>>>>>>>>>>>>>>>>>>//
  //               DFMP2               //
  //<<<<<<<<<<<<<<<<<<<<<<<<<<<<<<<<<<<//


*** tstart() called on lski1497
*** at Thu Feb 16 16:23:08 2017


*** tstop() called on lski1497 at Thu Feb 16 16:23:08 2017
Module time:
	user time   =       0.58 seconds =       0.01 minutes
	system time =       0.01 seconds =       0.00 minutes
	total time  =          0 seconds =       0.00 minutes
Total time:
	user time   =      30.36 seconds =       0.51 minutes
	system time =       0.92 seconds =       0.02 minutes
	total time  =         35 seconds =       0.58 minutes
	 --------------------------------------------------------
	                          DF-MP2                         
	      2nd-Order Density-Fitted Moller-Plesset Theory     
	              RMP2 Wavefunction,   1 Threads             
	                                                         
	        Rob Parrish, Justin Turney, Andy Simmonett,      
	           Ed Hohenstein, and C. David Sherrill          
	 --------------------------------------------------------

   => Auxiliary Basis Set <=

  Basis Set: 
    Number of shells: 132
    Number of basis function: 364
    Number of Cartesian functions: 414
    Spherical Harmonics?: true
    Max angular momentum: 3

	 --------------------------------------------------------
	                 NBF =    80, NAUX =   364
	 --------------------------------------------------------
	   CLASS    FOCC     OCC    AOCC    AVIR     VIR    FVIR
	   PAIRS       0      17      17      63      63       0
	 --------------------------------------------------------

DGAS Warning! /src/lib/libfock/apps.cc:80 is not currently checking restricted

         ------------------------------------------------------------
                                     CPHF                           
                                  Rob Parrish                       
         ------------------------------------------------------------

  ==> Geometry <==

    Molecular point group: c1
    Full point group: C1

    Geometry (in Angstrom), charge = 0, multiplicity = 1:

       Center              X                  Y                   Z               Mass       
    ------------   -----------------  -----------------  -----------------  -----------------
           H         -2.289655381709     0.047484386306     0.636271187040     1.007825032070
           H         -2.159536344229     1.695702009782     0.019829630849     1.007825032070
           H         -1.851248402033     0.327647693193    -1.050647780706     1.007825032070
           C         -1.743034246770     0.696012944241    -0.037736157103    12.000000000000
           H          0.280678786492     1.368675758515    -0.327217599957     1.007825032070
           H         -0.155934184726     1.089895932482     1.362556371226     1.007825032070
           C         -0.254697340764     0.713574960303     0.350803141970    12.000000000000
           H          0.556314993241    -1.067846768653     1.272316220901     1.007825032070
           H         -0.361264678126    -1.373507161379    -0.206820242737     1.007825032070
           C          0.349146177395    -0.708473290339     0.270705292610    12.000000000000
           H          2.072204405293    -1.700071328993    -0.594040379666     1.007825032070
           H          2.375564577868    -0.042656038346    -0.070856723350     1.007825032070
           H          1.457998304608    -0.348532605342    -1.546822532553     1.007825032070
           C          1.654874063929    -0.700845178697    -0.541323371695    12.000000000000

  Nuclear repulsion =  131.387017968531580
  Reference energy  = -157.291306884637407

  ==> Basis Set <==

  Basis Set: 6-31G(D)
    Number of shells: 44
    Number of basis function: 80
    Number of Cartesian functions: 80
    Spherical Harmonics?: false
    Max angular momentum: 2

  ==> CGRSolver (by Rob Parrish) <==

   Number of roots    =         1
   Preconditioning    =    JACOBI
   Convergence cutoff =     1E-06
   Maximum iterations =       100

  ==> CPHFRHamiltonian (by Rob Parrish) <== 

  ==> DFJK: Density-Fitted J/K Matrices <==

    J tasked:                  Yes
    K tasked:                  Yes
    wK tasked:                  No
    OpenMP threads:              1
    Integrals threads:           1
    Memory (MB):               715
    Algorithm:                Core
    Integral Cache:           NONE
    Schwarz Cutoff:          1E-12
    Fitting Condition:       1E-12

   => Auxiliary Basis Set <=

  Basis Set: 
    Number of shells: 186
    Number of basis function: 574
    Number of Cartesian functions: 574
    Spherical Harmonics?: false
    Max angular momentum: 3

  ==> CPHF Iterations <==

  => Iterations <=

             Iter  Converged  Remaining    Residual
  CGR           1          0          1   7.359E-02
  CGR           2          0          1   8.965E-03
  CGR           3          0          1   2.736E-03
  CGR           4          0          1   4.075E-04
  CGR           5          0          1   7.901E-05
  CGR           6          0          1   1.947E-05
  CGR           7          0          1   3.504E-06
  CGR           8          1          0   6.349E-07

    CGRSolver converged.

  ==> DFCorrGrad: Density-Fitted Correlated Gradients <==

    OpenMP threads:              1
    Integrals threads:           1
    Memory (MB):               715
    Schwarz Cutoff:          0E+00
    Fitting Condition:       1E-12

   => Auxiliary Basis Set <=

  Basis Set: 
    Number of shells: 186
    Number of basis function: 510
    Number of Cartesian functions: 574
    Spherical Harmonics?: true
    Max angular momentum: 3

	-----------------------------------------------------------
	 ==================> DF-MP2 Energies <==================== 
	-----------------------------------------------------------
	 Reference Energy          =    -157.2913068846374074 [Eh]
	 Singles Energy            =      -0.0000000000000000 [Eh]
	 Same-Spin Energy          =      -0.1242721983013593 [Eh]
	 Opposite-Spin Energy      =      -0.4216673447391542 [Eh]
	 Correlation Energy        =      -0.5459395430405135 [Eh]
	 Total Energy              =    -157.8372464276779112 [Eh]
	-----------------------------------------------------------
	 ================> DF-SCS-MP2 Energies <================== 
	-----------------------------------------------------------
	 SCS Same-Spin Scale       =       0.3333333333333333 [-]
	 SCS Opposite-Spin Scale   =       1.2000000000000000 [-]
	 SCS Same-Spin Energy      =      -0.0414240661004531 [Eh]
	 SCS Opposite-Spin Energy  =      -0.5060008136869850 [Eh]
	 SCS Correlation Energy    =      -0.5474248797874381 [Eh]
	 SCS Total Energy          =    -157.8387317644248355 [Eh]
	-----------------------------------------------------------


  -Total Gradient:
     Atom            X                  Y                   Z
    ------   -----------------  -----------------  -----------------
       1        0.005225912666     0.003818719982    -0.002825347339
       2        0.005164574597    -0.004790881321     0.000445018355
       3        0.002698065234     0.002364137761     0.006137265967
       4       -0.015788567249    -0.005200108203    -0.006014737454
       5       -0.003708772585    -0.006672819004     0.001811969852
       6       -0.002781096152    -0.006385634755    -0.004678217534
       7        0.013954045356     0.017893003083     0.004446522558
       8        0.001307647353     0.006308695892    -0.005334227266
       9        0.004200862544     0.006744838091     0.000602085144
      10       -0.011937594687    -0.017854519493     0.008223141525
      11       -0.004902136077     0.005046988539     0.001875087213
      12       -0.005741672606    -0.003766993142    -0.001163098131
      13       -0.000685064869    -0.002155428908     0.006574502816
      14        0.012993796474     0.004650001478    -0.010099965706


			-----------------------------------------
			 OPTKING 2.0: for geometry optimizations 
			  - R.A. King,  Bethel University        
			-----------------------------------------

	Previous internal coordinate definitions found.
	---Fragment 1 Geometry and Gradient---
	 H          -4.3268216101        0.0897324857        1.2023782898
	 H          -4.0809322646        3.2044124015        0.0374725716
	 H          -3.4983524838        0.6191644082       -1.9854365677
	 C          -3.2938573666        1.3152738496       -0.0713110022
	 H           0.5304060378        2.5864223483       -0.6183516498
	 H          -0.2946729039        2.0596048257        2.5748583822
	 C          -0.4813082208        1.3484612503        0.6629218649
	 H           1.0512829808       -2.0179379446        2.4043292119
	 H          -0.6826913031       -2.5955523766       -0.3908336175
	 C           0.6597906556       -1.3388204912        0.5115588658
	 H           3.9158988174       -3.2126692182       -1.1225736294
	 H           4.4891664632       -0.0806082304       -0.1338998018
	 H           2.7552174979       -0.6586311725       -2.9230709627
	 C           3.1272587652       -1.3244054493       -1.0229529218
	             0.0052259127        0.0038187200       -0.0028253473
	             0.0051645746       -0.0047908813        0.0004450184
	             0.0026980652        0.0023641378        0.0061372660
	            -0.0157885672       -0.0052001082       -0.0060147375
	            -0.0037087726       -0.0066728190        0.0018119699
	            -0.0027810962       -0.0063856348       -0.0046782175
	             0.0139540454        0.0178930031        0.0044465226
	             0.0013076474        0.0063086959       -0.0053342273
	             0.0042008625        0.0067448381        0.0006020851
	            -0.0119375947       -0.0178545195        0.0082231415
	            -0.0049021361        0.0050469885        0.0018750872
	            -0.0057416726       -0.0037669931       -0.0011630981
	            -0.0006850649       -0.0021554289        0.0065745028
	             0.0129937965        0.0046500015       -0.0100999657

	---Fragment 1 Intrafragment Coordinates---
	 - Coordinate -           - BOHR/RAD -       - ANG/DEG -
	 R(1,4)           =         2.047255	       1.083360
	 R(2,4)           =         2.049430	       1.084512
	 R(3,4)           =         2.047013	       1.083233
	 R(4,7)           =         2.906997	       1.538317
	 R(5,7)           =         2.048847	       1.084203
	 R(6,7)           =         2.048428	       1.083982
	 R(7,10)          =         2.923440	       1.547018
	 R(8,10)          =         2.048669	       1.084109
	 R(9,10)          =         2.048401	       1.083967
	 R(10,14)         =         2.905741	       1.537652
	 R(11,14)         =         2.048760	       1.084157
	 R(12,14)         =         2.047496	       1.083488
	 R(13,14)         =         2.047466	       1.083473
	 B(1,4,2)         =         1.901817	     108.966100
	 B(1,4,3)         =         1.904751	     109.134198
	 B(1,4,7)         =         1.915443	     109.746784
	 B(2,4,3)         =         1.901525	     108.949343
	 B(2,4,7)         =         1.925847	     110.342911
	 B(3,4,7)         =         1.914221	     109.676773
	 B(4,7,5)         =         1.903607	     109.068649
	 B(4,7,6)         =         1.904833	     109.138896
	 B(4,7,10)        =         1.932721	     110.736729
	 B(5,7,6)         =         1.905975	     109.204306
	 B(5,7,10)        =         1.907410	     109.286529
	 B(6,7,10)        =         1.909096	     109.383137
	 B(7,10,8)        =         1.908656	     109.357907
	 B(7,10,9)        =         1.908111	     109.326688
	 B(7,10,14)       =         1.932894	     110.746673
	 B(8,10,9)        =         1.905909	     109.200536
	 B(8,10,14)       =         1.904221	     109.103835
	 B(9,10,14)       =         1.903847	     109.082422
	 B(10,14,11)      =         1.926214	     110.363925
	 B(10,14,12)      =         1.916159	     109.787837
	 B(10,14,13)      =         1.914954	     109.718757
	 B(11,14,12)      =         1.901761	     108.962851
	 B(11,14,13)      =         1.901297	     108.936311
	 B(12,14,13)      =         1.903182	     109.044289
	 D(1,4,7,5)       =        -3.137163	    -179.746190
	 D(1,4,7,6)       =        -1.056158	     -60.513414
	 D(1,4,7,10)      =         1.046369	      59.952535
	 D(2,4,7,5)       =        -1.041174	     -59.654895
	 D(2,4,7,6)       =         1.039830	      59.577881
	 D(2,4,7,10)      =        -3.140828	    -179.956170
	 D(3,4,7,5)       =         1.053675	      60.371148
	 D(3,4,7,6)       =         3.134680	     179.603925
	 D(3,4,7,10)      =        -1.045978	     -59.930127
	 D(4,7,10,8)      =        -1.914214	    -109.676395
	 D(4,7,10,9)      =         0.171676	       9.836315
	 D(4,7,10,14)     =         2.269917	     130.056648
	 D(5,7,10,8)      =         2.271587	     130.152340
	 D(5,7,10,9)      =        -1.925708	    -110.334950
	 D(5,7,10,14)     =         0.172532	       9.885384
	 D(6,7,10,8)      =         0.185774	      10.644046
	 D(6,7,10,9)      =         2.271664	     130.156756
	 D(6,7,10,14)     =        -1.913281	    -109.622911
	 D(7,10,14,11)    =        -3.140966	    -179.964086
	 D(7,10,14,12)    =         1.045613	      59.909235
	 D(7,10,14,13)    =        -1.045702	     -59.914293
	 D(8,10,14,11)    =         1.040522	      59.617543
	 D(8,10,14,12)    =        -1.056084	     -60.509136
	 D(8,10,14,13)    =         3.135787	     179.667336
	 D(9,10,14,11)    =        -1.040183	     -59.598108
	 D(9,10,14,12)    =        -3.136789	    -179.724787
	 D(9,10,14,13)    =         1.055081	      60.451685

	Current energy   :      -157.8372464277

	Energy change for the previous step:
		Projected    :        -0.0053326205
		Actual       :        -0.0041214150

	Performing BFGS update.
	Previous computed or guess Hessian on step 1.
	Steps to be used in Hessian update: 1
	Adding user-defined constraint: Fragment 1; Coordinate 49:
		Value =     2.269917; Fixed value    =     2.268930
		Force =    -0.000518; Force constant =     0.525000
	Removing off-diagonal coupling between coordinate 49 and others.
	Taking RFO optimization step.
	Going to follow RFO solution 1.
	Using RFO vector 1.

	Determining step-restricting scale parameter for RS-RFO.
	Maximum step size allowed    0.10000

	 Iter      |step|        alpha        rfo_root  
	------------------------------------------------
	    0     0.18681       1.00000           1
	    1     0.14277       7.41895           1
	    2     0.11490      17.97939           1
	    3     0.10283      26.37594           1
	    4     0.10014      28.79558           1
	    5     0.10000      28.92517           1
	------------------------------------------------
	Norm of target step-size    0.10000
	Projected energy change by RFO approximation:        -0.0026959170

	Back-transformation to cartesian coordinates...
	Successfully converged to displaced geometry.

	--- Internal Coordinate Step in ANG or DEG, aJ/ANG or AJ/DEG ---
	 ---------------------------------------------------------------------------
	   Coordinate                Previous        Force       Change         New 
	   ----------                --------       ------       ------       ------
	    1 R(1,4)          =      1.083360     0.055040     0.008301     1.091661
	    2 R(2,4)          =      1.084512     0.052529     0.007660     1.092172
	    3 R(3,4)          =      1.083233     0.056125     0.008463     1.091696
	    4 R(4,7)          =      1.538317    -0.026577    -0.006914     1.531403
	    5 R(5,7)          =      1.084203     0.057641     0.008863     1.093066
	    6 R(6,7)          =      1.083982     0.056326     0.008411     1.092392
	    7 R(7,10)         =      1.547018     0.007833    -0.000792     1.546226
	    8 R(8,10)         =      1.084109     0.055774     0.008333     1.092442
	    9 R(9,10)         =      1.083967     0.058960     0.009037     1.093004
	   10 R(10,14)        =      1.537652    -0.024041    -0.006411     1.531242
	   11 R(11,14)        =      1.084157     0.054620     0.007937     1.092094
	   12 R(12,14)        =      1.083488     0.054480     0.008220     1.091708
	   13 R(13,14)        =      1.083473     0.055017     0.008307     1.091780
	   14 B(1,4,2)        =    108.966100    -0.000202    -0.708036   108.258064
	   15 B(1,4,3)        =    109.134198    -0.000177    -0.771818   108.362380
	   16 B(1,4,7)        =    109.746784     0.000159     0.647335   110.394120
	   17 B(2,4,3)        =    108.949343    -0.000189    -0.669882   108.279461
	   18 B(2,4,7)        =    110.342911     0.000273     0.894924   111.237836
	   19 B(3,4,7)        =    109.676773     0.000127     0.545598   110.222371
	   20 B(4,7,5)        =    109.068649    -0.000096    -0.195513   108.873135
	   21 B(4,7,6)        =    109.138896    -0.000105    -0.117334   109.021562
	   22 B(4,7,10)       =    110.736729     0.000379     1.180151   111.916880
	   23 B(5,7,6)        =    109.204306    -0.000112    -1.109007   108.095299
	   24 B(5,7,10)       =    109.286529    -0.000051     0.001452   109.287980
	   25 B(6,7,10)       =    109.383137    -0.000021     0.182137   109.565274
	   26 B(7,10,8)       =    109.357907    -0.000019     0.193775   109.551681
	   27 B(7,10,9)       =    109.326688    -0.000055    -0.018600   109.308088
	   28 B(7,10,14)      =    110.746673     0.000378     1.173965   111.920638
	   29 B(8,10,9)       =    109.200536    -0.000112    -1.109775   108.090762
	   30 B(8,10,14)      =    109.103835    -0.000103    -0.101871   109.001964
	   31 B(9,10,14)      =    109.082422    -0.000095    -0.195639   108.886783
	   32 B(10,14,11)     =    110.363925     0.000273     0.885382   111.249307
	   33 B(10,14,12)     =    109.787837     0.000151     0.617584   110.405421
	   34 B(10,14,13)     =    109.718757     0.000120     0.520707   110.239464
	   35 B(11,14,12)     =    108.962851    -0.000200    -0.701165   108.261685
	   36 B(11,14,13)     =    108.936311    -0.000186    -0.660041   108.276270
	   37 B(12,14,13)     =    109.044289    -0.000167    -0.724191   108.320098
	   38 D(1,4,7,5)      =   -179.746190     0.000022     0.577458  -179.168732
	   39 D(1,4,7,6)      =    -60.513414    -0.000036    -0.941348   -61.454761
	   40 D(1,4,7,10)     =     59.952535    -0.000003    -0.039893    59.912641
	   41 D(2,4,7,5)      =    -59.654895     0.000028     0.690806   -58.964089
	   42 D(2,4,7,6)      =     59.577881    -0.000031    -0.827999    58.749882
	   43 D(2,4,7,10)     =   -179.956170     0.000002     0.073455  -179.882715
	   44 D(3,4,7,5)      =     60.371148     0.000032     0.782155    61.153304
	   45 D(3,4,7,6)      =    179.603925    -0.000026    -0.736650   178.867275
	   46 D(3,4,7,10)     =    -59.930127     0.000006     0.164804   -59.765322
	   47 D(4,7,10,8)     =   -109.676395     0.000027     0.836144  -108.840251
	   48 D(4,7,10,9)     =      9.836315    -0.000015    -0.409318     9.426997
	   49 D(4,7,10,14)    =    130.056648     0.000005     0.081411   130.138059
	   50 D(5,7,10,8)     =    130.152340     0.000007     0.329515   130.481855
	   51 D(5,7,10,9)     =   -110.334950    -0.000034    -0.915947  -111.250896
	   52 D(5,7,10,14)    =      9.885384    -0.000015    -0.425218     9.460165
	   53 D(6,7,10,8)     =     10.644046     0.000048     1.568952    12.212998
	   54 D(6,7,10,9)     =    130.156756     0.000007     0.323490   130.480246
	   55 D(6,7,10,14)    =   -109.622911     0.000026     0.814218  -108.808692
	   56 D(7,10,14,11)   =   -179.964086     0.000003     0.086329  -179.877756
	   57 D(7,10,14,12)   =     59.909235    -0.000002    -0.011256    59.897980
	   58 D(7,10,14,13)   =    -59.914293     0.000006     0.168737   -59.745556
	   59 D(8,10,14,11)   =     59.617543    -0.000031    -0.834692    58.782852
	   60 D(8,10,14,12)   =    -60.509136    -0.000036    -0.932277   -61.441412
	   61 D(8,10,14,13)   =    179.667336    -0.000027    -0.752284   178.915052
	   62 D(9,10,14,11)   =    -59.598108     0.000027     0.675789   -58.922319
	   63 D(9,10,14,12)   =   -179.724787     0.000022     0.578204  -179.146583
	   64 D(9,10,14,13)   =     60.451685     0.000031     0.758196    61.209881
	 ---------------------------------------------------------------------------
	 Forces used to impose fixed constraints are not included.
	  Forces zeroed: 49 

  ==> Convergence Check <==

  Measures of convergence in internal coordinates in au.
  Criteria marked as inactive (o), active & met (*), and active & unmet ( ).
  ---------------------------------------------------------------------------------------------
   Step     Total Energy     Delta E     MAX Force     RMS Force      MAX Disp      RMS Disp   
  ---------------------------------------------------------------------------------------------
    Convergence Criteria    1.00e-06 *    3.00e-04 *             o    1.20e-03 *             o
  ---------------------------------------------------------------------------------------------
      2    -157.83724643   -4.12e-03      7.16e-03      3.23e-03 o    2.74e-02      1.25e-02 o  ~
  ---------------------------------------------------------------------------------------------

	Writing optimization data to binary file.
	Structure for next step:
	Cartesian Geometry (in Angstrom)
	    H    -2.3104627259   0.0440720420   0.6383214352
	    H    -2.1804928651   1.7002930573   0.0286638862
	    H    -1.8749232147   0.3332227309  -1.0531551231
	    C    -1.7498896293   0.6984233133  -0.0319820307
	    H     0.2675618125   1.3808692265  -0.3270879035
	    H    -0.1624739467   1.0951822392   1.3650442881
	    C    -0.2666241132   0.7081419610   0.3488386543
	    H     0.5629389984  -1.0729806182   1.2730958055
	    H    -0.3488844642  -1.3855780644  -0.2103137188
	    C     0.3599045585  -0.7030012828   0.2654641025
	    H     2.0952531152  -1.7048143659  -0.5915368064
	    H     2.3960918969  -0.0392897981  -0.0746034181
	    H     1.4798657524  -0.3543683772  -1.5559397305
	    C     1.6635455557  -0.7031107508  -0.5377923838
			--------------------------
			 OPTKING Finished Execution 
			--------------------------

    Structure for next step:
    Molecular point group: c1
    Full point group: C1

    Geometry (in Angstrom), charge = 0, multiplicity = 1:

    H           -2.310585316175     0.044037254118     0.637927870868
    H           -2.180615455406     1.700258269395     0.028270321807
    H           -1.875045804960     0.333187943027    -1.053548687438
    C           -1.750012219581     0.698388525430    -0.032375595037
    H            0.267439222241     1.380834438626    -0.327481467853
    H           -0.162596536929     1.095147451284     1.364650723742
    C           -0.266746703513     0.708107173149     0.348445089927
    H            0.562816408172    -1.073015406110     1.272702241094
    H           -0.349007054515    -1.385612852264    -0.210707283193
    C            0.359781968230    -0.703036070679     0.265070538099
    H            2.095130524939    -1.704849153778    -0.591930370774
    H            2.395969306627    -0.039324585969    -0.074996982488
    H            1.479743162104    -0.354403165115    -1.556333294825
    C            1.663422965463    -0.703145538659    -0.538185948182

gradient() will perform analytic gradient computation.
    SCF Algorithm Type (re)set to DF.

*** tstart() called on lski1497
*** at Thu Feb 16 16:23:31 2017


         ---------------------------------------------------------
                                   SCF
            by Justin Turney, Rob Parrish, and Andy Simmonett
                              RHF Reference
                        1 Threads,   1000 MiB Core
         ---------------------------------------------------------

  ==> Geometry <==

    Molecular point group: c1
    Full point group: C1

    Geometry (in Angstrom), charge = 0, multiplicity = 1:

       Center              X                  Y                   Z               Mass       
    ------------   -----------------  -----------------  -----------------  -----------------
           H         -2.310585316175     0.044037254118     0.637927870868     1.007825032070
           H         -2.180615455406     1.700258269395     0.028270321807     1.007825032070
           H         -1.875045804960     0.333187943027    -1.053548687438     1.007825032070
           C         -1.750012219581     0.698388525430    -0.032375595037    12.000000000000
           H          0.267439222241     1.380834438626    -0.327481467853     1.007825032070
           H         -0.162596536929     1.095147451284     1.364650723742     1.007825032070
           C         -0.266746703513     0.708107173149     0.348445089927    12.000000000000
           H          0.562816408172    -1.073015406110     1.272702241094     1.007825032070
           H         -0.349007054515    -1.385612852264    -0.210707283193     1.007825032070
           C          0.359781968230    -0.703036070679     0.265070538099    12.000000000000
           H          2.095130524939    -1.704849153778    -0.591930370774     1.007825032070
           H          2.395969306627    -0.039324585969    -0.074996982488     1.007825032070
           H          1.479743162104    -0.354403165115    -1.556333294825     1.007825032070
           C          1.663422965463    -0.703145538659    -0.538185948182    12.000000000000

  Running in c1 symmetry.

  Rotational constants: A =      0.63760  B =      0.12552  C =      0.12307 [cm^-1]
  Rotational constants: A =  19114.72949  B =   3762.98965  C =   3689.53417 [MHz]
  Nuclear repulsion =  130.960999822113280

  Charge       = 0
  Multiplicity = 1
  Electrons    = 34
  Nalpha       = 17
  Nbeta        = 17

  ==> Algorithm <==

  SCF Algorithm Type is DF.
  DIIS enabled.
  MOM disabled.
  Fractional occupation disabled.
  Guess Type is READ.
  Energy threshold   = 1.00e-10
  Density threshold  = 1.00e-10
  Integral threshold = 0.00e+00

  ==> Primary Basis <==

  Basis Set: 6-31G(D)
    Number of shells: 44
    Number of basis function: 80
    Number of Cartesian functions: 80
    Spherical Harmonics?: false
    Max angular momentum: 2

  ==> Pre-Iterations <==

   -------------------------------------------------------
    Irrep   Nso     Nmo     Nalpha   Nbeta   Ndocc  Nsocc
   -------------------------------------------------------
     A         80      80       0       0       0       0
   -------------------------------------------------------
    Total      80      80      17      17      17       0
   -------------------------------------------------------

  ==> Integral Setup <==

  ==> DFJK: Density-Fitted J/K Matrices <==

    J tasked:                  Yes
    K tasked:                  Yes
    wK tasked:                  No
    OpenMP threads:              1
    Integrals threads:           1
    Memory (MB):               715
    Algorithm:                Core
    Integral Cache:           NONE
    Schwarz Cutoff:          1E-12
    Fitting Condition:       1E-12

   => Auxiliary Basis Set <=

  Basis Set: 
    Number of shells: 186
    Number of basis function: 574
    Number of Cartesian functions: 574
    Spherical Harmonics?: false
    Max angular momentum: 3

  Minimum eigenvalue in the overlap matrix is 4.8673413945E-03.
  Using Symmetric Orthogonalization.
  SCF Guess was Projection but file not found.
  Switching over to SAD guess.

  SCF Guess: Superposition of Atomic Densities via on-the-fly atomic UHF.

  ==> Iterations <==

                           Total Energy        Delta E     RMS |[F,P]|

   @DF-RHF iter   0:  -158.83198361868963   -1.58832e+02   4.61591e-02 
   @DF-RHF iter   1:  -157.20437612120938    1.62761e+00   3.86823e-03 
   @DF-RHF iter   2:  -157.28348137775899   -7.91053e-02   1.11259e-03 DIIS
   @DF-RHF iter   3:  -157.29177472611943   -8.29335e-03   2.63447e-04 DIIS
   @DF-RHF iter   4:  -157.29215458684180   -3.79861e-04   7.55448e-05 DIIS
   @DF-RHF iter   5:  -157.29219170490845   -3.71181e-05   1.19004e-05 DIIS
   @DF-RHF iter   6:  -157.29219279433769   -1.08943e-06   1.75737e-06 DIIS
   @DF-RHF iter   7:  -157.29219281353963   -1.92019e-08   5.69923e-07 DIIS
   @DF-RHF iter   8:  -157.29219281498050   -1.44087e-09   1.15200e-07 DIIS
   @DF-RHF iter   9:  -157.29219281507628   -9.57812e-11   2.80403e-08 DIIS
   @DF-RHF iter  10:  -157.29219281508270   -6.42331e-12   5.70568e-09 DIIS
   @DF-RHF iter  11:  -157.29219281508293   -2.27374e-13   9.59571e-10 DIIS
   @DF-RHF iter  12:  -157.29219281508310   -1.70530e-13   2.16467e-10 DIIS
   @DF-RHF iter  13:  -157.29219281508315   -5.68434e-14   4.82177e-11 DIIS

  ==> Post-Iterations <==

    Orbital Energies (a.u.)
    -----------------------

    Doubly Occupied:                                                      

       1A    -11.214829     2A    -11.214280     3A    -11.209657  
       4A    -11.209646     5A     -1.066905     6A     -0.978254  
       7A     -0.858765     8A     -0.785950     9A     -0.633372  
      10A     -0.594333    11A     -0.579924    12A     -0.553779  
      13A     -0.508167    14A     -0.505781    15A     -0.465293  
      16A     -0.458760    17A     -0.450320  

    Virtual:                                                              

      18A      0.232422    19A      0.266339    20A      0.285592  
      21A      0.293957    22A      0.320184    23A      0.326123  
      24A      0.327584    25A      0.335116    26A      0.344447  
      27A      0.353412    28A      0.414907    29A      0.447542  
      30A      0.455113    31A      0.711090    32A      0.719895  
      33A      0.739140    34A      0.781292    35A      0.814857  
      36A      0.826307    37A      0.832961    38A      0.938418  
      39A      0.938521    40A      0.998734    41A      1.068009  
      42A      1.088939    43A      1.152431    44A      1.161714  
      45A      1.168122    46A      1.187886    47A      1.191867  
      48A      1.202146    49A      1.234086    50A      1.234946  
      51A      1.244928    52A      1.258620    53A      1.264642  
      54A      1.464814    55A      1.662548    56A      1.739041  
      57A      1.760866    58A      1.912801    59A      1.964854  
      60A      2.086667    61A      2.199612    62A      2.217986  
      63A      2.288714    64A      2.296163    65A      2.337178  
      66A      2.432843    67A      2.485905    68A      2.603816  
      69A      2.635746    70A      2.669916    71A      2.705273  
      72A      2.726574    73A      2.770528    74A      2.888622  
      75A      3.018204    76A      3.077293    77A      4.557238  
      78A      4.653026    79A      4.802429    80A      4.959956  

    Final Occupation by Irrep:
              A 
    DOCC [    17 ]

  Energy converged.

  @DF-RHF Final Energy:  -157.29219281508315

   => Energetics <=

    Nuclear Repulsion Energy =            130.9609998221132798
    One-Electron Energy =                -469.9303498434194921
    Two-Electron Energy =                 181.6771572062232281
    DFT Exchange-Correlation Energy =       0.0000000000000000
    Empirical Dispersion Energy =           0.0000000000000000
    PCM Polarization Energy =               0.0000000000000000
    EFP Energy =                            0.0000000000000000
    Total Energy =                       -157.2921928150830126


  Saving occupied orbitals to File 180.

*** tstop() called on lski1497 at Thu Feb 16 16:23:38 2017
Module time:
	user time   =       5.69 seconds =       0.09 minutes
	system time =       0.17 seconds =       0.00 minutes
	total time  =          7 seconds =       0.12 minutes
Total time:
	user time   =      55.47 seconds =       0.92 minutes
	system time =       1.61 seconds =       0.03 minutes
	total time  =         65 seconds =       1.08 minutes


Properties will be evaluated at   0.000000,   0.000000,   0.000000 Bohr

Properties computed using the SCF density matrix

  Nuclear Dipole Moment: (a.u.)
     X:    -0.0720      Y:    -0.0035      Z:    -0.4795

  Electronic Dipole Moment: (a.u.)
     X:     0.0757      Y:     0.0037      Z:     0.5045

  Dipole Moment: (a.u.)
     X:     0.0038      Y:     0.0002      Z:     0.0250     Total:     0.0253

  Dipole Moment: (Debye)
     X:     0.0096      Y:     0.0005      Z:     0.0635     Total:     0.0642


  //>>>>>>>>>>>>>>>>>>>>>>>>>>>>>>>>>>>//
  //               DFMP2               //
  //<<<<<<<<<<<<<<<<<<<<<<<<<<<<<<<<<<<//


*** tstart() called on lski1497
*** at Thu Feb 16 16:23:38 2017


*** tstop() called on lski1497 at Thu Feb 16 16:23:39 2017
Module time:
	user time   =       0.64 seconds =       0.01 minutes
	system time =       0.00 seconds =       0.00 minutes
	total time  =          1 seconds =       0.02 minutes
Total time:
	user time   =      56.13 seconds =       0.94 minutes
	system time =       1.61 seconds =       0.03 minutes
	total time  =         66 seconds =       1.10 minutes
	 --------------------------------------------------------
	                          DF-MP2                         
	      2nd-Order Density-Fitted Moller-Plesset Theory     
	              RMP2 Wavefunction,   1 Threads             
	                                                         
	        Rob Parrish, Justin Turney, Andy Simmonett,      
	           Ed Hohenstein, and C. David Sherrill          
	 --------------------------------------------------------

   => Auxiliary Basis Set <=

  Basis Set: 
    Number of shells: 132
    Number of basis function: 364
    Number of Cartesian functions: 414
    Spherical Harmonics?: true
    Max angular momentum: 3

	 --------------------------------------------------------
	                 NBF =    80, NAUX =   364
	 --------------------------------------------------------
	   CLASS    FOCC     OCC    AOCC    AVIR     VIR    FVIR
	   PAIRS       0      17      17      63      63       0
	 --------------------------------------------------------

DGAS Warning! /src/lib/libfock/apps.cc:80 is not currently checking restricted

         ------------------------------------------------------------
                                     CPHF                           
                                  Rob Parrish                       
         ------------------------------------------------------------

  ==> Geometry <==

    Molecular point group: c1
    Full point group: C1

    Geometry (in Angstrom), charge = 0, multiplicity = 1:

       Center              X                  Y                   Z               Mass       
    ------------   -----------------  -----------------  -----------------  -----------------
           H         -2.310585316175     0.044037254118     0.637927870868     1.007825032070
           H         -2.180615455406     1.700258269395     0.028270321807     1.007825032070
           H         -1.875045804960     0.333187943027    -1.053548687438     1.007825032070
           C         -1.750012219581     0.698388525430    -0.032375595037    12.000000000000
           H          0.267439222241     1.380834438626    -0.327481467853     1.007825032070
           H         -0.162596536929     1.095147451284     1.364650723742     1.007825032070
           C         -0.266746703513     0.708107173149     0.348445089927    12.000000000000
           H          0.562816408172    -1.073015406110     1.272702241094     1.007825032070
           H         -0.349007054515    -1.385612852264    -0.210707283193     1.007825032070
           C          0.359781968230    -0.703036070679     0.265070538099    12.000000000000
           H          2.095130524939    -1.704849153778    -0.591930370774     1.007825032070
           H          2.395969306627    -0.039324585969    -0.074996982488     1.007825032070
           H          1.479743162104    -0.354403165115    -1.556333294825     1.007825032070
           C          1.663422965463    -0.703145538659    -0.538185948182    12.000000000000

  Nuclear repulsion =  130.960999822113280
  Reference energy  = -157.292192815083155

  ==> Basis Set <==

  Basis Set: 6-31G(D)
    Number of shells: 44
    Number of basis function: 80
    Number of Cartesian functions: 80
    Spherical Harmonics?: false
    Max angular momentum: 2

  ==> CGRSolver (by Rob Parrish) <==

   Number of roots    =         1
   Preconditioning    =    JACOBI
   Convergence cutoff =     1E-06
   Maximum iterations =       100

  ==> CPHFRHamiltonian (by Rob Parrish) <== 

  ==> DFJK: Density-Fitted J/K Matrices <==

    J tasked:                  Yes
    K tasked:                  Yes
[...]

   => Auxiliary Basis Set <=

  Basis Set: 
    Number of shells: 186
    Number of basis function: 574
    Number of Cartesian functions: 574
    Spherical Harmonics?: false
    Max angular momentum: 3

  ==> CPHF Iterations <==

  => Iterations <=

             Iter  Converged  Remaining    Residual
  CGR           1          0          1   7.506E-02
  CGR           2          0          1   9.312E-03
  CGR           3          0          1   2.828E-03
  CGR           4          0          1   4.014E-04
  CGR           5          0          1   7.774E-05
  CGR           6          0          1   1.809E-05
  CGR           7          0          1   2.824E-06
  CGR           8          1          0   5.337E-07

    CGRSolver converged.

  ==> DFCorrGrad: Density-Fitted Correlated Gradients <==

    OpenMP threads:              1
    Integrals threads:           1
    Memory (MB):               715
    Schwarz Cutoff:          0E+00
    Fitting Condition:       1E-12

   => Auxiliary Basis Set <=

  Basis Set: 
    Number of shells: 186
    Number of basis function: 510
    Number of Cartesian functions: 574
    Spherical Harmonics?: true
    Max angular momentum: 3

	-----------------------------------------------------------
	 ==================> DF-MP2 Energies <==================== 
	-----------------------------------------------------------
	 Reference Energy          =    -157.2925224324255566 [Eh]
	 Singles Energy            =      -0.0000000000000000 [Eh]
	 Same-Spin Energy          =      -0.1242889760572786 [Eh]
	 Opposite-Spin Energy      =      -0.4223961377598797 [Eh]
	 Correlation Energy        =      -0.5466851138171582 [Eh]
	 Total Energy              =    -157.8392075462427044 [Eh]
	-----------------------------------------------------------
	 ================> DF-SCS-MP2 Energies <================== 
	-----------------------------------------------------------
	 SCS Same-Spin Scale       =       0.3333333333333333 [-]
	 SCS Opposite-Spin Scale   =       1.2000000000000000 [-]
	 SCS Same-Spin Energy      =      -0.0414296586857595 [Eh]
	 SCS Opposite-Spin Energy  =      -0.5068753653118556 [Eh]
	 SCS Correlation Energy    =      -0.5483050239976152 [Eh]
	 SCS Total Energy          =    -157.8408274564231704 [Eh]
	-----------------------------------------------------------


  -Total Gradient:
     Atom            X                  Y                   Z
    ------   -----------------  -----------------  -----------------
       1       -0.000000218463    -0.000000249944    -0.000002781668
       2        0.000000467424    -0.000006231746    -0.000000197078
       3       -0.000006414489     0.000001780124     0.000004547271
       4        0.000450950827     0.000306573020    -0.001764871304
       5        0.000007865729     0.000003639024     0.000010529763
       6        0.000018358346     0.000000580458    -0.000001415929
       7       -0.000999110585    -0.000570362753     0.001836368346
       8       -0.000018182495    -0.000000351822     0.000003943838
       9       -0.000004289139    -0.000003294636     0.000012389896
      10        0.001497194506     0.000597653856     0.001448761653
      11       -0.000000546661     0.000006362849    -0.000000220969
      12       -0.000000520889     0.000000029766    -0.000002639399
      13        0.000007417985    -0.000001771979     0.000002527944
      14       -0.000952972099    -0.000334356218    -0.001546942366


			-----------------------------------------
			 OPTKING 2.0: for geometry optimizations 
			  - R.A. King,  Bethel University        
			-----------------------------------------

	Previous internal coordinate definitions found.
	---Fragment 1 Geometry and Gradient---
	 H          -4.3924294543        0.0818718109        1.1989027829
	 H          -4.1319901738        3.2188092335        0.0762084914
	 H          -3.5721774547        0.6481795200       -1.9876108237
	 C          -3.3130982529        1.3252918647       -0.0516964311
	 H           0.4835392596        2.6150978407       -0.6230222052
	 H          -0.2747607949        2.1091094705        2.5535394348
	 C          -0.5180293550        1.3256078506        0.6533415455
	 H           1.0246706165       -2.0674921930        2.3916339883
	 H          -0.6399741122       -2.6237742948       -0.4085617374
	 C           0.6917336214       -1.3159669906        0.4921168067
	 H           3.9768389339       -3.2274250965       -1.0992415400
	 H           4.5505998048       -0.0731195771       -0.1559530714
	 H           2.8239713738       -0.6896777458       -2.9462948037
	 C           3.1521355826       -1.3342254808       -1.0097429510
	            -0.0000002185       -0.0000002499       -0.0000027817
	             0.0000004674       -0.0000062317       -0.0000001971
	            -0.0000064145        0.0000017801        0.0000045473
	             0.0004509508        0.0003065730       -0.0017648713
	             0.0000078657        0.0000036390        0.0000105298
	             0.0000183583        0.0000005805       -0.0000014159
	            -0.0009991106       -0.0005703628        0.0018363683
	            -0.0000181825       -0.0000003518        0.0000039438
	            -0.0000042891       -0.0000032946        0.0000123899
	             0.0014971945        0.0005976539        0.0014487617
	            -0.0000005467        0.0000063628       -0.0000002210
	            -0.0000005209        0.0000000298       -0.0000026394
	             0.0000074180       -0.0000017720        0.0000025279
	            -0.0009529721       -0.0003343562       -0.0015469424

	---Fragment 1 Intrafragment Coordinates---
	 - Coordinate -           - BOHR/RAD -       - ANG/DEG -
	 R(1,4)           =         2.067619	       1.094137
	 R(2,4)           =         2.066967	       1.093792
	 R(3,4)           =         2.067213	       1.093922
	 R(4,7)           =         2.882618	       1.525416
	 R(5,7)           =         2.072445	       1.096691
	 R(6,7)           =         2.069736	       1.095257
	 R(7,10)          =         2.909886	       1.539845
	 R(8,10)          =         2.069735	       1.095257
	 R(9,10)          =         2.072445	       1.096691
	 R(10,14)         =         2.882619	       1.525416
	 R(11,14)         =         2.066966	       1.093792
	 R(12,14)         =         2.067619	       1.094137
	 R(13,14)         =         2.067212	       1.093922
	 B(1,4,2)         =         1.882491	     107.858785
	 B(1,4,3)         =         1.879716	     107.699793
	 B(1,4,7)         =         1.937234	     110.995357
	 B(2,4,3)         =         1.884265	     107.960426
	 B(2,4,7)         =         1.948635	     111.648569
	 B(3,4,7)         =         1.929014	     110.524339
	 B(4,7,5)         =         1.894455	     108.544263
	 B(4,7,6)         =         1.916178	     109.788912
	 B(4,7,10)        =         1.970847	     112.921204
	 B(5,7,6)         =         1.847395	     105.847946
	 B(5,7,10)        =         1.906881	     109.256206
	 B(6,7,10)        =         1.923727	     110.221429
	 B(7,10,8)        =         1.923726	     110.221397
	 B(7,10,9)        =         1.906879	     109.256104
	 B(7,10,14)       =         1.970847	     112.921231
	 B(8,10,9)        =         1.847396	     105.847996
	 B(8,10,14)       =         1.916181	     109.789080
	 B(9,10,14)       =         1.894453	     108.544149
	 B(10,14,11)      =         1.948635	     111.648564
	 B(10,14,12)      =         1.937236	     110.995429
	 B(10,14,13)      =         1.929012	     110.524270
	 B(11,14,12)      =         1.882490	     107.858732
	 B(11,14,13)      =         1.884264	     107.960401
	 B(12,14,13)      =         1.879717	     107.699875
	 D(1,4,7,5)       =        -3.125607	    -179.084114
	 D(1,4,7,6)       =        -1.113842	     -63.818443
	 D(1,4,7,10)      =         1.040489	      59.615646
	 D(2,4,7,5)       =        -1.024583	     -58.704284
	 D(2,4,7,6)       =         0.987182	      56.561387
	 D(2,4,7,10)      =         3.141514	     179.995476
	 D(3,4,7,5)       =         1.073092	      61.483649
	 D(3,4,7,6)       =         3.084858	     176.749320
	 D(3,4,7,10)      =        -1.043996	     -59.816591
	 D(4,7,10,8)      =        -1.859159	    -106.521957
	 D(4,7,10,9)      =         0.163841	       9.387401
	 D(4,7,10,14)     =         2.273873	     130.283331
	 D(5,7,10,8)      =         2.313991	     132.581915
	 D(5,7,10,9)      =        -1.946194	    -111.508727
	 D(5,7,10,14)     =         0.163838	       9.387202
	 D(6,7,10,8)      =         0.290991	      16.672540
	 D(6,7,10,9)      =         2.313991	     132.581898
	 D(6,7,10,14)     =        -1.859163	    -106.522172
	 D(7,10,14,11)    =         3.141529	     179.996375
	 D(7,10,14,12)    =         1.040505	      59.616567
	 D(7,10,14,13)    =        -1.043982	     -59.815774
	 D(8,10,14,11)    =         0.987196	      56.562182
	 D(8,10,14,12)    =        -1.113828	     -63.817626
	 D(8,10,14,13)    =         3.084870	     176.750034
	 D(9,10,14,11)    =        -1.024571	     -58.703577
	 D(9,10,14,12)    =        -3.125595	    -179.083384
	 D(9,10,14,13)    =         1.073103	      61.484275

	Current energy   :      -157.8392075462

	Energy change for the previous step:
		Projected    :        -0.0000019478
		Actual       :        -0.0000000704

	Performing BFGS update.
	Previous computed or guess Hessian on step 1.
	Steps to be used in Hessian update: 6 5
	Adding user-defined constraint: Fragment 1; Coordinate 49:
		Value =     2.273873; Fixed value    =     2.268930
		Force =    -0.003213; Force constant =     0.650000
	Removing off-diagonal coupling between coordinate 49 and others.
	Taking RFO optimization step.
	Going to follow RFO solution 1.
	Rejecting RFO root 1 because normalization gives large value.
	Using RFO vector 2.
	Norm of target step-size    0.00106
	Projected energy change by RFO approximation:         0.0000000104

	Back-transformation to cartesian coordinates...
	Successfully converged to displaced geometry.

	--- Internal Coordinate Step in ANG or DEG, aJ/ANG or AJ/DEG ---
	 ---------------------------------------------------------------------------
	   Coordinate                Previous        Force       Change         New 
	   ----------                --------       ------       ------       ------
	    1 R(1,4)          =      1.094137     0.000013     0.000005     1.094142
	    2 R(2,4)          =      1.093792     0.000048     0.000013     1.093805
	    3 R(3,4)          =      1.093922     0.000034     0.000013     1.093935
	    4 R(4,7)          =      1.525416     0.000002    -0.000014     1.525402
	    5 R(5,7)          =      1.096691     0.000003    -0.000008     1.096682
	    6 R(6,7)          =      1.095257    -0.000009     0.000000     1.095258
	    7 R(7,10)         =      1.539845     0.000127     0.000029     1.539874
	    8 R(8,10)         =      1.095257    -0.000007     0.000001     1.095257
	    9 R(9,10)         =      1.096691     0.000004    -0.000008     1.096683
	   10 R(10,14)        =      1.525416    -0.000000    -0.000014     1.525402
	   11 R(11,14)        =      1.093792     0.000049     0.000014     1.093805
	   12 R(12,14)        =      1.094137     0.000013     0.000005     1.094142
	   13 R(13,14)        =      1.093922     0.000034     0.000013     1.093934
	   14 B(1,4,2)        =    107.858785     0.000000     0.000535   107.859320
	   15 B(1,4,3)        =    107.699793     0.000000     0.000953   107.700746
	   16 B(1,4,7)        =    110.995357     0.000000    -0.001506   110.993851
	   17 B(2,4,3)        =    107.960426     0.000000     0.000035   107.960461
	   18 B(2,4,7)        =    111.648569    -0.000000     0.000081   111.648650
	   19 B(3,4,7)        =    110.524339    -0.000001    -0.000015   110.524324
	   20 B(4,7,5)        =    108.544263    -0.000001    -0.001957   108.542307
	   21 B(4,7,6)        =    109.788912    -0.000001    -0.013658   109.775254
	   22 B(4,7,10)       =    112.921204     0.000001     0.000471   112.921675
	   23 B(5,7,6)        =    105.847946     0.000001     0.007162   105.855108
	   24 B(5,7,10)       =    109.256206    -0.000000    -0.002848   109.253359
	   25 B(6,7,10)       =    110.221429     0.000001     0.011119   110.232548
	   26 B(7,10,8)       =    110.221397     0.000001     0.011126   110.232523
	   27 B(7,10,9)       =    109.256104    -0.000000    -0.002764   109.253340
	   28 B(7,10,14)      =    112.921231     0.000001     0.000401   112.921632
	   29 B(8,10,9)       =    105.847996     0.000001     0.007206   105.855202
	   30 B(8,10,14)      =    109.789080    -0.000001    -0.013745   109.775335
	   31 B(9,10,14)      =    108.544149    -0.000001    -0.001924   108.542225
	   32 B(10,14,11)     =    111.648564    -0.000000     0.000048   111.648612
	   33 B(10,14,12)     =    110.995429    -0.000000    -0.001598   110.993831
	   34 B(10,14,13)     =    110.524270    -0.000001    -0.000040   110.524229
	   35 B(11,14,12)     =    107.858732     0.000000     0.000608   107.859340
	   36 B(11,14,13)     =    107.960401     0.000000     0.000084   107.960485
	   37 B(12,14,13)     =    107.699875     0.000000     0.000989   107.700864
	   38 D(1,4,7,5)      =   -179.084114    -0.000000     0.010257  -179.073858
	   39 D(1,4,7,6)      =    -63.818443    -0.000000     0.010324   -63.808119
	   40 D(1,4,7,10)     =     59.615646     0.000000     0.014921    59.630567
	   41 D(2,4,7,5)      =    -58.704284     0.000000     0.009959   -58.694325
	   42 D(2,4,7,6)      =     56.561387    -0.000000     0.010026    56.571413
	   43 D(2,4,7,10)     =    179.995476     0.000000     0.014623   180.010099
	   44 D(3,4,7,5)      =     61.483649    -0.000000     0.010047    61.493696
	   45 D(3,4,7,6)      =    176.749320    -0.000000     0.010114   176.759434
	   46 D(3,4,7,10)     =    -59.816591     0.000000     0.014711   -59.801880
	   47 D(4,7,10,8)     =   -106.521957    -0.000000    -0.010116  -106.532073
	   48 D(4,7,10,9)     =      9.387401     0.000000     0.003296     9.390697
	   49 D(4,7,10,14)    =    130.283331    -0.000000    -0.000824   130.282507
	   50 D(5,7,10,8)     =    132.581915    -0.000000    -0.005942   132.575972
	   51 D(5,7,10,9)     =   -111.508727     0.000000     0.007470  -111.501258
	   52 D(5,7,10,14)    =      9.387202     0.000000     0.003350     9.390552
	   53 D(6,7,10,8)     =     16.672540    -0.000000    -0.019249    16.653292
	   54 D(6,7,10,9)     =    132.581898    -0.000000    -0.005837   132.576061
	   55 D(6,7,10,14)    =   -106.522172    -0.000000    -0.009957  -106.532129
	   56 D(7,10,14,11)   =    179.996375     0.000000     0.012640   180.009015
	   57 D(7,10,14,12)   =     59.616567     0.000000     0.012929    59.629497
	   58 D(7,10,14,13)   =    -59.815774     0.000000     0.012751   -59.803022
	   59 D(8,10,14,11)   =     56.562182    -0.000000     0.008149    56.570332
	   60 D(8,10,14,12)   =    -63.817626    -0.000000     0.008439   -63.809187
	   61 D(8,10,14,13)   =    176.750034    -0.000000     0.008261   176.758294
	   62 D(9,10,14,11)   =    -58.703577     0.000000     0.008059   -58.695518
	   63 D(9,10,14,12)   =   -179.083384    -0.000000     0.008348  -179.075036
	   64 D(9,10,14,13)   =     61.484275    -0.000000     0.008170    61.492445
	 ---------------------------------------------------------------------------
	 Forces used to impose fixed constraints are not included.
	  Forces zeroed: 49 

  ==> Convergence Check <==

  Measures of convergence in internal coordinates in au.
  Criteria marked as inactive (o), active & met (*), and active & unmet ( ).
  ---------------------------------------------------------------------------------------------
   Step     Total Energy     Delta E     MAX Force     RMS Force      MAX Disp      RMS Disp   
  ---------------------------------------------------------------------------------------------
    Convergence Criteria    1.00e-06 *    3.00e-04 *             o    1.20e-03 *             o
  ---------------------------------------------------------------------------------------------
      7    -157.83920755   -7.04e-08 *    1.54e-05 *    5.49e-06 o    3.36e-04 *    1.32e-04 o  ~
  ---------------------------------------------------------------------------------------------


  **** Optimization is complete! (in 7 steps) ****

  ==> Optimization Summary <==

  Measures of convergence in internal coordinates in au.
  --------------------------------------------------------------------------------------------------------------- ~
   Step         Total Energy             Delta E       MAX Force       RMS Force        MAX Disp        RMS Disp  ~
  --------------------------------------------------------------------------------------------------------------- ~
      1    -157.833125012649   -157.833125012649      0.01741490      0.00729356      0.02721491      0.01250868  ~
      2    -157.837246427678     -0.004121415029      0.00715644      0.00322689      0.02738337      0.01252076  ~
      3    -157.838748515566     -0.001502087888      0.00199520      0.00099049      0.04508414      0.01251791  ~
      4    -157.839153343597     -0.000404828031      0.00131630      0.00028521      0.02679426      0.00877494  ~
      5    -157.839203498753     -0.000050155156      0.00014100      0.00005944      0.00517690      0.00197207  ~
      6    -157.839207475847     -0.000003977094      0.00004634      0.00001656      0.00148446      0.00072986  ~
      7    -157.839207546243     -0.000000070396      0.00001540      0.00000549      0.00033595      0.00013209  ~
  --------------------------------------------------------------------------------------------------------------- ~

	Writing optimization data to binary file.
	Final energy is   -157.8392075462427
	Final (previous) structure:
	Cartesian Geometry (in Angstrom)
	    H    -2.3243735575   0.0433246963   0.6344320280
	    H    -2.1865550261   1.7033204852   0.0403277967
	    H    -1.8903148941   0.3430018291  -1.0517983475
	    C    -1.7532160853   0.7013142495  -0.0273565731
	    H     0.2558779556   1.3838501755  -0.3296891514
	    H    -0.1453971505   1.1160926622   1.3512748701
	    C    -0.2741293281   0.7014814621   0.3457334553
	    H     0.5422323366  -1.0940697475   1.2655981979
	    H    -0.3386597143  -1.3884415573  -0.2162015597
	    C     0.3660496669  -0.6963797387   0.2604169981
	    H     2.1044525261  -1.7078798035  -0.5816935697
	    H     2.4080737021  -0.0386932137  -0.0825268110
	    H     1.4943812887  -0.3649617444  -1.5591120599
	    C     1.6680383087  -0.7060417156  -0.5343329562
	Saving final (previous) structure.
			--------------------------
			 OPTKING Finished Execution 
			--------------------------

    Final optimized geometry and variables:
    Molecular point group: c1
    Full point group: C1

    Geometry (in Angstrom), charge = 0, multiplicity = 1:

    H           -2.324373557539     0.043324696347     0.634432028039
    H           -2.186555026076     1.703320485171     0.040327796733
    H           -1.890314894055     0.343001829054    -1.051798347467
    C           -1.753216085272     0.701314249540    -0.027356573089
    H            0.255877955643     1.383850175524    -0.329689151437
    H           -0.145397150451     1.116092662222     1.351274870112
    C           -0.274129328054     0.701481462085     0.345733455284
    H            0.542232336579    -1.094069747458     1.265598197917
    H           -0.338659714286    -1.388441557310    -0.216201559709
    C            0.366049666872    -0.696379738706     0.260416998083
    H            2.104452526073    -1.707879803485    -0.581693569683
    H            2.408073702131    -0.038693213686    -0.082526811015
    H            1.494381288716    -0.364961744374    -1.559112059883
    C            1.668038308676    -0.706041715581    -0.534332956177

	Cleaning optimization helper files.

*** Psi4 exiting successfully. Buy a developer a beer!
