    -----------------------------------------------------------------------
          Psi4: An Open-Source Ab Initio Electronic Structure Package
                              Psi4 1.0.0 Driver

                          Git: Rev {master} 6a9a71b 

    J. M. Turney, A. C. Simmonett, R. M. Parrish, E. G. Hohenstein,
    F. A. Evangelista, J. T. Fermann, B. J. Mintz, L. A. Burns, J. J. Wilke,
    M. L. Abrams, N. J. Russ, M. L. Leininger, C. L. Janssen, E. T. Seidl,
    W. D. Allen, H. F. Schaefer, R. A. King, E. F. Valeev, C. D. Sherrill,
    and T. D. Crawford, WIREs Comput. Mol. Sci. 2, 556-565 (2012)
    (doi: 10.1002/wcms.93)

                         Additional Contributions by
    A. E. DePrince, U. Bozkaya, A. Yu. Sokolov, D. G. A. Smith, R. Di Remigio,
    R. M. Richard, J. F. Gonthier, H. R. McAlexander, M. Saitow, and
    B. P. Pritchard
    -----------------------------------------------------------------------


    Psi4 started on: Mon Feb 20 17:33:29 2017

    Process ID:  28189
    PSI4DATADIR: /Users/sternc1/anaconda/share/psi4
    Memory level set to 256.000 MB

  ==> Input File <==

--------------------------------------------------------------------------

memory 1000 mb

molecule butane {
  symmetry C1
  0 1 
  H      1.604   0.760   -8.260
  H      1.745   2.388   -8.880
  H      2.043   1.024   -9.930
  C      2.142   1.395   -8.932
  H      4.169   2.051   -9.210
  H      3.731   1.788   -7.539
  C      3.631   1.416   -8.537
  H      5.267   0.025   -8.509
  H      3.789   -0.604   -7.823
  C      4.203   -0.012   -8.612
  H      4.237   -1.632   -10.021
  H      4.253   -0.049   -10.759
  H      2.775   -0.678   -10.073
  C      3.840   -0.641   -9.970
  units Angstrom
}

dih_string = "4 7 10 14 50"
set optking fixed_dihedral = $dih_string

optimize('MP2/6-31G(d)')
--------------------------------------------------------------------------

  Memory set to 1000.000 MiB by Python script.
gradient() will perform analytic gradient computation.
    SCF Algorithm Type (re)set to DF.

*** tstart() called on lski1497
*** at Mon Feb 20 17:33:31 2017


         ---------------------------------------------------------
                                   SCF
            by Justin Turney, Rob Parrish, and Andy Simmonett
                              RHF Reference
                        1 Threads,   1000 MiB Core
         ---------------------------------------------------------

  ==> Geometry <==

    Molecular point group: c1
    Full point group: C1

    Geometry (in Angstrom), charge = 0, multiplicity = 1:

       Center              X                  Y                   Z               Mass       
    ------------   -----------------  -----------------  -----------------  -----------------
           H         -1.833913878266     0.226087628046     0.767959801186     1.007825032070
           H         -1.692913878266     1.854087628046     0.147959801186     1.007825032070
           H         -1.394913878266     0.490087628046    -0.902040198814     1.007825032070
           C         -1.295913878266     0.861087628046     0.095959801186    12.000000000000
           H          0.731086121734     1.517087628046    -0.182040198814     1.007825032070
           H          0.293086121734     1.254087628046     1.488959801186     1.007825032070
           C          0.193086121734     0.882087628046     0.490959801186    12.000000000000
           H          1.829086121734    -0.508912371954     0.518959801186     1.007825032070
           H          0.351086121734    -1.137912371954     1.204959801186     1.007825032070
           C          0.765086121734    -0.545912371954     0.415959801186    12.000000000000
           H          0.799086121734    -2.165912371954    -0.993040198814     1.007825032070
           H          0.815086121734    -0.582912371954    -1.731040198814     1.007825032070
           H         -0.662913878266    -1.211912371954    -1.045040198814     1.007825032070
           C          0.402086121734    -1.174912371954    -0.942040198814    12.000000000000

  Running in c1 symmetry.

  Rotational constants: A =      0.40463  B =      0.18449  C =      0.14633 [cm^-1]
  Rotational constants: A =  12130.49596  B =   5530.95799  C =   4386.94107 [MHz]
  Nuclear repulsion =  135.184071845277401

  Charge       = 0
  Multiplicity = 1
  Electrons    = 34
  Nalpha       = 17
  Nbeta        = 17

  ==> Algorithm <==

  SCF Algorithm Type is DF.
  DIIS enabled.
  MOM disabled.
  Fractional occupation disabled.
  Guess Type is SAD.
  Energy threshold   = 1.00e-10
  Density threshold  = 1.00e-10
  Integral threshold = 0.00e+00

  ==> Primary Basis <==

  Basis Set: 6-31G(D)
    Number of shells: 44
    Number of basis function: 80
    Number of Cartesian functions: 80
    Spherical Harmonics?: false
    Max angular momentum: 2

  ==> Pre-Iterations <==

   -------------------------------------------------------
    Irrep   Nso     Nmo     Nalpha   Nbeta   Ndocc  Nsocc
   -------------------------------------------------------
     A         80      80       0       0       0       0
   -------------------------------------------------------
    Total      80      80      17      17      17       0
   -------------------------------------------------------

  ==> Integral Setup <==

  ==> DFJK: Density-Fitted J/K Matrices <==

    J tasked:                  Yes
    K tasked:                  Yes
    wK tasked:                  No
    OpenMP threads:              1
    Integrals threads:           1
    Memory (MB):               715
    Algorithm:                Core
    Integral Cache:           NONE
    Schwarz Cutoff:          1E-12
    Fitting Condition:       1E-12

   => Auxiliary Basis Set <=

  Basis Set: 
    Number of shells: 186
    Number of basis function: 574
    Number of Cartesian functions: 574
    Spherical Harmonics?: false
    Max angular momentum: 3

  Minimum eigenvalue in the overlap matrix is 5.0470234167E-03.
  Using Symmetric Orthogonalization.
  SCF Guess: Superposition of Atomic Densities via on-the-fly atomic UHF.

  ==> Iterations <==

                           Total Energy        Delta E     RMS |[F,P]|

   @DF-RHF iter   0:  -158.98771790542173   -1.58988e+02   4.73579e-02 
   @DF-RHF iter   1:  -157.19571112385159    1.79201e+00   4.02285e-03 
   @DF-RHF iter   2:  -157.27865050339534   -8.29394e-02   1.11620e-03 DIIS
   @DF-RHF iter   3:  -157.28684646991456   -8.19597e-03   2.82128e-04 DIIS
   @DF-RHF iter   4:  -157.28727404383136   -4.27574e-04   8.48156e-05 DIIS
   @DF-RHF iter   5:  -157.28731512653076   -4.10827e-05   1.44637e-05 DIIS
   @DF-RHF iter   6:  -157.28731671978869   -1.59326e-06   2.47073e-06 DIIS
   @DF-RHF iter   7:  -157.28731675205512   -3.22664e-08   7.24608e-07 DIIS
   @DF-RHF iter   8:  -157.28731675473108   -2.67596e-09   1.43821e-07 DIIS
   @DF-RHF iter   9:  -157.28731675487387   -1.42791e-10   3.79949e-08 DIIS
   @DF-RHF iter  10:  -157.28731675488581   -1.19371e-11   7.95539e-09 DIIS
   @DF-RHF iter  11:  -157.28731675488609   -2.84217e-13   2.38464e-09 DIIS
   @DF-RHF iter  12:  -157.28731675488626   -1.70530e-13   5.11593e-10 DIIS
   @DF-RHF iter  13:  -157.28731675488638   -1.13687e-13   1.04324e-10 DIIS
   @DF-RHF iter  14:  -157.28731675488655   -1.70530e-13   2.79830e-11 DIIS

  ==> Post-Iterations <==

    Orbital Energies (a.u.)
    -----------------------

    Doubly Occupied:                                                      

       1A    -11.208020     2A    -11.207430     3A    -11.199290  
       4A    -11.199137     5A     -1.075017     6A     -0.971988  
       7A     -0.881041     8A     -0.779093     9A     -0.635702  
      10A     -0.629418    11A     -0.576814    12A     -0.538055  
      13A     -0.529150    14A     -0.505836    15A     -0.469855  
      16A     -0.454174    17A     -0.452655  

    Virtual:                                                              

      18A      0.235214    19A      0.282826    20A      0.290852  
      21A      0.303284    22A      0.318811    23A      0.321866  
      24A      0.344206    25A      0.351779    26A      0.371300  
      27A      0.380488    28A      0.397085    29A      0.416082  
      30A      0.446582    31A      0.715240    32A      0.728841  
      33A      0.745630    34A      0.748827    35A      0.768294  
      36A      0.836277    37A      0.861169    38A      0.927749  
      39A      0.951405    40A      0.995455    41A      1.113709  
      42A      1.127548    43A      1.177760    44A      1.180368  
      45A      1.187155    46A      1.207813    47A      1.215378  
      48A      1.224557    49A      1.240346    50A      1.268639  
      51A      1.271522    52A      1.306901    53A      1.324199  
      54A      1.576543    55A      1.717701    56A      1.724143  
      57A      1.784034    58A      1.876282    59A      1.964156  
      60A      2.046696    61A      2.166828    62A      2.272097  
      63A      2.310334    64A      2.318706    65A      2.351858  
      66A      2.457974    67A      2.493055    68A      2.651419  
      69A      2.674758    70A      2.684676    71A      2.688759  
      72A      2.752607    73A      2.800081    74A      2.935570  
      75A      2.946596    76A      3.093032    77A      4.585902  
      78A      4.693556    79A      4.807700    80A      4.950659  

    Final Occupation by Irrep:
              A 
    DOCC [    17 ]

  Energy converged.

  @DF-RHF Final Energy:  -157.28731675488655

   => Energetics <=

    Nuclear Repulsion Energy =            135.1840718452774013
    One-Electron Energy =                -478.3174270985550720
    Two-Electron Energy =                 185.8460384983914651
    DFT Exchange-Correlation Energy =       0.0000000000000000
    Empirical Dispersion Energy =           0.0000000000000000
    PCM Polarization Energy =               0.0000000000000000
    EFP Energy =                            0.0000000000000000
    Total Energy =                       -157.2873167548862057


  Saving occupied orbitals to File 180.

*** tstop() called on lski1497 at Mon Feb 20 17:33:38 2017
Module time:
	user time   =       4.83 seconds =       0.08 minutes
	system time =       0.20 seconds =       0.00 minutes
	total time  =          7 seconds =       0.12 minutes
Total time:
	user time   =       4.83 seconds =       0.08 minutes
	system time =       0.20 seconds =       0.00 minutes
	total time  =          7 seconds =       0.12 minutes


Properties will be evaluated at   0.000000,   0.000000,   0.000000 Bohr

Properties computed using the SCF density matrix

  Nuclear Dipole Moment: (a.u.)
     X:    -0.7182      Y:    -0.2495      Z:    -0.6791

  Electronic Dipole Moment: (a.u.)
     X:     0.7409      Y:     0.2565      Z:     0.6999

  Dipole Moment: (a.u.)
     X:     0.0227      Y:     0.0070      Z:     0.0208     Total:     0.0316

  Dipole Moment: (Debye)
     X:     0.0576      Y:     0.0178      Z:     0.0529     Total:     0.0802


  //>>>>>>>>>>>>>>>>>>>>>>>>>>>>>>>>>>>//
  //               DFMP2               //
  //<<<<<<<<<<<<<<<<<<<<<<<<<<<<<<<<<<<//


*** tstart() called on lski1497
*** at Mon Feb 20 17:33:38 2017


*** tstop() called on lski1497 at Mon Feb 20 17:33:39 2017
Module time:
	user time   =       0.56 seconds =       0.01 minutes
	system time =       0.00 seconds =       0.00 minutes
	total time  =          1 seconds =       0.02 minutes
Total time:
	user time   =       5.41 seconds =       0.09 minutes
	system time =       0.20 seconds =       0.00 minutes
	total time  =          8 seconds =       0.13 minutes
	 --------------------------------------------------------
	                          DF-MP2                         
	      2nd-Order Density-Fitted Moller-Plesset Theory     
	              RMP2 Wavefunction,   1 Threads             
	                                                         
	        Rob Parrish, Justin Turney, Andy Simmonett,      
	           Ed Hohenstein, and C. David Sherrill          
	 --------------------------------------------------------

   => Auxiliary Basis Set <=

  Basis Set: 
    Number of shells: 132
    Number of basis function: 364
    Number of Cartesian functions: 414
    Spherical Harmonics?: true
    Max angular momentum: 3

	 --------------------------------------------------------
	                 NBF =    80, NAUX =   364
	 --------------------------------------------------------
	   CLASS    FOCC     OCC    AOCC    AVIR     VIR    FVIR
	   PAIRS       0      17      17      63      63       0
	 --------------------------------------------------------

DGAS Warning! /src/lib/libfock/apps.cc:80 is not currently checking restricted

         ------------------------------------------------------------
                                     CPHF                           
                                  Rob Parrish                       
         ------------------------------------------------------------

  ==> Geometry <==

    Molecular point group: c1
    Full point group: C1

    Geometry (in Angstrom), charge = 0, multiplicity = 1:

       Center              X                  Y                   Z               Mass       
    ------------   -----------------  -----------------  -----------------  -----------------
           H         -1.833913878266     0.226087628046     0.767959801186     1.007825032070
           H         -1.692913878266     1.854087628046     0.147959801186     1.007825032070
           H         -1.394913878266     0.490087628046    -0.902040198814     1.007825032070
           C         -1.295913878266     0.861087628046     0.095959801186    12.000000000000
           H          0.731086121734     1.517087628046    -0.182040198814     1.007825032070
           H          0.293086121734     1.254087628046     1.488959801186     1.007825032070
           C          0.193086121734     0.882087628046     0.490959801186    12.000000000000
           H          1.829086121734    -0.508912371954     0.518959801186     1.007825032070
           H          0.351086121734    -1.137912371954     1.204959801186     1.007825032070
           C          0.765086121734    -0.545912371954     0.415959801186    12.000000000000
           H          0.799086121734    -2.165912371954    -0.993040198814     1.007825032070
           H          0.815086121734    -0.582912371954    -1.731040198814     1.007825032070
           H         -0.662913878266    -1.211912371954    -1.045040198814     1.007825032070
           C          0.402086121734    -1.174912371954    -0.942040198814    12.000000000000

  Nuclear repulsion =  135.184071845277401
  Reference energy  = -157.287316754886547

  ==> Basis Set <==

  Basis Set: 6-31G(D)
    Number of shells: 44
    Number of basis function: 80
    Number of Cartesian functions: 80
    Spherical Harmonics?: false
    Max angular momentum: 2

  ==> CGRSolver (by Rob Parrish) <==

   Number of roots    =         1
   Preconditioning    =    JACOBI
   Convergence cutoff =     1E-06
   Maximum iterations =       100

  ==> CPHFRHamiltonian (by Rob Parrish) <== 

  ==> DFJK: Density-Fitted J/K Matrices <==

    J tasked:                  Yes
    K tasked:                  Yes
    wK tasked:                  No
    OpenMP threads:              1
    Integrals threads:           1
    Memory (MB):               715
    Algorithm:                Core
    Integral Cache:           NONE
    Schwarz Cutoff:          1E-12
    Fitting Condition:       1E-12

   => Auxiliary Basis Set <=

  Basis Set: 
    Number of shells: 186
    Number of basis function: 574
    Number of Cartesian functions: 574
    Spherical Harmonics?: false
    Max angular momentum: 3

  ==> CPHF Iterations <==

  => Iterations <=

             Iter  Converged  Remaining    Residual
  CGR           1          0          1   7.542E-02
  CGR           2          0          1   8.607E-03
  CGR           3          0          1   2.284E-03
  CGR           4          0          1   4.348E-04
  CGR           5          0          1   7.778E-05
  CGR           6          0          1   1.431E-05
  CGR           7          0          1   1.969E-06
  CGR           8          1          0   4.718E-07

    CGRSolver converged.

  ==> DFCorrGrad: Density-Fitted Correlated Gradients <==

    OpenMP threads:              1
    Integrals threads:           1
    Memory (MB):               715
    Schwarz Cutoff:          0E+00
    Fitting Condition:       1E-12

   => Auxiliary Basis Set <=

  Basis Set: 
    Number of shells: 186
    Number of basis function: 510
    Number of Cartesian functions: 574
    Spherical Harmonics?: true
    Max angular momentum: 3

	-----------------------------------------------------------
	 ==================> DF-MP2 Energies <==================== 
	-----------------------------------------------------------
	 Reference Energy          =    -157.2873167548865467 [Eh]
	 Singles Energy            =      -0.0000000000000000 [Eh]
	 Same-Spin Energy          =      -0.1252438798711886 [Eh]
	 Opposite-Spin Energy      =      -0.4210940119937231 [Eh]
	 Correlation Energy        =      -0.5463378918649118 [Eh]
	 Total Energy              =    -157.8336546467514552 [Eh]
	-----------------------------------------------------------
	 ================> DF-SCS-MP2 Energies <================== 
	-----------------------------------------------------------
	 SCS Same-Spin Scale       =       0.3333333333333333 [-]
	 SCS Opposite-Spin Scale   =       1.2000000000000000 [-]
	 SCS Same-Spin Energy      =      -0.0417479599570629 [Eh]
	 SCS Opposite-Spin Energy  =      -0.5053128143924678 [Eh]
	 SCS Correlation Energy    =      -0.5470607743495306 [Eh]
	 SCS Total Energy          =    -157.8343775292360647 [Eh]
	-----------------------------------------------------------


  -Total Gradient:
     Atom            X                  Y                   Z
    ------   -----------------  -----------------  -----------------
       1        0.011088985358     0.009899912923    -0.009253061940
       2        0.009657601476    -0.013687820366    -0.000442613485
       3        0.007140741634    -0.000511676243     0.012156396397
       4       -0.026303021864    -0.009931188934    -0.007816567754
       5       -0.009682465942    -0.011722294855     0.009202613578
       6       -0.003619498629    -0.009563481640    -0.015223373564
       7        0.019046344200     0.028900862892     0.006113234597
       8       -0.017704125341     0.002105430551    -0.004880657763
       9        0.004847835608     0.010169879590    -0.014280838823
      10        0.015347033917    -0.017119354695     0.026738794571
      11       -0.005810499696     0.016555992606     0.004743622812
      12       -0.005532586683    -0.007989832248     0.014861434698
      13        0.010215143776     0.006965229022     0.005018074491
      14       -0.008691487816    -0.004071658603    -0.026937057813


			-----------------------------------------
			 OPTKING 2.0: for geometry optimizations 
			  - R.A. King,  Bethel University        
			-----------------------------------------

	Internal coordinates to be generated automatically.
	Detected frag 1 with atoms:  1 2 3 4 5 6 7 8 9 10 11 12 13 14
	---Fragment 1 Bond Connectivity---
	 1 : 4
	 2 : 4
	 3 : 4
	 4 : 1 2 3 7
	 5 : 7
	 6 : 7
	 7 : 4 5 6 10
	 8 : 10
	 9 : 10
	 10 : 7 8 9 14
	 11 : 14
	 12 : 14
	 13 : 14
	 14 : 10 11 12 13

	Assuming in current code that numbering for constraints corresponds to unified fragment.
	Fixed dihedral atom list: 
	     4     7    10    14
	---Fragment 1 Geometry and Gradient---
	 H          -3.4655949812        0.4272436990        1.4512337053
	 H          -3.1991435965        3.5037178434        0.2796035029
	 H          -2.6360052089        0.9261313981       -1.7046089366
	 C          -2.4489223217        1.6272197934        0.1813377440
	 H           1.3815525496        2.8668801366       -0.3440061209
	 H           0.5538525034        2.3698821636        2.8137262471
	 C           0.3648798901        1.6669040422        0.9277795665
	 H           3.4564718435       -0.9617050086        0.9806918982
	 H           0.6634566191       -2.1503427462        2.2770440254
	 C           1.4458032381       -1.0316248755        0.7860501065
	 H           1.5100539267       -4.0929812108       -1.8765740147
	 H           1.5402895448       -1.1015447425       -3.2711919008
	 H          -1.2527256796       -2.2901824800       -1.9748397736
	 C           0.7598326519       -2.2202626131       -1.7801979819
	             0.0110889854        0.0098999129       -0.0092530619
	             0.0096576015       -0.0136878204       -0.0004426135
	             0.0071407416       -0.0005116762        0.0121563964
	            -0.0263030219       -0.0099311889       -0.0078165678
	            -0.0096824659       -0.0117222949        0.0092026136
	            -0.0036194986       -0.0095634816       -0.0152233736
	             0.0190463442        0.0289008629        0.0061132346
	            -0.0177041253        0.0021054306       -0.0048806578
	             0.0048478356        0.0101698796       -0.0142808388
	             0.0153470339       -0.0171193547        0.0267387946
	            -0.0058104997        0.0165559926        0.0047436228
	            -0.0055325867       -0.0079898322        0.0148614347
	             0.0102151438        0.0069652290        0.0050180745
	            -0.0086914878       -0.0040716586       -0.0269370578

	Previous optimization step data not found.  Starting new optimization.

	---Fragment 1 Intrafragment Coordinates---
	 - Coordinate -           - BOHR/RAD -       - ANG/DEG -
	 R(1,4)           =         2.021436	       1.069698
	 R(2,4)           =         2.023298	       1.070683
	 R(3,4)           =         2.020723	       1.069320
	 R(4,7)           =         2.911397	       1.540645
	 R(5,7)           =         2.022623	       1.070326
	 R(6,7)           =         2.021555	       1.069761
	 R(7,10)          =         2.910419	       1.540128
	 R(8,10)          =         2.021277	       1.069614
	 R(9,10)          =         2.021549	       1.069757
	 R(10,14)         =         2.910162	       1.539992
	 R(11,14)         =         2.019702	       1.068780
	 R(12,14)         =         2.020818	       1.069371
	 R(13,14)         =         2.023157	       1.070609
	 B(1,4,2)         =         1.910870	     109.484805
	 B(1,4,3)         =         1.911121	     109.499161
	 B(1,4,7)         =         1.910399	     109.457783
	 B(2,4,3)         =         1.910042	     109.437340
	 B(2,4,7)         =         1.910564	     109.467262
	 B(3,4,7)         =         1.910803	     109.480971
	 B(4,7,5)         =         1.909937	     109.431343
	 B(4,7,6)         =         1.911630	     109.528316
	 B(4,7,10)        =         1.911154	     109.501062
	 B(5,7,6)         =         1.910605	     109.469614
	 B(5,7,10)        =         1.910047	     109.437654
	 B(6,7,10)        =         1.910425	     109.459295
	 B(7,10,8)        =         1.909946	     109.431864
	 B(7,10,9)        =         1.910765	     109.478795
	 B(7,10,14)       =         1.911452	     109.518155
	 B(8,10,9)        =         1.910377	     109.456554
	 B(8,10,14)       =         1.910835	     109.482788
	 B(9,10,14)       =         1.910423	     109.459153
	 B(10,14,11)      =         1.910536	     109.465628
	 B(10,14,12)      =         1.910784	     109.479867
	 B(10,14,13)      =         1.910740	     109.477335
	 B(11,14,12)      =         1.912024	     109.550886
	 B(11,14,13)      =         1.910142	     109.443069
	 B(12,14,13)      =         1.909574	     109.410512
	 D(1,4,7,5)       =         3.140997	     179.965873
	 D(1,4,7,6)       =        -1.047644	     -60.025575
	 D(1,4,7,10)      =         1.047427	      60.013132
	 D(2,4,7,5)       =        -1.047689	     -60.028143
	 D(2,4,7,6)       =         1.046856	      59.980409
	 D(2,4,7,10)      =        -3.141259	    -179.980883
	 D(3,4,7,5)       =         1.046044	      59.933911
	 D(3,4,7,6)       =         3.140588	     179.942463
	 D(3,4,7,10)      =        -1.047526	     -60.018830
	 D(4,7,10,8)      =         2.967527	     170.026763
	 D(4,7,10,9)      =        -1.221916	     -70.010648
	 D(4,7,10,14)     =         0.872804	      50.007975
	 D(5,7,10,8)      =         0.874024	      50.077888
	 D(5,7,10,9)      =         2.967766	     170.040476
	 D(5,7,10,14)     =        -1.220699	     -69.940901
	 D(6,7,10,8)      =        -1.219851	     -69.892311
	 D(6,7,10,9)      =         0.873891	      50.070277
	 D(6,7,10,14)     =         2.968611	     170.088900
	 D(7,10,14,11)    =        -3.141222	    -179.978742
	 D(7,10,14,12)    =         1.045833	      59.921790
	 D(7,10,14,13)    =        -1.047423	     -60.012899
	 D(8,10,14,11)    =         1.047784	      60.033625
	 D(8,10,14,12)    =        -1.048347	     -60.065842
	 D(8,10,14,13)    =         3.141593	     180.000000
	 D(9,10,14,11)    =        -1.046292	     -59.948104
	 D(9,10,14,12)    =         3.140762	     179.952428
	 D(9,10,14,13)    =         1.047507	      60.017739

	Current energy   :      -157.8336546468

	Generating empirical Hessian (Schlegel '84) for each fragment.
	Adding user-defined constraint: Fragment 1; Coordinate 49:
		Value =     0.872804; Fixed value    =     0.872665
		Force =    -0.000070; Force constant =     0.500000
	Removing off-diagonal coupling between coordinate 49 and others.
	Taking RFO optimization step.
	Going to follow RFO solution 1.
	Using RFO vector 1.

	Determining step-restricting scale parameter for RS-RFO.
	Maximum step size allowed    0.10000

	 Iter      |step|        alpha        rfo_root  
	------------------------------------------------
	    0     0.38530       1.00000           1
	    1     0.27319       3.51815           1
	    2     0.19125      11.64338           1
	    3     0.13959      28.67397           1
	    4     0.11222      50.53273           1
	    5     0.10180      64.37979           1
	    6     0.10005      67.17913           1
	    7     0.10000      67.26092           1
	------------------------------------------------
	Norm of target step-size    0.10000
	Projected energy change by RFO approximation:        -0.0076311971

	Back-transformation to cartesian coordinates...
	Could not converge backtransformation.
	Using first guess instead.

	--- Internal Coordinate Step in ANG or DEG, aJ/ANG or AJ/DEG ---
	 ---------------------------------------------------------------------------
	   Coordinate                Previous        Force       Change         New 
	   ----------                --------       ------       ------       ------
	    1 R(1,4)          =      1.069698     0.142258     0.010328     1.080026
	    2 R(2,4)          =      1.070683     0.134267     0.010393     1.081076
	    3 R(3,4)          =      1.069320     0.097457     0.008088     1.077409
	    4 R(4,7)          =      1.540645    -0.000295     0.001050     1.541695
	    5 R(5,7)          =      1.070326     0.145066     0.010450     1.080777
	    6 R(6,7)          =      1.069761     0.147194     0.010822     1.080583
	    7 R(7,10)         =      1.540128     0.075072     0.006188     1.546316
	    8 R(8,10)         =      1.069614     0.148366     0.010904     1.080518
	    9 R(9,10)         =      1.069757     0.148601     0.010695     1.080452
	   10 R(10,14)        =      1.539992     0.002683     0.001286     1.541278
	   11 R(11,14)        =      1.068780     0.146120     0.011211     1.079991
	   12 R(12,14)        =      1.069371     0.144383     0.010476     1.079846
	   13 R(13,14)        =      1.070609     0.089679     0.007545     1.078153
	   14 B(1,4,2)        =    109.484805    -0.000266    -0.282867   109.201938
	   15 B(1,4,3)        =    109.499161    -0.000279    -0.338628   109.160533
	   16 B(1,4,7)        =    109.457783     0.000173     0.166152   109.623935
	   17 B(2,4,3)        =    109.437340    -0.000467    -0.509216   108.928124
	   18 B(2,4,7)        =    109.467262     0.000222     0.256098   109.723360
	   19 B(3,4,7)        =    109.480971     0.000617     0.700938   110.181910
	   20 B(4,7,5)        =    109.431343    -0.000601    -0.629708   108.801635
	   21 B(4,7,6)        =    109.528316    -0.000757    -0.728015   108.800301
	   22 B(4,7,10)       =    109.501062     0.002445     2.514894   112.015956
	   23 B(5,7,6)        =    109.469614     0.000251     0.139127   109.608740
	   24 B(5,7,10)       =    109.437654    -0.000612    -0.580028   108.857626
	   25 B(6,7,10)       =    109.459295    -0.000727    -0.726202   108.733093
	   26 B(7,10,8)       =    109.431864    -0.000725    -0.724704   108.707160
	   27 B(7,10,9)       =    109.478795    -0.000615    -0.584016   108.894779
	   28 B(7,10,14)      =    109.518155     0.002444     2.512858   112.031014
	   29 B(8,10,9)       =    109.456554     0.000252     0.139511   109.596065
	   30 B(8,10,14)      =    109.482788    -0.000752    -0.721947   108.760841
	   31 B(9,10,14)      =    109.459153    -0.000603    -0.632368   108.826785
	   32 B(10,14,11)     =    109.465628     0.000227     0.262691   109.728320
	   33 B(10,14,12)     =    109.479867     0.000168     0.161162   109.641030
	   34 B(10,14,13)     =    109.477335     0.000617     0.702814   110.180149
	   35 B(11,14,12)     =    109.550886    -0.000270    -0.288197   109.262689
	   36 B(11,14,13)     =    109.443069    -0.000470    -0.515117   108.927952
	   37 B(12,14,13)     =    109.410512    -0.000272    -0.330797   109.079715
	   38 D(1,4,7,5)      =    179.965873     0.000067     0.308691   180.274564
	   39 D(1,4,7,6)      =    -60.025575    -0.000054    -0.333250   -60.358825
	   40 D(1,4,7,10)     =     60.013132    -0.000020    -0.133515    59.879618
	   41 D(2,4,7,5)      =    -60.028143     0.000048     0.221436   -59.806707
	   42 D(2,4,7,6)      =     59.980409    -0.000073    -0.420505    59.559904
	   43 D(2,4,7,10)     =   -179.980883    -0.000039    -0.220770  -180.201653
	   44 D(3,4,7,5)      =     59.933911     0.000034     0.187834    60.121745
	   45 D(3,4,7,6)      =    179.942463    -0.000086    -0.454106   179.488356
	   46 D(3,4,7,10)     =    -60.018830    -0.000053    -0.254371   -60.273201
	   47 D(4,7,10,8)     =    170.026763     0.000085     0.385252   170.412015
	   48 D(4,7,10,9)     =    -70.010648    -0.000033    -0.226112   -70.236761
	   49 D(4,7,10,14)    =     50.007975     0.000055     0.183521    50.191495
	   50 D(5,7,10,8)     =     50.077888    -0.000004    -0.028247    50.049640
	   51 D(5,7,10,9)     =    170.040476    -0.000121    -0.639611   169.400865
	   52 D(5,7,10,14)    =    -69.940901    -0.000033    -0.229978   -70.170879
	   53 D(6,7,10,8)     =    -69.892311     0.000113     0.581914   -69.310397
	   54 D(6,7,10,9)     =     50.070277    -0.000004    -0.029450    50.040827
	   55 D(6,7,10,14)    =    170.088900     0.000084     0.380183   170.469083
	   56 D(7,10,14,11)   =   -179.978742    -0.000039    -0.219701  -180.198443
	   57 D(7,10,14,12)   =     59.921790    -0.000019    -0.127298    59.794492
	   58 D(7,10,14,13)   =    -60.012899    -0.000053    -0.255279   -60.268178
	   59 D(8,10,14,11)   =     60.033625    -0.000073    -0.421314    59.612311
	   60 D(8,10,14,12)   =    -60.065842    -0.000053    -0.328912   -60.394754
	   61 D(8,10,14,13)   =    180.000000    -0.000086    -0.457424   179.542576
	   62 D(9,10,14,11)   =    -59.948104     0.000047     0.217432   -59.730672
	   63 D(9,10,14,12)   =    179.952428     0.000067     0.309834   180.262263
	   64 D(9,10,14,13)   =     60.017739     0.000033     0.181854    60.199593
	 ---------------------------------------------------------------------------
	 Forces used to impose fixed constraints are not included.
	  Forces zeroed: 49 

  ==> Convergence Check <==

  Measures of convergence in internal coordinates in au.
  Criteria marked as inactive (o), active & met (*), and active & unmet ( ).
  --------------------------------------------------------------------------------------------- ~
   Step     Total Energy     Delta E     MAX Force     RMS Force      MAX Disp      RMS Disp    ~
  --------------------------------------------------------------------------------------------- ~
    Convergence Criteria    1.00e-06 *    3.00e-04 *             o    1.20e-03 *             o  ~
  --------------------------------------------------------------------------------------------- ~
      1    -157.83365465   -1.58e+02      3.21e-02      9.79e-03 o    4.39e-02      1.27e-02 o  ~
  ---------------------------------------------------------------------------------------------

	Writing optimization data to binary file.
	Structure for next step:
	Cartesian Geometry (in Angstrom)
	    H    -1.8776877748   0.2701818892   0.7829955695
	    H    -1.6957695410   1.9214399495   0.1969320018
	    H    -1.4572168022   0.5687465638  -0.8978290074
	    C    -1.3211643999   0.9106739779   0.1147837168
	    H     0.7165926356   1.5258456497  -0.1819306495
	    H     0.2852113359   1.2325958993   1.5055270925
	    C     0.1735417095   0.8775716460   0.4910585664
	    H     1.8372199587  -0.4871334651   0.5027321680
	    H     0.3541866911  -1.1504966542   1.1945067685
	    C     0.7637215252  -0.5485353386   0.3961951913
	    H     0.8684488254  -2.2106474347  -0.9793468313
	    H     0.8448204082  -0.6318028176  -1.7594839654
	    H    -0.6306987762  -1.3012441871  -1.0780771221
	    C     0.4369999088  -1.2209688854  -0.9516262824
			--------------------------
			 OPTKING Finished Execution 
			--------------------------

    Structure for next step:
    Molecular point group: c1
    Full point group: C1

    Geometry (in Angstrom), charge = 0, multiplicity = 1:

    H           -1.875559350114     0.270864967526     0.784969226396
    H           -1.693641116357     1.922123027796     0.198905658743
    H           -1.455088377546     0.569429642088    -0.895855350464
    C           -1.319035975262     0.911357056233     0.116757373657
    H            0.718721060250     1.526528728001    -0.179956992602
    H            0.287339760534     1.233278977568     1.507500749413
    C            0.175670134119     0.878254724345     0.493032223325
    H            1.839348383298    -0.486450386786     0.504705824859
    H            0.356315115753    -1.149813575899     1.196480425354
    C            0.765849949800    -0.547852260327     0.398168848226
    H            0.870577250066    -2.209964356422    -0.977373174414
    H            0.846948832810    -0.631119739331    -1.757510308540
    H           -0.628570351610    -1.300561108754    -1.076103465214
    C            0.439128333446    -1.220285807056    -0.949652625505

gradient() will perform analytic gradient computation.
    SCF Algorithm Type (re)set to DF.

*** tstart() called on lski1497
*** at Mon Feb 20 17:34:05 2017


         ---------------------------------------------------------
                                   SCF
            by Justin Turney, Rob Parrish, and Andy Simmonett
                              RHF Reference
                        1 Threads,   1000 MiB Core
         ---------------------------------------------------------

  ==> Geometry <==

    Molecular point group: c1
    Full point group: C1

    Geometry (in Angstrom), charge = 0, multiplicity = 1:

       Center              X                  Y                   Z               Mass       
    ------------   -----------------  -----------------  -----------------  -----------------
           H         -1.875559350114     0.270864967526     0.784969226396     1.007825032070
           H         -1.693641116357     1.922123027796     0.198905658743     1.007825032070
           H         -1.455088377546     0.569429642088    -0.895855350464     1.007825032070
           C         -1.319035975262     0.911357056233     0.116757373657    12.000000000000
           H          0.718721060250     1.526528728001    -0.179956992602     1.007825032070
           H          0.287339760534     1.233278977568     1.507500749413     1.007825032070
           C          0.175670134119     0.878254724345     0.493032223325    12.000000000000
           H          1.839348383298    -0.486450386786     0.504705824859     1.007825032070
           H          0.356315115753    -1.149813575899     1.196480425354     1.007825032070
           C          0.765849949800    -0.547852260327     0.398168848226    12.000000000000
           H          0.870577250066    -2.209964356422    -0.977373174414     1.007825032070
           H          0.846948832810    -0.631119739331    -1.757510308540     1.007825032070
           H         -0.628570351610    -1.300561108754    -1.076103465214     1.007825032070
           C          0.439128333446    -1.220285807056    -0.949652625505    12.000000000000

  Running in c1 symmetry.

  Rotational constants: A =      0.41246  B =      0.17386  C =      0.14020 [cm^-1]
  Rotational constants: A =  12365.12925  B =   5212.19433  C =   4203.10250 [MHz]
  Nuclear repulsion =  133.646111053758517

  Charge       = 0
  Multiplicity = 1
  Electrons    = 34
  Nalpha       = 17
  Nbeta        = 17

  ==> Algorithm <==

  SCF Algorithm Type is DF.
  DIIS enabled.
  MOM disabled.
  Fractional occupation disabled.
  Guess Type is READ.
  Energy threshold   = 1.00e-10
  Density threshold  = 1.00e-10
  Integral threshold = 0.00e+00

  ==> Primary Basis <==

  Basis Set: 6-31G(D)
    Number of shells: 44
    Number of basis function: 80
    Number of Cartesian functions: 80
    Spherical Harmonics?: false
    Max angular momentum: 2

  ==> Pre-Iterations <==

   -------------------------------------------------------
    Irrep   Nso     Nmo     Nalpha   Nbeta   Ndocc  Nsocc
   -------------------------------------------------------
     A         80      80       0       0       0       0
   -------------------------------------------------------
    Total      80      80      17      17      17       0
   -------------------------------------------------------

  ==> Integral Setup <==

  ==> DFJK: Density-Fitted J/K Matrices <==

    J tasked:                  Yes
    K tasked:                  Yes
    wK tasked:                  No
    OpenMP threads:              1
    Integrals threads:           1
    Memory (MB):               715
    Algorithm:                Core
    Integral Cache:           NONE
    Schwarz Cutoff:          1E-12
    Fitting Condition:       1E-12

   => Auxiliary Basis Set <=

  Basis Set: 
    Number of shells: 186
    Number of basis function: 574
    Number of Cartesian functions: 574
    Spherical Harmonics?: false
    Max angular momentum: 3

  Minimum eigenvalue in the overlap matrix is 5.1726336056E-03.
  Using Symmetric Orthogonalization.
  SCF Guess was Projection but file not found.
  Switching over to SAD guess.

  SCF Guess: Superposition of Atomic Densities via on-the-fly atomic UHF.

  ==> Iterations <==

                           Total Energy        Delta E     RMS |[F,P]|

   @DF-RHF iter   0:  -158.87127877568687   -1.58871e+02   4.64586e-02 
   @DF-RHF iter   1:  -157.20103237838273    1.67025e+00   3.99076e-03 
   @DF-RHF iter   2:  -157.28403393048345   -8.30016e-02   1.12207e-03 DIIS
   @DF-RHF iter   3:  -157.29239037848370   -8.35645e-03   2.84077e-04 DIIS
   @DF-RHF iter   4:  -157.29282467466950   -4.34296e-04   8.53231e-05 DIIS
   @DF-RHF iter   5:  -157.29286664672375   -4.19721e-05   1.41685e-05 DIIS
   @DF-RHF iter   6:  -157.29286820334917   -1.55663e-06   2.32864e-06 DIIS
   @DF-RHF iter   7:  -157.29286823199359   -2.86444e-08   7.09720e-07 DIIS
   @DF-RHF iter   8:  -157.29286823445332   -2.45973e-09   1.26102e-07 DIIS
   @DF-RHF iter   9:  -157.29286823456627   -1.12948e-10   3.33477e-08 DIIS
   @DF-RHF iter  10:  -157.29286823457520   -8.92442e-12   7.68464e-09 DIIS
   @DF-RHF iter  11:  -157.29286823457542   -2.27374e-13   2.20767e-09 DIIS
   @DF-RHF iter  12:  -157.29286823457548   -5.68434e-14   4.38606e-10 DIIS
   @DF-RHF iter  13:  -157.29286823457531    1.70530e-13   9.09833e-11 DIIS

  ==> Post-Iterations <==

    Orbital Energies (a.u.)
    -----------------------

    Doubly Occupied:                                                      

       1A    -11.212359     2A    -11.211795     3A    -11.204253  
       4A    -11.204168     5A     -1.069132     6A     -0.972676  
       7A     -0.876826     8A     -0.775042     9A     -0.632896  
      10A     -0.621604    11A     -0.575377    12A     -0.533073  
      13A     -0.530373    14A     -0.506069    15A     -0.465836  
      16A     -0.455344    17A     -0.452967  

    Virtual:                                                              

      18A      0.230483    19A      0.281414    20A      0.289322  
      21A      0.300373    22A      0.317268    23A      0.319192  
      24A      0.340125    25A      0.346245    26A      0.368357  
      27A      0.374391    28A      0.394413    29A      0.409697  
      30A      0.452548    31A      0.712992    32A      0.728889  
      33A      0.734067    34A      0.748173    35A      0.770696  
      36A      0.843615    37A      0.860956    38A      0.921806  
      39A      0.951010    40A      0.996992    41A      1.106476  
      42A      1.112767    43A      1.165745    44A      1.167550  
      45A      1.181084    46A      1.193372    47A      1.202181  
      48A      1.216148    49A      1.238467    50A      1.256861  
      51A      1.259529    52A      1.292473    53A      1.307912  
      54A      1.564829    55A      1.709584    56A      1.717923  
      57A      1.775792    58A      1.878466    59A      1.959683  
      60A      2.036410    61A      2.166069    62A      2.266338  
      63A      2.306926    64A      2.313874    65A      2.342705  
      66A      2.440884    67A      2.473526    68A      2.641986  
      69A      2.657047    70A      2.670826    71A      2.671876  
      72A      2.738944    73A      2.780868    74A      2.940805  
      75A      2.949584    76A      3.078859    77A      4.564623  
      78A      4.688465    79A      4.805222    80A      4.941689  

    Final Occupation by Irrep:
              A 
    DOCC [    17 ]

  Energy converged.

  @DF-RHF Final Energy:  -157.29286823457531

   => Energetics <=

    Nuclear Repulsion Energy =            133.6461110537585171
    One-Electron Energy =                -475.2783819232504356
    Two-Electron Energy =                 184.3394026349165244
    DFT Exchange-Correlation Energy =       0.0000000000000000
    Empirical Dispersion Energy =           0.0000000000000000
    PCM Polarization Energy =               0.0000000000000000
    EFP Energy =                            0.0000000000000000
    Total Energy =                       -157.2928682345753657


  Saving occupied orbitals to File 180.

*** tstop() called on lski1497 at Mon Feb 20 17:34:12 2017
Module time:
	user time   =       4.97 seconds =       0.08 minutes
	system time =       0.14 seconds =       0.00 minutes
	total time  =          7 seconds =       0.12 minutes
Total time:
	user time   =      27.38 seconds =       0.46 minutes
	system time =       0.99 seconds =       0.02 minutes
	total time  =         41 seconds =       0.68 minutes


Properties will be evaluated at   0.000000,   0.000000,   0.000000 Bohr

Properties computed using the SCF density matrix

  Nuclear Dipole Moment: (a.u.)
     X:    -0.6877      Y:    -0.2397      Z:    -0.6508

  Electronic Dipole Moment: (a.u.)
     X:     0.7084      Y:     0.2464      Z:     0.6701

  Dipole Moment: (a.u.)
     X:     0.0207      Y:     0.0067      Z:     0.0193     Total:     0.0291

  Dipole Moment: (Debye)
     X:     0.0526      Y:     0.0171      Z:     0.0489     Total:     0.0739


  //>>>>>>>>>>>>>>>>>>>>>>>>>>>>>>>>>>>//
  //               DFMP2               //
  //<<<<<<<<<<<<<<<<<<<<<<<<<<<<<<<<<<<//


*** tstart() called on lski1497
*** at Mon Feb 20 17:34:12 2017


*** tstop() called on lski1497 at Mon Feb 20 17:34:13 2017
Module time:
	user time   =       0.53 seconds =       0.01 minutes
	system time =       0.01 seconds =       0.00 minutes
	total time  =          1 seconds =       0.02 minutes
Total time:
	user time   =      27.93 seconds =       0.47 minutes
	system time =       1.00 seconds =       0.02 minutes
	total time  =         42 seconds =       0.70 minutes
	 --------------------------------------------------------
	                          DF-MP2                         
	      2nd-Order Density-Fitted Moller-Plesset Theory     
	              RMP2 Wavefunction,   1 Threads             
	                                                         
	        Rob Parrish, Justin Turney, Andy Simmonett,      
	           Ed Hohenstein, and C. David Sherrill          
	 --------------------------------------------------------

   => Auxiliary Basis Set <=

  Basis Set: 
    Number of shells: 132
    Number of basis function: 364
    Number of Cartesian functions: 414
    Spherical Harmonics?: true
    Max angular momentum: 3

	 --------------------------------------------------------
	                 NBF =    80, NAUX =   364
	 --------------------------------------------------------
	   CLASS    FOCC     OCC    AOCC    AVIR     VIR    FVIR
	   PAIRS       0      17      17      63      63       0
	 --------------------------------------------------------

DGAS Warning! /src/lib/libfock/apps.cc:80 is not currently checking restricted

         ------------------------------------------------------------
                                     CPHF                           
                                  Rob Parrish                       
         ------------------------------------------------------------

  ==> Geometry <==

    Molecular point group: c1
    Full point group: C1

    Geometry (in Angstrom), charge = 0, multiplicity = 1:

       Center              X                  Y                   Z               Mass       
    ------------   -----------------  -----------------  -----------------  -----------------
           H         -1.875559350114     0.270864967526     0.784969226396     1.007825032070
           H         -1.693641116357     1.922123027796     0.198905658743     1.007825032070
           H         -1.455088377546     0.569429642088    -0.895855350464     1.007825032070
           C         -1.319035975262     0.911357056233     0.116757373657    12.000000000000
           H          0.718721060250     1.526528728001    -0.179956992602     1.007825032070
           H          0.287339760534     1.233278977568     1.507500749413     1.007825032070
           C          0.175670134119     0.878254724345     0.493032223325    12.000000000000
           H          1.839348383298    -0.486450386786     0.504705824859     1.007825032070
           H          0.356315115753    -1.149813575899     1.196480425354     1.007825032070
           C          0.765849949800    -0.547852260327     0.398168848226    12.000000000000
           H          0.870577250066    -2.209964356422    -0.977373174414     1.007825032070
           H          0.846948832810    -0.631119739331    -1.757510308540     1.007825032070
           H         -0.628570351610    -1.300561108754    -1.076103465214     1.007825032070
           C          0.439128333446    -1.220285807056    -0.949652625505    12.000000000000

  Nuclear repulsion =  133.646111053758517
  Reference energy  = -157.292868234575309

  ==> Basis Set <==

  Basis Set: 6-31G(D)
    Number of shells: 44
    Number of basis function: 80
    Number of Cartesian functions: 80
    Spherical Harmonics?: false
    Max angular momentum: 2

  ==> CGRSolver (by Rob Parrish) <==

   Number of roots    =         1
   Preconditioning    =    JACOBI
   Convergence cutoff =     1E-06
   Maximum iterations =       100

  ==> CPHFRHamiltonian (by Rob Parrish) <== 

  ==> DFJK: Density-Fitted J/K Matrices <==

    J tasked:                  Yes
    K tasked:                  Yes
    wK tasked:                  No
    OpenMP threads:              1
    Integrals threads:           1
    Memory (MB):               715
    Algorithm:                Core
    Integral Cache:           NONE
    Schwarz Cutoff:          1E-12
    Fitting Condition:       1E-12

   => Auxiliary Basis Set <=

  Basis Set: 
    Number of shells: 186
    Number of basis function: 574
    Number of Cartesian functions: 574
    Spherical Harmonics?: false
    Max angular momentum: 3

  ==> CPHF Iterations <==

  => Iterations <=

             Iter  Converged  Remaining    Residual
  CGR           1          0          1   7.480E-02
  CGR           2          0          1   8.582E-03
  CGR           3          0          1   2.293E-03
  CGR           4          0          1   4.336E-04
  CGR           5          0          1   7.636E-05
  CGR           6          0          1   1.405E-05
  CGR           7          0          1   1.843E-06
  CGR           8          1          0   4.339E-07

    CGRSolver converged.

  ==> DFCorrGrad: Density-Fitted Correlated Gradients <==

    OpenMP threads:              1
    Integrals threads:           1
    Memory (MB):               715
    Schwarz Cutoff:          0E+00
    Fitting Condition:       1E-12

   => Auxiliary Basis Set <=

  Basis Set: 
    Number of shells: 186
    Number of basis function: 510
    Number of Cartesian functions: 574
    Spherical Harmonics?: true
    Max angular momentum: 3

	-----------------------------------------------------------
	 ==================> DF-MP2 Energies <==================== 
	-----------------------------------------------------------
	 Reference Energy          =    -157.2928682345753089 [Eh]
	 Singles Energy            =      -0.0000000000000000 [Eh]
	 Same-Spin Energy          =      -0.1247501032627324 [Eh]
	 Opposite-Spin Energy      =      -0.4216544495288751 [Eh]
	 Correlation Energy        =      -0.5464045527916075 [Eh]
	 Total Energy              =    -157.8392727873669230 [Eh]
	-----------------------------------------------------------
	 ================> DF-SCS-MP2 Energies <================== 
	-----------------------------------------------------------
	 SCS Same-Spin Scale       =       0.3333333333333333 [-]
	 SCS Opposite-Spin Scale   =       1.2000000000000000 [-]
	 SCS Same-Spin Energy      =      -0.0415833677542441 [Eh]
	 SCS Opposite-Spin Energy  =      -0.5059853394346501 [Eh]
	 SCS Correlation Energy    =      -0.5475687071888942 [Eh]
	 SCS Total Energy          =    -157.8404369417642101 [Eh]
	-----------------------------------------------------------


  -Total Gradient:
     Atom            X                  Y                   Z
    ------   -----------------  -----------------  -----------------
       1        0.007266964546     0.005235169414    -0.004621357624
       2        0.005421237790    -0.006863740494    -0.000563568537
       3        0.004572622792     0.000424398656     0.008161293111
       4       -0.020410697786    -0.003269591237    -0.006951778350
       5       -0.006252215016    -0.007861705096     0.003632998047
       6       -0.004025259811    -0.006736620345    -0.007604170288
       7        0.013342112140     0.021458944129     0.007196261896
       8       -0.009505369791     0.002002590924    -0.005179926831
       9        0.000858996301     0.006032364234    -0.009013796019
      10        0.013855554554    -0.012053502877     0.018760065543
      11       -0.003299435045     0.008410234554     0.002963226193
      12       -0.002739630614    -0.003625825551     0.009130642283
      13        0.007255330687     0.003919547014     0.003392849391
      14       -0.006340210748    -0.007072263324    -0.019302738813


			-----------------------------------------
			 OPTKING 2.0: for geometry optimizations 
			  - R.A. King,  Bethel University        
			-----------------------------------------

	Previous internal coordinate definitions found.
	---Fragment 1 Geometry and Gradient---
	 H          -3.5442935177        0.5118606076        1.4833768606
	 H          -3.2005178773        3.6322861162        0.3758772213
	 H          -2.7497185327        1.0760660755       -1.6929212671
	 C          -2.4926167527        1.7222152456        0.2206394602
	 H           1.3581859698        2.8847212299       -0.3400694317
	 H           0.5429934545        2.3305595130        2.8487635615
	 C           0.3319684432        1.6596609039        0.9316958768
	 H           3.4758647074       -0.9192580083        0.9537557867
	 H           0.6733379858       -2.1728327623        2.2610203273
	 C           1.4472466640       -1.0352907333        0.7524300778
	 H           1.6451525801       -4.1762273971       -1.8469676293
	 H           1.6005013426       -1.1926434644       -3.3212131589
	 H          -1.1878258198       -2.4577043146       -2.0335408399
	 C           0.8298322874       -2.3060059792       -1.7945833836
	             0.0072669645        0.0052351694       -0.0046213576
	             0.0054212378       -0.0068637405       -0.0005635685
	             0.0045726228        0.0004243987        0.0081612931
	            -0.0204106978       -0.0032695912       -0.0069517784
	            -0.0062522150       -0.0078617051        0.0036329980
	            -0.0040252598       -0.0067366203       -0.0076041703
	             0.0133421121        0.0214589441        0.0071962619
	            -0.0095053698        0.0020025909       -0.0051799268
	             0.0008589963        0.0060323642       -0.0090137960
	             0.0138555546       -0.0120535029        0.0187600655
	            -0.0032994350        0.0084102346        0.0029632262
	            -0.0027396306       -0.0036258256        0.0091306423
	             0.0072553307        0.0039195470        0.0033928494
	            -0.0063402107       -0.0070722633       -0.0193027388

	---Fragment 1 Intrafragment Coordinates---
	 - Coordinate -           - BOHR/RAD -       - ANG/DEG -
	 R(1,4)           =         2.040953	       1.080026
	 R(2,4)           =         2.042937	       1.081076
	 R(3,4)           =         2.036007	       1.077409
	 R(4,7)           =         2.913382	       1.541695
	 R(5,7)           =         2.042372	       1.080777
	 R(6,7)           =         2.042005	       1.080583
	 R(7,10)          =         2.922113	       1.546316
	 R(8,10)          =         2.041883	       1.080518
	 R(9,10)          =         2.041759	       1.080452
	 R(10,14)         =         2.912593	       1.541278
	 R(11,14)         =         2.040887	       1.079991
	 R(12,14)         =         2.040614	       1.079846
	 R(13,14)         =         2.037414	       1.078153
	 B(1,4,2)         =         1.905933	     109.201938
	 B(1,4,3)         =         1.905211	     109.160533
	 B(1,4,7)         =         1.913299	     109.623935
	 B(2,4,3)         =         1.901154	     108.928124
	 B(2,4,7)         =         1.915034	     109.723360
	 B(3,4,7)         =         1.923037	     110.181910
	 B(4,7,5)         =         1.898947	     108.801635
	 B(4,7,6)         =         1.898923	     108.800301
	 B(4,7,10)        =         1.955047	     112.015956
	 B(5,7,6)         =         1.913033	     109.608740
	 B(5,7,10)        =         1.899924	     108.857626
	 B(6,7,10)        =         1.897750	     108.733093
	 B(7,10,8)        =         1.897298	     108.707160
	 B(7,10,9)        =         1.900572	     108.894779
	 B(7,10,14)       =         1.955310	     112.031014
	 B(8,10,9)        =         1.912812	     109.596065
	 B(8,10,14)       =         1.898235	     108.760841
	 B(9,10,14)       =         1.899386	     108.826785
	 B(10,14,11)      =         1.915120	     109.728320
	 B(10,14,12)      =         1.913597	     109.641030
	 B(10,14,13)      =         1.923006	     110.180149
	 B(11,14,12)      =         1.906994	     109.262689
	 B(11,14,13)      =         1.901151	     108.927952
	 B(12,14,13)      =         1.903800	     109.079715
	 D(1,4,7,5)       =        -3.136801	    -179.725436
	 D(1,4,7,6)       =        -1.053460	     -60.358825
	 D(1,4,7,10)      =         1.045096	      59.879618
	 D(2,4,7,5)       =        -1.043824	     -59.806707
	 D(2,4,7,6)       =         1.039516	      59.559904
	 D(2,4,7,10)      =         3.138073	     179.798347
	 D(3,4,7,5)       =         1.049322	      60.121745
	 D(3,4,7,6)       =         3.132663	     179.488356
	 D(3,4,7,10)      =        -1.051966	     -60.273201
	 D(4,7,10,8)      =         2.974251	     170.412015
	 D(4,7,10,9)      =        -1.225863	     -70.236761
	 D(4,7,10,14)     =         0.876007	      50.191495
	 D(5,7,10,8)      =         0.873531	      50.049640
	 D(5,7,10,9)      =         2.956603	     169.400865
	 D(5,7,10,14)     =        -1.224713	     -70.170879
	 D(6,7,10,8)      =        -1.209695	     -69.310397
	 D(6,7,10,9)      =         0.873377	      50.040827
	 D(6,7,10,14)     =         2.975247	     170.469083
	 D(7,10,14,11)    =         3.138129	     179.801557
	 D(7,10,14,12)    =         1.043611	      59.794492
	 D(7,10,14,13)    =        -1.051878	     -60.268178
	 D(8,10,14,11)    =         1.040431	      59.612311
	 D(8,10,14,12)    =        -1.054087	     -60.394754
	 D(8,10,14,13)    =         3.133609	     179.542576
	 D(9,10,14,11)    =        -1.042497	     -59.730672
	 D(9,10,14,12)    =        -3.137015	    -179.737737
	 D(9,10,14,13)    =         1.050681	      60.199593

	Current energy   :      -157.8392727874

	Energy change for the previous step:
		Projected    :        -0.0076311971
		Actual       :        -0.0056181406

	Performing BFGS update.
	Previous computed or guess Hessian on step 1.
	Steps to be used in Hessian update: 1
	Adding user-defined constraint: Fragment 1; Coordinate 49:
		Value =     0.876007; Fixed value    =     0.872660
		Force =    -0.001757; Force constant =     0.525000
	Removing off-diagonal coupling between coordinate 49 and others.
	Taking RFO optimization step.
	Going to follow RFO solution 1.
	Using RFO vector 1.

	Determining step-restricting scale parameter for RS-RFO.
	Maximum step size allowed    0.10000

	 Iter      |step|        alpha        rfo_root  
	------------------------------------------------
	    0     0.19279       1.00000           1
	    1     0.15587       4.22735           1
	    2     0.12436      13.44676           1
	    3     0.10673      24.98053           1
	    4     0.10072      30.91056           1
	    5     0.10001      31.70428           1
	------------------------------------------------
	Norm of target step-size    0.10001
	Projected energy change by RFO approximation:        -0.0032599387

	Back-transformation to cartesian coordinates...
	Could not converge backtransformation.
	Using first guess instead.

	--- Internal Coordinate Step in ANG or DEG, aJ/ANG or AJ/DEG ---
	 ---------------------------------------------------------------------------
	   Coordinate                Previous        Force       Change         New 
	   ----------                --------       ------       ------       ------
	    1 R(1,4)          =      1.080026     0.079985     0.012083     1.092108
	    2 R(2,4)          =      1.081076     0.068700     0.010307     1.091383
	    3 R(3,4)          =      1.077409     0.069062     0.012240     1.089648
	    4 R(4,7)          =      1.541695    -0.032362    -0.007521     1.534175
	    5 R(5,7)          =      1.080777     0.083371     0.012546     1.093322
	    6 R(6,7)          =      1.080583     0.080478     0.012015     1.092598
	    7 R(7,10)         =      1.546316    -0.018025    -0.008388     1.537928
	    8 R(8,10)         =      1.080518     0.081074     0.012098     1.092616
	    9 R(9,10)         =      1.080452     0.085241     0.012803     1.093255
	   10 R(10,14)        =      1.541278    -0.030576    -0.007204     1.534073
	   11 R(11,14)        =      1.079991     0.074981     0.011183     1.091173
	   12 R(12,14)        =      1.079846     0.081100     0.012235     1.092081
	   13 R(13,14)        =      1.078153     0.064878     0.011655     1.089808
	   14 B(1,4,2)        =    109.201938    -0.000215    -0.633770   108.568168
	   15 B(1,4,3)        =    109.160533    -0.000217    -0.669453   108.491080
	   16 B(1,4,7)        =    109.623935     0.000200     0.662224   110.286158
	   17 B(2,4,3)        =    108.928124    -0.000271    -0.645803   108.282321
	   18 B(2,4,7)        =    109.723360     0.000159     0.461434   110.184794
	   19 B(3,4,7)        =    110.181910     0.000335     0.777218   110.959127
	   20 B(4,7,5)        =    108.801635    -0.000178    -0.072587   108.729048
	   21 B(4,7,6)        =    108.800301    -0.000206    -0.048455   108.751846
	   22 B(4,7,10)       =    112.015956     0.000845     1.129320   113.145276
	   23 B(5,7,6)        =    109.608740    -0.000042    -0.639935   108.968806
	   24 B(5,7,10)       =    108.857626    -0.000185    -0.145644   108.711982
	   25 B(6,7,10)       =    108.733093    -0.000244    -0.269859   108.463234
	   26 B(7,10,8)       =    108.707160    -0.000243    -0.263731   108.443428
	   27 B(7,10,9)       =    108.894779    -0.000186    -0.154276   108.740503
	   28 B(7,10,14)      =    112.031014     0.000843     1.120012   113.151026
	   29 B(8,10,9)       =    109.596065    -0.000042    -0.638595   108.957469
	   30 B(8,10,14)      =    108.760841    -0.000202    -0.033235   108.727605
	   31 B(9,10,14)      =    108.826785    -0.000179    -0.077479   108.749306
	   32 B(10,14,11)     =    109.728320     0.000162     0.466936   110.195255
	   33 B(10,14,12)     =    109.641030     0.000196     0.650742   110.291772
	   34 B(10,14,13)     =    110.180149     0.000334     0.777368   110.957517
	   35 B(11,14,12)     =    109.262689    -0.000219    -0.651112   108.611577
	   36 B(11,14,13)     =    108.927952    -0.000272    -0.649227   108.278724
	   37 B(12,14,13)     =    109.079715    -0.000211    -0.642973   108.436741
	   38 D(1,4,7,5)      =   -179.725436     0.000034     0.378565  -179.346872
	   39 D(1,4,7,6)      =    -60.358825    -0.000029    -0.461173   -60.819998
	   40 D(1,4,7,10)     =     59.879618    -0.000009    -0.112592    59.767025
	   41 D(2,4,7,5)      =    -59.806707     0.000024     0.300719   -59.505989
	   42 D(2,4,7,6)      =     59.559904    -0.000039    -0.539019    59.020885
	   43 D(2,4,7,10)     =    179.798347    -0.000018    -0.190438   179.607908
	   44 D(3,4,7,5)      =     60.121745     0.000018     0.287929    60.409674
	   45 D(3,4,7,6)      =    179.488356    -0.000045    -0.551808   178.936548
	   46 D(3,4,7,10)     =    -60.273201    -0.000024    -0.203228   -60.476428
	   47 D(4,7,10,8)     =    170.412015     0.000046     0.668967   171.080982
	   48 D(4,7,10,9)     =    -70.236761    -0.000024    -0.337631   -70.574392
	   49 D(4,7,10,14)    =     50.191495     0.000019     0.179312    50.370807
	   50 D(5,7,10,8)     =     50.049640     0.000002     0.135572    50.185212
	   51 D(5,7,10,9)     =    169.400865    -0.000067    -0.871027   168.529838
	   52 D(5,7,10,14)    =    -70.170879    -0.000024    -0.354083   -70.524963
	   53 D(6,7,10,8)     =    -69.310397     0.000071     1.142259   -68.168138
	   54 D(6,7,10,9)     =     50.040827     0.000002     0.135661    50.176488
	   55 D(6,7,10,14)    =    170.469083     0.000045     0.652604   171.121687
	   56 D(7,10,14,11)   =    179.801557    -0.000018    -0.188439   179.613118
	   57 D(7,10,14,12)   =     59.794492    -0.000008    -0.086398    59.708094
	   58 D(7,10,14,13)   =    -60.268178    -0.000024    -0.201738   -60.469916
	   59 D(8,10,14,11)   =     59.612311    -0.000040    -0.547981    59.064330
	   60 D(8,10,14,12)   =    -60.394754    -0.000029    -0.445940   -60.840694
	   61 D(8,10,14,13)   =    179.542576    -0.000045    -0.561280   178.981296
	   62 D(9,10,14,11)   =    -59.730672     0.000023     0.284006   -59.446666
	   63 D(9,10,14,12)   =   -179.737737     0.000034     0.386047  -179.351691
	   64 D(9,10,14,13)   =     60.199593     0.000017     0.270707    60.470299
	 ---------------------------------------------------------------------------
	 Forces used to impose fixed constraints are not included.
	  Forces zeroed: 49 

  ==> Convergence Check <==

  Measures of convergence in internal coordinates in au.
  Criteria marked as inactive (o), active & met (*), and active & unmet ( ).
  ---------------------------------------------------------------------------------------------
   Step     Total Energy     Delta E     MAX Force     RMS Force      MAX Disp      RMS Disp   
  ---------------------------------------------------------------------------------------------
    Convergence Criteria    1.00e-06 *    3.00e-04 *             o    1.20e-03 *             o
  ---------------------------------------------------------------------------------------------
      2    -157.83927279   -5.62e-03      1.11e-02      4.73e-03 o    2.42e-02      1.25e-02 o  ~
  ---------------------------------------------------------------------------------------------

	Writing optimization data to binary file.
	Structure for next step:
	Cartesian Geometry (in Angstrom)
	    H    -1.8997933099   0.2839117693   0.7920982482
	    H    -1.6937585974   1.9494990110   0.2208952881
	    H    -1.4850260336   0.5988390657  -0.9001386605
	    C    -1.3218506282   0.9278582306   0.1257529054
	    H     0.7192626881   1.5315936319  -0.1834006569
	    H     0.2917184508   1.2247355142   1.5162346981
	    C     0.1673135914   0.8705195236   0.4901624345
	    H     1.8446076252  -0.4743670064   0.5051932033
	    H     0.3546248797  -1.1550302640   1.1992947456
	    C     0.7605574120  -0.5447121281   0.3881610261
	    H     0.9007141179  -2.2275731163  -0.9712994789
	    H     0.8584371680  -0.6486207268  -1.7769394342
	    H    -0.6218255600  -1.3381221201  -1.0939112816
	    C     0.4530218452  -1.2327414956  -0.9480346240
			--------------------------
			 OPTKING Finished Execution 
			--------------------------

    Structure for next step:
    Molecular point group: c1
    Full point group: C1

    Geometry (in Angstrom), charge = 0, multiplicity = 1:

    H           -1.899306857123     0.284015786034     0.792526758611
    H           -1.693272144650     1.949603027747     0.221323798553
    H           -1.484539580813     0.598943082358    -0.899710150045
    C           -1.321364175441     0.927962247329     0.126181415833
    H            0.719749140908     1.531697648588    -0.182972146436
    H            0.292204903573     1.224839530907     1.516663208534
    C            0.167800044211     0.870623540339     0.490590944954
    H            1.845094078034    -0.474262989744     0.505621713775
    H            0.355111332511    -1.154926247315     1.199723256042
    C            0.761043864769    -0.544608111354     0.388589536603
    H            0.901200570666    -2.227469099576    -0.970870968403
    H            0.858923620827    -0.648516710103    -1.776510923759
    H           -0.621339107177    -1.338018103435    -1.093482771149
    C            0.453508297996    -1.232637478913    -0.947606113500

gradient() will perform analytic gradient computation.
    SCF Algorithm Type (re)set to DF.

*** tstart() called on lski1497
*** at Mon Feb 20 17:34:36 2017


         ---------------------------------------------------------
                                   SCF
            by Justin Turney, Rob Parrish, and Andy Simmonett
                              RHF Reference
                        1 Threads,   1000 MiB Core
         ---------------------------------------------------------

  ==> Geometry <==

    Molecular point group: c1
    Full point group: C1

    Geometry (in Angstrom), charge = 0, multiplicity = 1:

       Center              X                  Y                   Z               Mass       
    ------------   -----------------  -----------------  -----------------  -----------------
           H         -1.899306857123     0.284015786034     0.792526758611     1.007825032070
           H         -1.693272144650     1.949603027747     0.221323798553     1.007825032070
           H         -1.484539580813     0.598943082358    -0.899710150045     1.007825032070
           C         -1.321364175441     0.927962247329     0.126181415833    12.000000000000
           H          0.719749140908     1.531697648588    -0.182972146436     1.007825032070
           H          0.292204903573     1.224839530907     1.516663208534     1.007825032070
           C          0.167800044211     0.870623540339     0.490590944954    12.000000000000
           H          1.845094078034    -0.474262989744     0.505621713775     1.007825032070
           H          0.355111332511    -1.154926247315     1.199723256042     1.007825032070
           C          0.761043864769    -0.544608111354     0.388589536603    12.000000000000
           H          0.901200570666    -2.227469099576    -0.970870968403     1.007825032070
           H          0.858923620827    -0.648516710103    -1.776510923759     1.007825032070
           H         -0.621339107177    -1.338018103435    -1.093482771149     1.007825032070
           C          0.453508297996    -1.232637478913    -0.947606113500    12.000000000000

  Running in c1 symmetry.

  Rotational constants: A =      0.41687  B =      0.17087  C =      0.13873 [cm^-1]
  Rotational constants: A =  12497.37596  B =   5122.66904  C =   4159.06501 [MHz]
  Nuclear repulsion =  133.139064922615120

  Charge       = 0
  Multiplicity = 1
  Electrons    = 34
  Nalpha       = 17
  Nbeta        = 17

  ==> Algorithm <==

  SCF Algorithm Type is DF.
  DIIS enabled.
  MOM disabled.
  Fractional occupation disabled.
  Guess Type is READ.
  Energy threshold   = 1.00e-10
  Density threshold  = 1.00e-10
  Integral threshold = 0.00e+00

  ==> Primary Basis <==

  Basis Set: 6-31G(D)
    Number of shells: 44
    Number of basis function: 80
    Number of Cartesian functions: 80
    Spherical Harmonics?: false
    Max angular momentum: 2

  ==> Pre-Iterations <==

   -------------------------------------------------------
    Irrep   Nso     Nmo     Nalpha   Nbeta   Ndocc  Nsocc
   -------------------------------------------------------
     A         80      80       0       0       0       0
   -------------------------------------------------------
    Total      80      80      17      17      17       0
   -------------------------------------------------------

  ==> Integral Setup <==

  ==> DFJK: Density-Fitted J/K Matrices <==

    J tasked:                  Yes
    K tasked:                  Yes
    wK tasked:                  No
    OpenMP threads:              1
    Integrals threads:           1
    Memory (MB):               715
    Algorithm:                Core
    Integral Cache:           NONE
    Schwarz Cutoff:          1E-12
    Fitting Condition:       1E-12

   => Auxiliary Basis Set <=

  Basis Set: 
    Number of shells: 186
    Number of basis function: 574
    Number of Cartesian functions: 574
    Spherical Harmonics?: false
    Max angular momentum: 3

  Minimum eigenvalue in the overlap matrix is 5.1629874131E-03.
  Using Symmetric Orthogonalization.
  SCF Guess was Projection but file not found.
  Switching over to SAD guess.

  SCF Guess: Superposition of Atomic Densities via on-the-fly atomic UHF.

  ==> Iterations <==

                           Total Energy        Delta E     RMS |[F,P]|

   @DF-RHF iter   0:  -158.81376166680442   -1.58814e+02   4.59893e-02 
   @DF-RHF iter   1:  -157.20189403509167    1.61187e+00   3.97673e-03 
   @DF-RHF iter   2:  -157.28528815899850   -8.33941e-02   1.13059e-03 DIIS
   @DF-RHF iter   3:  -157.29379315904171   -8.50500e-03   2.92992e-04 DIIS
   @DF-RHF iter   4:  -157.29425036706246   -4.57208e-04   8.60178e-05 DIIS
   @DF-RHF iter   5:  -157.29429387920200   -4.35121e-05   1.40864e-05 DIIS
   @DF-RHF iter   6:  -157.29429544025638   -1.56105e-06   2.35916e-06 DIIS
   @DF-RHF iter   7:  -157.29429546908429   -2.88279e-08   7.32714e-07 DIIS
   @DF-RHF iter   8:  -157.29429547166515   -2.58086e-09   1.20976e-07 DIIS
   @DF-RHF iter   9:  -157.29429547177179   -1.06638e-10   3.21591e-08 DIIS
   @DF-RHF iter  10:  -157.29429547177935   -7.56017e-12   7.93102e-09 DIIS
   @DF-RHF iter  11:  -157.29429547177963   -2.84217e-13   2.11595e-09 DIIS
   @DF-RHF iter  12:  -157.29429547177946    1.70530e-13   3.99526e-10 DIIS
   @DF-RHF iter  13:  -157.29429547177975   -2.84217e-13   8.98628e-11 DIIS

  ==> Post-Iterations <==

    Orbital Energies (a.u.)
    -----------------------

    Doubly Occupied:                                                      

       1A    -11.215552     2A    -11.214977     3A    -11.208638  
       4A    -11.208625     5A     -1.069183     6A     -0.972118  
       7A     -0.874229     8A     -0.770693     9A     -0.630154  
      10A     -0.618736    11A     -0.572573    12A     -0.533598  
      13A     -0.527962    14A     -0.503544    15A     -0.461848  
      16A     -0.456730    17A     -0.453907  

    Virtual:                                                              

      18A      0.227726    19A      0.278073    20A      0.285849  
      21A      0.297322    22A      0.316219    23A      0.317173  
      24A      0.334839    25A      0.341708    26A      0.366363  
      27A      0.370354    28A      0.396445    29A      0.409084  
      30A      0.458739    31A      0.710123    32A      0.730219  
      33A      0.730281    34A      0.749407    35A      0.773494  
      36A      0.850853    37A      0.865356    38A      0.924997  
      39A      0.953693    40A      1.000590    41A      1.103463  
      42A      1.109174    43A      1.153288    44A      1.156031  
      45A      1.171370    46A      1.180980    47A      1.189521  
      48A      1.204333    49A      1.235034    50A      1.245542  
      51A      1.248162    52A      1.283152    53A      1.294395  
      54A      1.556496    55A      1.707828    56A      1.718988  
      57A      1.772738    58A      1.877182    59A      1.962384  
      60A      2.032772    61A      2.167142    62A      2.264941  
      63A      2.301942    64A      2.306890    65A      2.339787  
      66A      2.433543    67A      2.460855    68A      2.625279  
      69A      2.641619    70A      2.661896    71A      2.666805  
      72A      2.731403    73A      2.772426    74A      2.941060  
      75A      2.964325    76A      3.078496    77A      4.558273  
      78A      4.681741    79A      4.801622    80A      4.938900  

    Final Occupation by Irrep:
              A 
    DOCC [    17 ]

  Energy converged.

  @DF-RHF Final Energy:  -157.29429547177975

   => Energetics <=

    Nuclear Repulsion Energy =            133.1390649226151197
    One-Electron Energy =                -474.2805844283950591
    Two-Electron Energy =                 183.8472240340005044
    DFT Exchange-Correlation Energy =       0.0000000000000000
    Empirical Dispersion Energy =           0.0000000000000000
    PCM Polarization Energy =               0.0000000000000000
    EFP Energy =                            0.0000000000000000
    Total Energy =                       -157.2942954717794066


  Saving occupied orbitals to File 180.

*** tstop() called on lski1497 at Mon Feb 20 17:34:44 2017
Module time:
	user time   =       4.96 seconds =       0.08 minutes
	system time =       0.14 seconds =       0.00 minutes
	total time  =          8 seconds =       0.13 minutes
Total time:
	user time   =      49.79 seconds =       0.83 minutes
	system time =       1.62 seconds =       0.03 minutes
	total time  =         73 seconds =       1.22 minutes


Properties will be evaluated at   0.000000,   0.000000,   0.000000 Bohr

Properties computed using the SCF density matrix

  Nuclear Dipole Moment: (a.u.)
     X:    -0.6808      Y:    -0.2382      Z:    -0.6447

  Electronic Dipole Moment: (a.u.)
     X:     0.6998      Y:     0.2448      Z:     0.6627

  Dipole Moment: (a.u.)
     X:     0.0190      Y:     0.0066      Z:     0.0180     Total:     0.0270

  Dipole Moment: (Debye)
     X:     0.0484      Y:     0.0169      Z:     0.0457     Total:     0.0687


  //>>>>>>>>>>>>>>>>>>>>>>>>>>>>>>>>>>>//
  //               DFMP2               //
  //<<<<<<<<<<<<<<<<<<<<<<<<<<<<<<<<<<<//


*** tstart() called on lski1497
*** at Mon Feb 20 17:34:44 2017


*** tstop() called on lski1497 at Mon Feb 20 17:34:44 2017
Module time:
	user time   =       0.53 seconds =       0.01 minutes
	system time =       0.01 seconds =       0.00 minutes
	total time  =          0 seconds =       0.00 minutes
Total time:
	user time   =      50.34 seconds =       0.84 minutes
	system time =       1.63 seconds =       0.03 minutes
	total time  =         73 seconds =       1.22 minutes
	 --------------------------------------------------------
	                          DF-MP2                         
	      2nd-Order Density-Fitted Moller-Plesset Theory     
	              RMP2 Wavefunction,   1 Threads             
	                                                         
	        Rob Parrish, Justin Turney, Andy Simmonett,      
	           Ed Hohenstein, and C. David Sherrill          
	 --------------------------------------------------------

   => Auxiliary Basis Set <=

  Basis Set: 
    Number of shells: 132
    Number of basis function: 364
    Number of Cartesian functions: 414
    Spherical Harmonics?: true
    Max angular momentum: 3

	 --------------------------------------------------------
	                 NBF =    80, NAUX =   364
	 --------------------------------------------------------
	   CLASS    FOCC     OCC    AOCC    AVIR     VIR    FVIR
	   PAIRS       0      17      17      63      63       0
	 --------------------------------------------------------

DGAS Warning! /src/lib/libfock/apps.cc:80 is not currently checking restricted

         ------------------------------------------------------------
                                     CPHF                           
                                  Rob Parrish                       
         ------------------------------------------------------------

  ==> Geometry <==

    Molecular point group: c1
    Full point group: C1

    Geometry (in Angstrom), charge = 0, multiplicity = 1:

       Center              X                  Y                   Z               Mass       
    ------------   -----------------  -----------------  -----------------  -----------------
           H         -1.899306857123     0.284015786034     0.792526758611     1.007825032070
           H         -1.693272144650     1.949603027747     0.221323798553     1.007825032070
           H         -1.484539580813     0.598943082358    -0.899710150045     1.007825032070
           C         -1.321364175441     0.927962247329     0.126181415833    12.000000000000
           H          0.719749140908     1.531697648588    -0.182972146436     1.007825032070
           H          0.292204903573     1.224839530907     1.516663208534     1.007825032070
           C          0.167800044211     0.870623540339     0.490590944954    12.000000000000
           H          1.845094078034    -0.474262989744     0.505621713775     1.007825032070
           H          0.355111332511    -1.154926247315     1.199723256042     1.007825032070
           C          0.761043864769    -0.544608111354     0.388589536603    12.000000000000
           H          0.901200570666    -2.227469099576    -0.970870968403     1.007825032070
           H          0.858923620827    -0.648516710103    -1.776510923759     1.007825032070
           H         -0.621339107177    -1.338018103435    -1.093482771149     1.007825032070
           C          0.453508297996    -1.232637478913    -0.947606113500    12.000000000000

  Nuclear repulsion =  133.139064922615120
[...]
  CGR           1          0          1   7.661E-02
  CGR           2          0          1   8.979E-03
  CGR           3          0          1   2.392E-03
  CGR           4          0          1   4.365E-04
  CGR           5          0          1   7.949E-05
  CGR           6          0          1   1.493E-05
  CGR           7          0          1   1.930E-06
  CGR           8          1          0   4.316E-07

    CGRSolver converged.

  ==> DFCorrGrad: Density-Fitted Correlated Gradients <==

    OpenMP threads:              1
    Integrals threads:           1
    Memory (MB):               715
    Schwarz Cutoff:          0E+00
    Fitting Condition:       1E-12

   => Auxiliary Basis Set <=

  Basis Set: 
    Number of shells: 186
    Number of basis function: 510
    Number of Cartesian functions: 574
    Spherical Harmonics?: true
    Max angular momentum: 3

	-----------------------------------------------------------
	 ==================> DF-MP2 Energies <==================== 
	-----------------------------------------------------------
	 Reference Energy          =    -157.2954783254505742 [Eh]
	 Singles Energy            =      -0.0000000000000000 [Eh]
	 Same-Spin Energy          =      -0.1247074312939287 [Eh]
	 Opposite-Spin Energy      =      -0.4225831059827358 [Eh]
	 Correlation Energy        =      -0.5472905372766644 [Eh]
	 Total Energy              =    -157.8427688627272403 [Eh]
	-----------------------------------------------------------
	 ================> DF-SCS-MP2 Energies <================== 
	-----------------------------------------------------------
	 SCS Same-Spin Scale       =       0.3333333333333333 [-]
	 SCS Opposite-Spin Scale   =       1.2000000000000000 [-]
	 SCS Same-Spin Energy      =      -0.0415691437646429 [Eh]
	 SCS Opposite-Spin Energy  =      -0.5070997271792830 [Eh]
	 SCS Correlation Energy    =      -0.5486688709439258 [Eh]
	 SCS Total Energy          =    -157.8441471963944878 [Eh]
	-----------------------------------------------------------


  -Total Gradient:
     Atom            X                  Y                   Z
    ------   -----------------  -----------------  -----------------
       1       -0.000003397311     0.000003912498    -0.000004257965
       2        0.000005482958    -0.000007349300    -0.000001534736
       3        0.000008025766     0.000000523520     0.000005515260
       4        0.000539451413     0.000384828818    -0.002166266130
       5        0.000000053647    -0.000001351867    -0.000000035244
       6       -0.000000358317    -0.000007635342    -0.000012008301
       7       -0.001540737733    -0.000906612886     0.003424244529
       8       -0.000013986060     0.000002569783    -0.000001512951
       9       -0.000000327029     0.000001281187    -0.000000550294
      10        0.002909170898     0.001387081448    -0.002128911284
      11       -0.000004382645     0.000008489806     0.000002958047
      12       -0.000002654219    -0.000006076200    -0.000001317524
      13        0.000004802146     0.000004091469     0.000007035133
      14       -0.001901143513    -0.000863752932     0.000876641461


			-----------------------------------------
			 OPTKING 2.0: for geometry optimizations 
			  - R.A. King,  Bethel University        
			-----------------------------------------

	Previous internal coordinate definitions found.
	---Fragment 1 Geometry and Gradient---
	 H          -3.6081275806        0.4676969335        1.3833479508
	 H          -3.2274257465        3.6895939507        0.5901904556
	 H          -2.8230529633        1.3452694045       -1.7434044506
	 C          -2.4941563716        1.7886146446        0.2450704448
	 H           1.3621398951        2.9013971928       -0.3367937198
	 H           0.5992834178        2.3444106921        2.8399895795
	 C           0.3046469632        1.6327116735        0.9176183080
	 H           3.4723352355       -0.9147288492        1.0134582208
	 H           0.6806267766       -2.1841145266        2.2701003347
	 C           1.4253145691       -1.0252640393        0.7196466309
	 H           1.8670293998       -4.1672728113       -1.8776908583
	 H           1.4935362297       -1.2102009721       -3.3846323687
	 H          -1.1399710689       -2.7368196263       -2.0072675971
	 C           0.8753601580       -2.3570284920       -1.7771266429
	            -0.0000033973        0.0000039125       -0.0000042580
	             0.0000054830       -0.0000073493       -0.0000015347
	             0.0000080258        0.0000005235        0.0000055153
	             0.0005394514        0.0003848288       -0.0021662661
	             0.0000000536       -0.0000013519       -0.0000000352
	            -0.0000003583       -0.0000076353       -0.0000120083
	            -0.0015407377       -0.0009066129        0.0034242445
	            -0.0000139861        0.0000025698       -0.0000015130
	            -0.0000003270        0.0000012812       -0.0000005503
	             0.0029091709        0.0013870814       -0.0021289113
	            -0.0000043826        0.0000084898        0.0000029580
	            -0.0000026542       -0.0000060762       -0.0000013175
	             0.0000048021        0.0000040915        0.0000070351
	            -0.0019011435       -0.0008637529        0.0008766415

	---Fragment 1 Intrafragment Coordinates---
	 - Coordinate -           - BOHR/RAD -       - ANG/DEG -
	 R(1,4)           =         2.069162	       1.094953
	 R(2,4)           =         2.066522	       1.093556
	 R(3,4)           =         2.063676	       1.092051
	 R(4,7)           =         2.882694	       1.525456
	 R(5,7)           =         2.073983	       1.097504
	 R(6,7)           =         2.070951	       1.095900
	 R(7,10)          =         2.891353	       1.530038
	 R(8,10)          =         2.070951	       1.095900
	 R(9,10)          =         2.073982	       1.097504
	 R(10,14)         =         2.882694	       1.525456
	 R(11,14)         =         2.066520	       1.093555
	 R(12,14)         =         2.069162	       1.094953
	 R(13,14)         =         2.063678	       1.092051
	 B(1,4,2)         =         1.880043	     107.718538
	 B(1,4,3)         =         1.882963	     107.885826
	 B(1,4,7)         =         1.938883	     111.089809
	 B(2,4,3)         =         1.877577	     107.577254
	 B(2,4,7)         =         1.934024	     110.811413
	 B(3,4,7)         =         1.947568	     111.587453
	 B(4,7,5)         =         1.897426	     108.714523
	 B(4,7,6)         =         1.913582	     109.640162
	 B(4,7,10)        =         1.993312	     114.208341
	 B(5,7,6)         =         1.853212	     106.181224
	 B(5,7,10)        =         1.900010	     108.862543
	 B(6,7,10)        =         1.901104	     108.925238
	 B(7,10,8)        =         1.901104	     108.925232
	 B(7,10,9)        =         1.900011	     108.862589
	 B(7,10,14)       =         1.993312	     114.208367
	 B(8,10,9)        =         1.853211	     106.181179
	 B(8,10,14)       =         1.913581	     109.640123
	 B(9,10,14)       =         1.897427	     108.714537
	 B(10,14,11)      =         1.934024	     110.811407
	 B(10,14,12)      =         1.938883	     111.089810
	 B(10,14,13)      =         1.947568	     111.587440
	 B(11,14,12)      =         1.880044	     107.718564
	 B(11,14,13)      =         1.877578	     107.577267
	 B(12,14,13)      =         1.882963	     107.885806
	 D(1,4,7,5)       =         3.085315	     176.775522
	 D(1,4,7,6)       =        -1.178918	     -67.547051
	 D(1,4,7,10)      =         0.959965	      55.001925
	 D(2,4,7,5)       =        -1.108611	     -63.518727
	 D(2,4,7,6)       =         0.910341	      52.158701
	 D(2,4,7,10)      =         3.049224	     174.707677
	 D(3,4,7,5)       =         0.983284	      56.338050
	 D(3,4,7,6)       =         3.002236	     172.015478
	 D(3,4,7,10)      =        -1.142066	     -65.435546
	 D(4,7,10,8)      =         3.024982	     173.318720
	 D(4,7,10,9)      =        -1.244619	     -71.311411
	 D(4,7,10,14)     =         0.879311	      50.380825
	 D(5,7,10,8)      =         0.901053	      51.626554
	 D(5,7,10,9)      =         2.914637	     166.996423
	 D(5,7,10,14)     =        -1.244618	     -71.311342
	 D(6,7,10,8)      =        -1.112531	     -63.743347
	 D(6,7,10,9)      =         0.901053	      51.626522
	 D(6,7,10,14)     =         3.024983	     173.318758
	 D(7,10,14,11)    =         3.049224	     174.707678
	 D(7,10,14,12)    =         0.959964	      55.001897
	 D(7,10,14,13)    =        -1.142066	     -65.435541
	 D(8,10,14,11)    =         0.910341	      52.158722
	 D(8,10,14,12)    =        -1.178919	     -67.547059
	 D(8,10,14,13)    =         3.002237	     172.015503
	 D(9,10,14,11)    =        -1.108609	     -63.518639
	 D(9,10,14,12)    =         3.085316	     176.775580
	 D(9,10,14,13)    =         0.983286	      56.338142

	Current energy   :      -157.8427688627

	Energy change for the previous step:
		Projected    :         0.0000029472
		Actual       :         0.0000016446

	Performing BFGS update.
	Previous computed or guess Hessian on step 1.
	Steps to be used in Hessian update: 9 8
	Adding user-defined constraint: Fragment 1; Coordinate 49:
		Value =     0.879311; Fixed value    =     0.872660
		Force =    -0.004822; Force constant =     0.725000
	Removing off-diagonal coupling between coordinate 49 and others.
	Taking RFO optimization step.
	Going to follow RFO solution 1.
	Using RFO vector 1.
	Norm of target step-size    0.00091
	Projected energy change by RFO approximation:        -0.0000003276

	Back-transformation to cartesian coordinates...
	Successfully converged to displaced geometry.

	--- Internal Coordinate Step in ANG or DEG, aJ/ANG or AJ/DEG ---
	 ---------------------------------------------------------------------------
	   Coordinate                Previous        Force       Change         New 
	   ----------                --------       ------       ------       ------
	    1 R(1,4)          =      1.094953     0.000025     0.000005     1.094959
	    2 R(2,4)          =      1.093556     0.000074     0.000013     1.093570
	    3 R(3,4)          =      1.092051     0.000055     0.000011     1.092062
	    4 R(4,7)          =      1.525456     0.000061     0.000006     1.525462
	    5 R(5,7)          =      1.097504     0.000006     0.000004     1.097508
	    6 R(6,7)          =      1.095900     0.000114     0.000019     1.095919
	    7 R(7,10)         =      1.530038     0.000173     0.000034     1.530073
	    8 R(8,10)         =      1.095900     0.000115     0.000019     1.095919
	    9 R(9,10)         =      1.097504     0.000008     0.000004     1.097508
	   10 R(10,14)        =      1.525456     0.000063     0.000006     1.525462
	   11 R(11,14)        =      1.093555     0.000080     0.000014     1.093570
	   12 R(12,14)        =      1.094953     0.000026     0.000005     1.094959
	   13 R(13,14)        =      1.092051     0.000051     0.000011     1.092062
	   14 B(1,4,2)        =    107.718538     0.000000    -0.000766   107.717772
	   15 B(1,4,3)        =    107.885826    -0.000000    -0.000975   107.884851
	   16 B(1,4,7)        =    111.089809    -0.000001    -0.003856   111.085954
	   17 B(2,4,3)        =    107.577254    -0.000000     0.000032   107.577286
	   18 B(2,4,7)        =    110.811413     0.000000     0.001578   110.812991
	   19 B(3,4,7)        =    111.587453     0.000001     0.003892   111.591345
	   20 B(4,7,5)        =    108.714523    -0.000009    -0.004626   108.709898
	   21 B(4,7,6)        =    109.640162     0.000009     0.002845   109.643007
	   22 B(4,7,10)       =    114.208341     0.000001     0.001177   114.209518
	   23 B(5,7,6)        =    106.181224     0.000000    -0.001191   106.180032
	   24 B(5,7,10)       =    108.862543     0.000000    -0.000337   108.862207
	   25 B(6,7,10)       =    108.925238    -0.000000     0.001915   108.927153
	   26 B(7,10,8)       =    108.925232    -0.000000     0.001916   108.927148
	   27 B(7,10,9)       =    108.862589     0.000000    -0.000375   108.862213
	   28 B(7,10,14)      =    114.208367     0.000001     0.001147   114.209514
	   29 B(8,10,9)       =    106.181179     0.000000    -0.001152   106.180028
	   30 B(8,10,14)      =    109.640123     0.000009     0.002884   109.643007
	   31 B(9,10,14)      =    108.714537    -0.000009    -0.004632   108.709906
	   32 B(10,14,11)     =    110.811407     0.000000     0.001584   110.812990
	   33 B(10,14,12)     =    111.089810    -0.000001    -0.003864   111.085946
	   34 B(10,14,13)     =    111.587440     0.000001     0.003902   111.591342
	   35 B(11,14,12)     =    107.718564     0.000000    -0.000801   107.717763
	   36 B(11,14,13)     =    107.577267    -0.000000     0.000025   107.577292
	   37 B(12,14,13)     =    107.885806    -0.000000    -0.000941   107.884865
	   38 D(1,4,7,5)      =    176.775522    -0.000000    -0.003946   176.771576
	   39 D(1,4,7,6)      =    -67.547051    -0.000001    -0.006396   -67.553447
	   40 D(1,4,7,10)     =     55.001925     0.000001    -0.000892    55.001033
	   41 D(2,4,7,5)      =    -63.518727    -0.000001    -0.006402   -63.525129
	   42 D(2,4,7,6)      =     52.158701    -0.000001    -0.008853    52.149848
	   43 D(2,4,7,10)     =    174.707677     0.000001    -0.003349   174.704328
	   44 D(3,4,7,5)      =     56.338050    -0.000000    -0.002708    56.335343
	   45 D(3,4,7,6)      =    172.015478    -0.000001    -0.005159   172.010319
	   46 D(3,4,7,10)     =    -65.435546     0.000001     0.000346   -65.435201
	   47 D(4,7,10,8)     =    173.318720    -0.000003    -0.016326   173.302394
	   48 D(4,7,10,9)     =    -71.311411    -0.000003    -0.016861   -71.328271
	   49 D(4,7,10,14)    =     50.380825    -0.000005    -0.022333    50.358492
	   50 D(5,7,10,8)     =     51.626554     0.000000    -0.010911    51.615643
	   51 D(5,7,10,9)     =    166.996423     0.000000    -0.011446   166.984977
	   52 D(5,7,10,14)    =    -71.311342    -0.000003    -0.016918   -71.328259
	   53 D(6,7,10,8)     =    -63.743347     0.000000    -0.010350   -63.753697
	   54 D(6,7,10,9)     =     51.626522     0.000000    -0.010885    51.615638
	   55 D(6,7,10,14)    =    173.318758    -0.000003    -0.016356   173.302401
	   56 D(7,10,14,11)   =    174.707678     0.000001    -0.003379   174.704299
	   57 D(7,10,14,12)   =     55.001897     0.000001    -0.000877    55.001020
	   58 D(7,10,14,13)   =    -65.435541     0.000001     0.000317   -65.435225
	   59 D(8,10,14,11)   =     52.158722    -0.000001    -0.008893    52.149829
	   60 D(8,10,14,12)   =    -67.547059    -0.000001    -0.006390   -67.553449
	   61 D(8,10,14,13)   =    172.015503    -0.000001    -0.005197   172.010306
	   62 D(9,10,14,11)   =    -63.518639    -0.000001    -0.006508   -63.525147
	   63 D(9,10,14,12)   =    176.775580    -0.000000    -0.004005   176.771575
	   64 D(9,10,14,13)   =     56.338142    -0.000000    -0.002812    56.335330
	 ---------------------------------------------------------------------------
	 Forces used to impose fixed constraints are not included.
	  Forces zeroed: 49 

  ==> Convergence Check <==

  Measures of convergence in internal coordinates in au.
  Criteria marked as inactive (o), active & met (*), and active & unmet ( ).
  ---------------------------------------------------------------------------------------------
   Step     Total Energy     Delta E     MAX Force     RMS Force      MAX Disp      RMS Disp   
  ---------------------------------------------------------------------------------------------
    Convergence Criteria    1.00e-06 *    3.00e-04 *             o    1.20e-03 *             o
  ---------------------------------------------------------------------------------------------
     10    -157.84276886    1.64e-06      1.49e-04 *    5.26e-05 o    3.90e-04 *    1.13e-04 o  ~
  ---------------------------------------------------------------------------------------------


  **** Optimization is complete! (in 10 steps) ****

  ==> Optimization Summary <==

  Measures of convergence in internal coordinates in au.
  --------------------------------------------------------------------------------------------------------------- ~
   Step         Total Energy             Delta E       MAX Force       RMS Force        MAX Disp        RMS Disp  ~
  --------------------------------------------------------------------------------------------------------------- ~
      1    -157.833654646751   -157.833654646751      0.03213675      0.00980265      0.04389317      0.01266621  ~
      2    -157.839272787367     -0.005618140615      0.01111115      0.00473161      0.02419399      0.01253928  ~
      3    -157.841650903557     -0.002378116190      0.00564186      0.00174859      0.03436229      0.01251642  ~
      4    -157.842417319204     -0.000766415647      0.00153873      0.00062275      0.02993739      0.01249373  ~
      5    -157.842647597116     -0.000230277912      0.00043433      0.00020633      0.02607750      0.01250081  ~
      6    -157.842725053751     -0.000077456635      0.00032101      0.00011622      0.02483988      0.01249955  ~
      7    -157.842770797117     -0.000045743366      0.00058005      0.00013199      0.01743339      0.00872870  ~
      8    -157.842779546003     -0.000008748886      0.00061072      0.00013170      0.00321179      0.00168074  ~
      9    -157.842770507349      0.000009038654      0.00030873      0.00006718      0.00335452      0.00167854  ~
     10    -157.842768862727      0.000001644622      0.00030093      0.00006464      0.00038978      0.00011333  ~
  --------------------------------------------------------------------------------------------------------------- ~

	Writing optimization data to binary file.
	Final energy is   -157.8427688627272
	Final (previous) structure:
	Cartesian Geometry (in Angstrom)
	    H    -1.9093388813   0.2474945578   0.7320362071
	    H    -1.7078801474   1.9524490277   0.3123153378
	    H    -1.4938952868   0.7118859083  -0.9225699006
	    C    -1.3198507065   0.9464941049   0.1296856939
	    H     0.7208133874   1.5353532675  -0.1782235605
	    H     0.3171271262   1.2406087059   1.5028577581
	    C     0.1612122296   0.8639938058   0.4855826948
	    H     1.8374806672  -0.4840536590   0.5362989923
	    H     0.3601721777  -1.1557836284   1.2012853583
	    C     0.7542439850  -0.5425463624   0.3808205953
	    H     0.9879894061  -2.2052257937  -0.9936312070
	    H     0.7903453330  -0.6404107722  -1.7910703090
	    H    -0.6032467081  -1.4482625703  -1.0622002639
	    C     0.4632206449  -1.2472857580  -0.9404149162
	Saving final (previous) structure.
			--------------------------
			 OPTKING Finished Execution 
			--------------------------

    Final optimized geometry and variables:
    Molecular point group: c1
    Full point group: C1

    Geometry (in Angstrom), charge = 0, multiplicity = 1:

    H           -1.909338881328     0.247494557751     0.732036207113
    H           -1.707880147444     1.952449027667     0.312315337826
    H           -1.493895286833     0.711885908258    -0.922569900596
    C           -1.319850706533     0.946494104879     0.129685693899
    H            0.720813387398     1.535353267517    -0.178223560518
    H            0.317127126174     1.240608705855     1.502857758102
    C            0.161212229602     0.863993805812     0.485582694763
    H            1.837480667201    -0.484053659037     0.536298992292
    H            0.360172177722    -1.155783628416     1.201285358335
    C            0.754243985036    -0.542546362398     0.380820595321
    H            0.987989406147    -2.205225793725    -0.993631206968
    H            0.790345332964    -0.640410772243    -1.791070308958
    H           -0.603246708122    -1.448262570286    -1.062200263912
    C            0.463220644914    -1.247285757974    -0.940414916194

	Cleaning optimization helper files.

*** Psi4 exiting successfully. Buy a developer a beer!
