    -----------------------------------------------------------------------
          Psi4: An Open-Source Ab Initio Electronic Structure Package
                              Psi4 1.0.0 Driver

                          Git: Rev {master} 6a9a71b 

    J. M. Turney, A. C. Simmonett, R. M. Parrish, E. G. Hohenstein,
    F. A. Evangelista, J. T. Fermann, B. J. Mintz, L. A. Burns, J. J. Wilke,
    M. L. Abrams, N. J. Russ, M. L. Leininger, C. L. Janssen, E. T. Seidl,
    W. D. Allen, H. F. Schaefer, R. A. King, E. F. Valeev, C. D. Sherrill,
    and T. D. Crawford, WIREs Comput. Mol. Sci. 2, 556-565 (2012)
    (doi: 10.1002/wcms.93)

                         Additional Contributions by
    A. E. DePrince, U. Bozkaya, A. Yu. Sokolov, D. G. A. Smith, R. Di Remigio,
    R. M. Richard, J. F. Gonthier, H. R. McAlexander, M. Saitow, and
    B. P. Pritchard
    -----------------------------------------------------------------------


    Psi4 started on: Mon Feb 20 17:27:20 2017

    Process ID:  28152
    PSI4DATADIR: /Users/sternc1/anaconda/share/psi4
    Memory level set to 256.000 MB

  ==> Input File <==

--------------------------------------------------------------------------

memory 1000 mb

molecule butane {
  symmetry C1
  0 1 
  H      1.604   0.760   -8.260
  H      1.745   2.388   -8.880
  H      2.043   1.024   -9.930
  C      2.142   1.395   -8.932
  H      4.169   2.051   -9.210
  H      3.731   1.788   -7.539
  C      3.631   1.416   -8.537
  H      5.243   0.033   -8.859
  H      4.082   -0.495   -7.665
  C      4.203   -0.012   -8.612
  H      3.851   -1.802   -9.746
  H      3.574   -0.327   -10.641
  H      2.413   -0.856   -9.448
  C      3.453   -0.810   -9.694
  units Angstrom
}

dih_string = "4 7 10 14 30"
set optking fixed_dihedral = $dih_string

optimize('MP2/6-31G(d)')
--------------------------------------------------------------------------

  Memory set to 1000.000 MiB by Python script.
gradient() will perform analytic gradient computation.
    SCF Algorithm Type (re)set to DF.

*** tstart() called on lski1497
*** at Mon Feb 20 17:27:22 2017


         ---------------------------------------------------------
                                   SCF
            by Justin Turney, Rob Parrish, and Andy Simmonett
                              RHF Reference
                        1 Threads,   1000 MiB Core
         ---------------------------------------------------------

  ==> Geometry <==

    Molecular point group: c1
    Full point group: C1

    Geometry (in Angstrom), charge = 0, multiplicity = 1:

       Center              X                  Y                   Z               Mass       
    ------------   -----------------  -----------------  -----------------  -----------------
           H         -1.733858154221     0.269838652350     0.696599809216     1.007825032070
           H         -1.592858154221     1.897838652350     0.076599809216     1.007825032070
           H         -1.294858154221     0.533838652350    -0.973400190784     1.007825032070
           C         -1.195858154221     0.904838652350     0.024599809216    12.000000000000
           H          0.831141845779     1.560838652350    -0.253400190784     1.007825032070
           H          0.393141845779     1.297838652350     1.417599809216     1.007825032070
           C          0.293141845779     0.925838652350     0.419599809216    12.000000000000
           H          1.905141845779    -0.457161347650     0.097599809216     1.007825032070
           H          0.744141845779    -0.985161347650     1.291599809216     1.007825032070
           C          0.865141845779    -0.502161347650     0.344599809216    12.000000000000
           H          0.513141845779    -2.292161347650    -0.789400190784     1.007825032070
           H          0.236141845779    -0.817161347650    -1.684400190784     1.007825032070
           H         -0.924858154221    -1.346161347650    -0.491400190784     1.007825032070
           C          0.115141845779    -1.300161347650    -0.737400190784    12.000000000000

  Running in c1 symmetry.

  Rotational constants: A =      0.38644  B =      0.20047  C =      0.14896 [cm^-1]
  Rotational constants: A =  11585.20562  B =   6009.97752  C =   4465.66260 [MHz]
  Nuclear repulsion =  136.011543648999321

  Charge       = 0
  Multiplicity = 1
  Electrons    = 34
  Nalpha       = 17
  Nbeta        = 17

  ==> Algorithm <==

  SCF Algorithm Type is DF.
  DIIS enabled.
  MOM disabled.
  Fractional occupation disabled.
  Guess Type is SAD.
  Energy threshold   = 1.00e-10
  Density threshold  = 1.00e-10
  Integral threshold = 0.00e+00

  ==> Primary Basis <==

  Basis Set: 6-31G(D)
    Number of shells: 44
    Number of basis function: 80
    Number of Cartesian functions: 80
    Spherical Harmonics?: false
    Max angular momentum: 2

  ==> Pre-Iterations <==

   -------------------------------------------------------
    Irrep   Nso     Nmo     Nalpha   Nbeta   Ndocc  Nsocc
   -------------------------------------------------------
     A         80      80       0       0       0       0
   -------------------------------------------------------
    Total      80      80      17      17      17       0
   -------------------------------------------------------

  ==> Integral Setup <==

  ==> DFJK: Density-Fitted J/K Matrices <==

    J tasked:                  Yes
    K tasked:                  Yes
    wK tasked:                  No
    OpenMP threads:              1
    Integrals threads:           1
    Memory (MB):               715
    Algorithm:                Core
    Integral Cache:           NONE
    Schwarz Cutoff:          1E-12
    Fitting Condition:       1E-12

   => Auxiliary Basis Set <=

  Basis Set: 
    Number of shells: 186
    Number of basis function: 574
    Number of Cartesian functions: 574
    Spherical Harmonics?: false
    Max angular momentum: 3

  Minimum eigenvalue in the overlap matrix is 4.3025150150E-03.
  Using Symmetric Orthogonalization.
  SCF Guess: Superposition of Atomic Densities via on-the-fly atomic UHF.

  ==> Iterations <==

                           Total Energy        Delta E     RMS |[F,P]|

   @DF-RHF iter   0:  -158.96494497720241   -1.58965e+02   4.71507e-02 
   @DF-RHF iter   1:  -157.18460273363488    1.78034e+00   4.15782e-03 
   @DF-RHF iter   2:  -157.27128831275863   -8.66856e-02   1.20920e-03 DIIS
   @DF-RHF iter   3:  -157.28006324163360   -8.77493e-03   4.23857e-04 DIIS
   @DF-RHF iter   4:  -157.28090870033853   -8.45459e-04   8.66802e-05 DIIS
   @DF-RHF iter   5:  -157.28095991589547   -5.12156e-05   1.57647e-05 DIIS
   @DF-RHF iter   6:  -157.28096180124575   -1.88535e-06   3.32281e-06 DIIS
   @DF-RHF iter   7:  -157.28096185814488   -5.68991e-08   9.17050e-07 DIIS
   @DF-RHF iter   8:  -157.28096186309747   -4.95260e-09   1.93643e-07 DIIS
   @DF-RHF iter   9:  -157.28096186338590   -2.88424e-10   5.33370e-08 DIIS
   @DF-RHF iter  10:  -157.28096186340920   -2.33058e-11   1.37940e-08 DIIS
   @DF-RHF iter  11:  -157.28096186341017   -9.66338e-13   3.54619e-09 DIIS
   @DF-RHF iter  12:  -157.28096186341034   -1.70530e-13   7.95360e-10 DIIS
   @DF-RHF iter  13:  -157.28096186341057   -2.27374e-13   1.46467e-10 DIIS
   @DF-RHF iter  14:  -157.28096186341045    1.13687e-13   2.89899e-11 DIIS

  ==> Post-Iterations <==

    Orbital Energies (a.u.)
    -----------------------

    Doubly Occupied:                                                      

       1A    -11.207414     2A    -11.206833     3A    -11.198666  
       4A    -11.198566     5A     -1.076747     6A     -0.968480  
       7A     -0.886478     8A     -0.773590     9A     -0.643911  
      10A     -0.628324    11A     -0.570630    12A     -0.539631  
      13A     -0.527978    14A     -0.509706    15A     -0.462777  
      16A     -0.454481    17A     -0.452573  

    Virtual:                                                              

      18A      0.232461    19A      0.280075    20A      0.288824  
      21A      0.305813    22A      0.312294    23A      0.318045  
      24A      0.357698    25A      0.360216    26A      0.362115  
      27A      0.377515    28A      0.402302    29A      0.425139  
      30A      0.460541    31A      0.714030    32A      0.734086  
      33A      0.758329    34A      0.771363    35A      0.781640  
      36A      0.827476    37A      0.847257    38A      0.930519  
      39A      0.946689    40A      0.999338    41A      1.123037  
      42A      1.147998    43A      1.171341    44A      1.184894  
      45A      1.190487    46A      1.210045    47A      1.213394  
      48A      1.213453    49A      1.232455    50A      1.270236  
      51A      1.272407    52A      1.303771    53A      1.330224  
      54A      1.606811    55A      1.683354    56A      1.722858  
      57A      1.750917    58A      1.946869    59A      1.980153  
      60A      2.083500    61A      2.165170    62A      2.296248  
      63A      2.308473    64A      2.321169    65A      2.360560  
      66A      2.445833    67A      2.514741    68A      2.612032  
      69A      2.662157    70A      2.690758    71A      2.733064  
      72A      2.751169    73A      2.809793    74A      2.929275  
      75A      2.957880    76A      3.097869    77A      4.591912  
      78A      4.694160    79A      4.790843    80A      4.976255  

    Final Occupation by Irrep:
              A 
    DOCC [    17 ]

  Energy converged.

  @DF-RHF Final Energy:  -157.28096186341045

   => Energetics <=

    Nuclear Repulsion Energy =            136.0115436489993215
    One-Electron Energy =                -479.9714370211713685
    Two-Electron Energy =                 186.6789315087615932
    DFT Exchange-Correlation Energy =       0.0000000000000000
    Empirical Dispersion Energy =           0.0000000000000000
    PCM Polarization Energy =               0.0000000000000000
    EFP Energy =                            0.0000000000000000
    Total Energy =                       -157.2809618634104254


  Saving occupied orbitals to File 180.

*** tstop() called on lski1497 at Mon Feb 20 17:27:30 2017
Module time:
	user time   =       4.99 seconds =       0.08 minutes
	system time =       0.17 seconds =       0.00 minutes
	total time  =          8 seconds =       0.13 minutes
Total time:
	user time   =       4.99 seconds =       0.08 minutes
	system time =       0.17 seconds =       0.00 minutes
	total time  =          8 seconds =       0.13 minutes


Properties will be evaluated at   0.000000,   0.000000,   0.000000 Bohr

Properties computed using the SCF density matrix

  Nuclear Dipole Moment: (a.u.)
     X:    -0.8658      Y:    -0.3165      Z:    -0.5737

  Electronic Dipole Moment: (a.u.)
     X:     0.8911      Y:     0.3253      Z:     0.5903

  Dipole Moment: (a.u.)
     X:     0.0253      Y:     0.0088      Z:     0.0166     Total:     0.0315

  Dipole Moment: (Debye)
     X:     0.0642      Y:     0.0225      Z:     0.0422     Total:     0.0800


  //>>>>>>>>>>>>>>>>>>>>>>>>>>>>>>>>>>>//
  //               DFMP2               //
  //<<<<<<<<<<<<<<<<<<<<<<<<<<<<<<<<<<<//


*** tstart() called on lski1497
*** at Mon Feb 20 17:27:30 2017


*** tstop() called on lski1497 at Mon Feb 20 17:27:31 2017
Module time:
	user time   =       0.54 seconds =       0.01 minutes
	system time =       0.01 seconds =       0.00 minutes
	total time  =          1 seconds =       0.02 minutes
Total time:
	user time   =       5.55 seconds =       0.09 minutes
	system time =       0.18 seconds =       0.00 minutes
	total time  =          9 seconds =       0.15 minutes
	 --------------------------------------------------------
	                          DF-MP2                         
	      2nd-Order Density-Fitted Moller-Plesset Theory     
	              RMP2 Wavefunction,   1 Threads             
	                                                         
	        Rob Parrish, Justin Turney, Andy Simmonett,      
	           Ed Hohenstein, and C. David Sherrill          
	 --------------------------------------------------------

   => Auxiliary Basis Set <=

  Basis Set: 
    Number of shells: 132
    Number of basis function: 364
    Number of Cartesian functions: 414
    Spherical Harmonics?: true
    Max angular momentum: 3

	 --------------------------------------------------------
	                 NBF =    80, NAUX =   364
	 --------------------------------------------------------
	   CLASS    FOCC     OCC    AOCC    AVIR     VIR    FVIR
	   PAIRS       0      17      17      63      63       0
	 --------------------------------------------------------

DGAS Warning! /src/lib/libfock/apps.cc:80 is not currently checking restricted

         ------------------------------------------------------------
                                     CPHF                           
                                  Rob Parrish                       
         ------------------------------------------------------------

  ==> Geometry <==

    Molecular point group: c1
    Full point group: C1

    Geometry (in Angstrom), charge = 0, multiplicity = 1:

       Center              X                  Y                   Z               Mass       
    ------------   -----------------  -----------------  -----------------  -----------------
           H         -1.733858154221     0.269838652350     0.696599809216     1.007825032070
           H         -1.592858154221     1.897838652350     0.076599809216     1.007825032070
           H         -1.294858154221     0.533838652350    -0.973400190784     1.007825032070
           C         -1.195858154221     0.904838652350     0.024599809216    12.000000000000
           H          0.831141845779     1.560838652350    -0.253400190784     1.007825032070
           H          0.393141845779     1.297838652350     1.417599809216     1.007825032070
           C          0.293141845779     0.925838652350     0.419599809216    12.000000000000
           H          1.905141845779    -0.457161347650     0.097599809216     1.007825032070
           H          0.744141845779    -0.985161347650     1.291599809216     1.007825032070
           C          0.865141845779    -0.502161347650     0.344599809216    12.000000000000
           H          0.513141845779    -2.292161347650    -0.789400190784     1.007825032070
           H          0.236141845779    -0.817161347650    -1.684400190784     1.007825032070
           H         -0.924858154221    -1.346161347650    -0.491400190784     1.007825032070
           C          0.115141845779    -1.300161347650    -0.737400190784    12.000000000000

  Nuclear repulsion =  136.011543648999321
  Reference energy  = -157.280961863410454

  ==> Basis Set <==

  Basis Set: 6-31G(D)
    Number of shells: 44
    Number of basis function: 80
    Number of Cartesian functions: 80
    Spherical Harmonics?: false
    Max angular momentum: 2

  ==> CGRSolver (by Rob Parrish) <==

   Number of roots    =         1
   Preconditioning    =    JACOBI
   Convergence cutoff =     1E-06
   Maximum iterations =       100

  ==> CPHFRHamiltonian (by Rob Parrish) <== 

  ==> DFJK: Density-Fitted J/K Matrices <==

    J tasked:                  Yes
    K tasked:                  Yes
    wK tasked:                  No
    OpenMP threads:              1
    Integrals threads:           1
    Memory (MB):               715
    Algorithm:                Core
    Integral Cache:           NONE
    Schwarz Cutoff:          1E-12
    Fitting Condition:       1E-12

   => Auxiliary Basis Set <=

  Basis Set: 
    Number of shells: 186
    Number of basis function: 574
    Number of Cartesian functions: 574
    Spherical Harmonics?: false
    Max angular momentum: 3

  ==> CPHF Iterations <==

  => Iterations <=

             Iter  Converged  Remaining    Residual
  CGR           1          0          1   7.598E-02
  CGR           2          0          1   8.721E-03
  CGR           3          0          1   2.225E-03
  CGR           4          0          1   4.323E-04
  CGR           5          0          1   7.788E-05
  CGR           6          0          1   1.414E-05
  CGR           7          0          1   1.907E-06
  CGR           8          1          0   4.875E-07

    CGRSolver converged.

  ==> DFCorrGrad: Density-Fitted Correlated Gradients <==

    OpenMP threads:              1
    Integrals threads:           1
    Memory (MB):               715
    Schwarz Cutoff:          0E+00
    Fitting Condition:       1E-12

   => Auxiliary Basis Set <=

  Basis Set: 
    Number of shells: 186
    Number of basis function: 510
    Number of Cartesian functions: 574
    Spherical Harmonics?: true
    Max angular momentum: 3

	-----------------------------------------------------------
	 ==================> DF-MP2 Energies <==================== 
	-----------------------------------------------------------
	 Reference Energy          =    -157.2809618634104538 [Eh]
	 Singles Energy            =      -0.0000000000000000 [Eh]
	 Same-Spin Energy          =      -0.1254413619120335 [Eh]
	 Opposite-Spin Energy      =      -0.4215290782399636 [Eh]
	 Correlation Energy        =      -0.5469704401519970 [Eh]
	 Total Energy              =    -157.8279323035624486 [Eh]
	-----------------------------------------------------------
	 ================> DF-SCS-MP2 Energies <================== 
	-----------------------------------------------------------
	 SCS Same-Spin Scale       =       0.3333333333333333 [-]
	 SCS Opposite-Spin Scale   =       1.2000000000000000 [-]
	 SCS Same-Spin Energy      =      -0.0418137873040112 [Eh]
	 SCS Opposite-Spin Energy  =      -0.5058348938879562 [Eh]
	 SCS Correlation Energy    =      -0.5476486811919674 [Eh]
	 SCS Total Energy          =    -157.8286105446024123 [Eh]
	-----------------------------------------------------------


  -Total Gradient:
     Atom            X                  Y                   Z
    ------   -----------------  -----------------  -----------------
       1        0.011851085046     0.008229960357    -0.009289533586
       2        0.009279064795    -0.014191498451    -0.000827832484
       3        0.006918981787    -0.001073351558     0.011722261769
       4       -0.024501005068    -0.014067220481    -0.009536894166
       5       -0.008171833929    -0.012289344990     0.009239720056
       6       -0.003954502531    -0.010413053636    -0.014285968441
       7        0.018748672131     0.024873912705     0.007988497633
       8       -0.017907996700     0.002318806279    -0.000261985791
       9       -0.000167066166     0.009312809758    -0.015060643318
      10        0.023119958673    -0.009740213225     0.019871846102
      11       -0.004904630547     0.016248929642     0.003836655316
      12       -0.000726535693    -0.004075939809     0.016509877520
      13        0.010984682789     0.007741391937     0.000277653481
      14       -0.020568874586    -0.002875188528    -0.020183654089


			-----------------------------------------
			 OPTKING 2.0: for geometry optimizations 
			  - R.A. King,  Bethel University        
			-----------------------------------------

	Internal coordinates to be generated automatically.
	Detected frag 1 with atoms:  1 2 3 4 5 6 7 8 9 10 11 12 13 14
	---Fragment 1 Bond Connectivity---
	 1 : 4
	 2 : 4
	 3 : 4
	 4 : 1 2 3 7
	 5 : 7
	 6 : 7
	 7 : 4 5 6 10
	 8 : 10
	 9 : 10
	 10 : 7 8 9 14
	 11 : 14
	 12 : 14
	 13 : 14
	 14 : 10 11 12 13

	Assuming in current code that numbering for constraints corresponds to unified fragment.
	Fixed dihedral atom list: 
	     4     7    10    14
	---Fragment 1 Geometry and Gradient---
	 H          -3.2765170647        0.5099211530        1.3163828636
	 H          -3.0100656800        3.5863952973        0.1447526613
	 H          -2.4469272924        1.0088088521       -1.8394597783
	 C          -2.2598444053        1.7098972474        0.0464869023
	 H           1.5706304661        2.9495575906       -0.4788569626
	 H           0.7429304199        2.4525596176        2.6788754055
	 C           0.5539578066        1.7495814962        0.7929287248
	 H           3.6001963328       -0.8639097456        0.1844369100
	 H           1.4062242925       -1.8616851438        2.4407699127
	 C           1.6348811546       -0.9489474216        0.6511992649
	 H           0.9696975558       -4.3315571994       -1.4917501698
	 H           0.4462434170       -1.5442111534       -3.1830550588
	 H          -1.7477286232       -2.5438762777       -0.9286117822
	 C           0.2175865550       -2.4569488756       -1.3934844109
	             0.0118510850        0.0082299604       -0.0092895336
	             0.0092790648       -0.0141914985       -0.0008278325
	             0.0069189818       -0.0010733516        0.0117222618
	            -0.0245010051       -0.0140672205       -0.0095368942
	            -0.0081718339       -0.0122893450        0.0092397201
	            -0.0039545025       -0.0104130536       -0.0142859684
	             0.0187486721        0.0248739127        0.0079884976
	            -0.0179079967        0.0023188063       -0.0002619858
	            -0.0001670662        0.0093128098       -0.0150606433
	             0.0231199587       -0.0097402132        0.0198718461
	            -0.0049046305        0.0162489296        0.0038366553
	            -0.0007265357       -0.0040759398        0.0165098775
	             0.0109846828        0.0077413919        0.0002776535
	            -0.0205688746       -0.0028751885       -0.0201836541

	Previous optimization step data not found.  Starting new optimization.

	---Fragment 1 Intrafragment Coordinates---
	 - Coordinate -           - BOHR/RAD -       - ANG/DEG -
	 R(1,4)           =         2.021436	       1.069698
	 R(2,4)           =         2.023298	       1.070683
	 R(3,4)           =         2.020723	       1.069320
	 R(4,7)           =         2.911397	       1.540645
	 R(5,7)           =         2.022623	       1.070326
	 R(6,7)           =         2.021555	       1.069761
	 R(7,10)          =         2.910419	       1.540128
	 R(8,10)          =         2.021772	       1.069876
	 R(9,10)          =         2.021865	       1.069925
	 R(10,14)         =         2.909214	       1.539490
	 R(11,14)         =         2.022247	       1.070127
	 R(12,14)         =         2.021865	       1.069925
	 R(13,14)         =         2.021417	       1.069688
	 B(1,4,2)         =         1.910870	     109.484805
	 B(1,4,3)         =         1.911121	     109.499161
	 B(1,4,7)         =         1.910399	     109.457783
	 B(2,4,3)         =         1.910042	     109.437340
	 B(2,4,7)         =         1.910564	     109.467262
	 B(3,4,7)         =         1.910803	     109.480971
	 B(4,7,5)         =         1.909937	     109.431343
	 B(4,7,6)         =         1.911630	     109.528316
	 B(4,7,10)        =         1.911154	     109.501062
	 B(5,7,6)         =         1.910605	     109.469614
	 B(5,7,10)        =         1.910047	     109.437654
	 B(6,7,10)        =         1.910425	     109.459295
	 B(7,10,8)        =         1.910567	     109.467409
	 B(7,10,9)        =         1.910771	     109.479093
	 B(7,10,14)       =         1.911240	     109.506012
	 B(8,10,9)        =         1.910561	     109.467071
	 B(8,10,14)       =         1.910398	     109.457761
	 B(9,10,14)       =         1.910262	     109.449971
	 B(10,14,11)      =         1.910781	     109.479712
	 B(10,14,12)      =         1.910262	     109.449971
	 B(10,14,13)      =         1.911671	     109.530705
	 B(11,14,12)      =         1.910709	     109.475582
	 B(11,14,13)      =         1.910182	     109.445352
	 B(12,14,13)      =         1.910193	     109.445992
	 D(1,4,7,5)       =         3.140997	     179.965873
	 D(1,4,7,6)       =        -1.047644	     -60.025575
	 D(1,4,7,10)      =         1.047427	      60.013132
	 D(2,4,7,5)       =        -1.047689	     -60.028143
	 D(2,4,7,6)       =         1.046856	      59.980409
	 D(2,4,7,10)      =        -3.141259	    -179.980883
	 D(3,4,7,5)       =         1.046044	      59.933911
	 D(3,4,7,6)       =         3.140588	     179.942463
	 D(3,4,7,10)      =        -1.047526	     -60.018830
	 D(4,7,10,8)      =         2.617862	     149.992457
	 D(4,7,10,9)      =        -1.570973	     -90.010140
	 D(4,7,10,14)     =         0.523424	      29.989969
	 D(5,7,10,8)      =         0.524359	      30.043581
	 D(5,7,10,9)      =         2.618709	     150.040984
	 D(5,7,10,14)     =        -1.570079	     -89.958907
	 D(6,7,10,8)      =        -1.569516	     -89.926618
	 D(6,7,10,9)      =         0.524834	      30.070786
	 D(6,7,10,14)     =         2.619231	     150.070894
	 D(7,10,14,11)    =         3.141237	     179.979599
	 D(7,10,14,12)    =         1.046885	      59.982071
	 D(7,10,14,13)    =        -1.047380	     -60.010432
	 D(8,10,14,11)    =         1.046695	      59.971207
	 D(8,10,14,12)    =        -1.047657	     -60.026321
	 D(8,10,14,13)    =         3.141264	     179.981177
	 D(9,10,14,11)    =        -1.047241	     -60.002472
	 D(9,10,14,12)    =         3.141593	     180.000000
	 D(9,10,14,13)    =         1.047328	      60.007497

	Current energy   :      -157.8279323036

	Generating empirical Hessian (Schlegel '84) for each fragment.
	Adding user-defined constraint: Fragment 1; Coordinate 49:
		Value =     0.523424; Fixed value    =     0.523599
		Force =     0.000088; Force constant =     0.500000
	Removing off-diagonal coupling between coordinate 49 and others.
	Taking RFO optimization step.
	Going to follow RFO solution 1.
	Using RFO vector 1.

	Determining step-restricting scale parameter for RS-RFO.
	Maximum step size allowed    0.10000

	 Iter      |step|        alpha        rfo_root  
	------------------------------------------------
	    0     0.43482       1.00000           1
	    1     0.29511       4.31299           1
	    2     0.20015      13.71652           1
	    3     0.14343      32.42031           1
	    4     0.11372      56.58613           1
	    5     0.10216      72.59960           1
	    6     0.10007      76.13250           1
	    7     0.10000      76.25326           1
	------------------------------------------------
	Norm of target step-size    0.10000
	Projected energy change by RFO approximation:        -0.0099771013

	Back-transformation to cartesian coordinates...
	Could not converge backtransformation.
	Using first guess instead.

	--- Internal Coordinate Step in ANG or DEG, aJ/ANG or AJ/DEG ---
	 ---------------------------------------------------------------------------
	   Coordinate                Previous        Force       Change         New 
	   ----------                --------       ------       ------       ------
	    1 R(1,4)          =      1.069698     0.137437     0.008027     1.077725
	    2 R(2,4)          =      1.070683     0.137114     0.008917     1.079600
	    3 R(3,4)          =      1.069320     0.092344     0.006305     1.075625
	    4 R(4,7)          =      1.540645     0.009128     0.002224     1.542869
	    5 R(5,7)          =      1.070326     0.141774     0.008027     1.078353
	    6 R(6,7)          =      1.069761     0.142681     0.008325     1.078086
	    7 R(7,10)         =      1.540128     0.177730     0.010990     1.551118
	    8 R(8,10)         =      1.069876     0.142117     0.008297     1.078172
	    9 R(9,10)         =      1.069925     0.144305     0.008167     1.078091
	   10 R(10,14)        =      1.539490     0.014248     0.002540     1.542030
	   11 R(11,14)        =      1.070127     0.140661     0.009114     1.079241
	   12 R(12,14)        =      1.069925     0.136230     0.007963     1.077888
	   13 R(13,14)        =      1.069688     0.090204     0.006187     1.075875
	   14 B(1,4,2)        =    109.484805    -0.000313    -0.237440   109.247364
	   15 B(1,4,3)        =    109.499161    -0.000273    -0.287324   109.211838
	   16 B(1,4,7)        =    109.457783     0.000299     0.228240   109.686022
	   17 B(2,4,3)        =    109.437340    -0.000440    -0.344655   109.092686
	   18 B(2,4,7)        =    109.467262     0.000116     0.107031   109.574293
	   19 B(3,4,7)        =    109.480971     0.000612     0.529487   110.010458
	   20 B(4,7,5)        =    109.431343    -0.000976    -0.772698   108.658645
	   21 B(4,7,6)        =    109.528316    -0.001155    -0.848243   108.680073
	   22 B(4,7,10)       =    109.501062     0.003665     2.827186   112.328248
	   23 B(5,7,6)        =    109.469614     0.000422     0.229503   109.699116
	   24 B(5,7,10)       =    109.437654    -0.000922    -0.669249   108.768405
	   25 B(6,7,10)       =    109.459295    -0.001033    -0.776131   108.683164
	   26 B(7,10,8)       =    109.467409    -0.001035    -0.777946   108.689463
	   27 B(7,10,9)       =    109.479093    -0.000926    -0.673116   108.805977
	   28 B(7,10,14)      =    109.506012     0.003666     2.827799   112.333810
	   29 B(8,10,9)       =    109.467071     0.000421     0.229013   109.696084
	   30 B(8,10,14)      =    109.457761    -0.001148    -0.841544   108.616217
	   31 B(9,10,14)      =    109.449971    -0.000979    -0.774177   108.675794
	   32 B(10,14,11)     =    109.479712     0.000118     0.108216   109.587928
	   33 B(10,14,12)     =    109.449971     0.000300     0.229973   109.679944
	   34 B(10,14,13)     =    109.530705     0.000607     0.525989   110.056694
	   35 B(11,14,12)     =    109.475582    -0.000314    -0.238281   109.237301
	   36 B(11,14,13)     =    109.445352    -0.000441    -0.346393   109.098960
	   37 B(12,14,13)     =    109.445992    -0.000270    -0.284672   109.161320
	   38 D(1,4,7,5)      =    179.965873     0.000110     0.367297   180.333170
	   39 D(1,4,7,6)      =    -60.025575    -0.000071    -0.318380   -60.343955
	   40 D(1,4,7,10)     =     60.013132    -0.000008    -0.064676    59.948456
	   41 D(2,4,7,5)      =    -60.028143     0.000081     0.282122   -59.746021
	   42 D(2,4,7,6)      =     59.980409    -0.000100    -0.403555    59.576854
	   43 D(2,4,7,10)     =   -179.980883    -0.000037    -0.149851  -180.130734
	   44 D(3,4,7,5)      =     59.933911     0.000059     0.251183    60.185094
	   45 D(3,4,7,6)      =    179.942463    -0.000122    -0.434494   179.507969
	   46 D(3,4,7,10)     =    -60.018830    -0.000059    -0.180790   -60.199620
	   47 D(4,7,10,8)     =    149.992457     0.000118     0.399810   150.392267
	   48 D(4,7,10,9)     =    -90.010140    -0.000039    -0.187643   -90.197783
	   49 D(4,7,10,14)    =     29.989969     0.000071     0.183864    30.173833
	   50 D(5,7,10,8)     =     30.043581     0.000008     0.027465    30.071046
	   51 D(5,7,10,9)     =    150.040984    -0.000149    -0.559989   149.480996
	   52 D(5,7,10,14)    =    -89.958907    -0.000039    -0.188481   -90.147388
	   53 D(6,7,10,8)     =    -89.926618     0.000164     0.609508   -89.317110
	   54 D(6,7,10,9)     =     30.070786     0.000007     0.022054    30.092840
	   55 D(6,7,10,14)    =    150.070894     0.000117     0.393561   150.464456
	   56 D(7,10,14,11)   =    179.979599    -0.000037    -0.148131   179.831467
	   57 D(7,10,14,12)   =     59.982071    -0.000007    -0.063729    59.918342
	   58 D(7,10,14,13)   =    -60.010432    -0.000059    -0.182025   -60.192456
	   59 D(8,10,14,11)   =     59.971207    -0.000100    -0.400589    59.570618
	   60 D(8,10,14,12)   =    -60.026321    -0.000070    -0.316187   -60.342508
	   61 D(8,10,14,13)   =    179.981177    -0.000122    -0.434482   179.546694
	   62 D(9,10,14,11)   =    -60.002472     0.000080     0.280810   -59.721662
	   63 D(9,10,14,12)   =    180.000000     0.000110     0.365212   180.365212
	   64 D(9,10,14,13)   =     60.007497     0.000058     0.246917    60.254414
	 ---------------------------------------------------------------------------
	 Forces used to impose fixed constraints are not included.
	  Forces zeroed: 49 

  ==> Convergence Check <==

  Measures of convergence in internal coordinates in au.
  Criteria marked as inactive (o), active & met (*), and active & unmet ( ).
  --------------------------------------------------------------------------------------------- ~
   Step     Total Energy     Delta E     MAX Force     RMS Force      MAX Disp      RMS Disp    ~
  --------------------------------------------------------------------------------------------- ~
    Convergence Criteria    1.00e-06 *    3.00e-04 *             o    1.20e-03 *             o  ~
  --------------------------------------------------------------------------------------------- ~
      1    -157.82793230   -1.58e+02      4.82e-02      1.26e-02 o    4.94e-02      1.27e-02 o  ~
  ---------------------------------------------------------------------------------------------

	Writing optimization data to binary file.
	Structure for next step:
	Cartesian Geometry (in Angstrom)
	    H    -1.7853979352   0.3397062507   0.7104209734
	    H    -1.5837975020   1.9857014156   0.1237506252
	    H    -1.3592400591   0.6290432361  -0.9676877843
	    C    -1.2227287781   0.9714969622   0.0427868517
	    H     0.8186451100   1.5649944100  -0.2545556184
	    H     0.3859430757   1.2787342053   1.4305824425
	    C     0.2728164729   0.9236639849   0.4189518997
	    H     1.9051552732  -0.4404512439   0.0800314803
	    H     0.7416242639  -0.9946441684   1.2830735564
	    C     0.8579885389  -0.5099031021   0.3271621862
	    H     0.5962111157  -2.3465487911  -0.7758762811
	    H     0.2660353835  -0.8950675077  -1.7125529827
	    H    -0.8932896716  -1.4535285132  -0.5189392508
	    C     0.1540205533  -1.3624560056  -0.7477507692
			--------------------------
			 OPTKING Finished Execution 
			--------------------------

    Structure for next step:
    Molecular point group: c1
    Full point group: C1

    Geometry (in Angstrom), charge = 0, multiplicity = 1:

    H           -1.782469894196     0.340757195211     0.712360762429
    H           -1.580869460997     1.986752360113     0.125690414286
    H           -1.356312018092     0.630094180659    -0.965747995213
    C           -1.219800737095     0.972547906695     0.044726640703
    H            0.821573151100     1.566045354535    -0.252615829389
    H            0.388871116747     1.279785149814     1.432522231567
    C            0.275744513920     0.924714929458     0.420891688769
    H            1.908083314247    -0.439400299340     0.081971269366
    H            0.744552304967    -0.993593223838     1.285013345474
    C            0.860916579905    -0.508852157582     0.329101975286
    H            0.599139156781    -2.345497846606    -0.773936492020
    H            0.268963424600    -0.894016563136    -1.710613193705
    H           -0.890361630571    -1.452477568709    -0.516999461783
    C            0.156948594315    -1.361405061052    -0.745810980163

gradient() will perform analytic gradient computation.
    SCF Algorithm Type (re)set to DF.

*** tstart() called on lski1497
*** at Mon Feb 20 17:27:54 2017


         ---------------------------------------------------------
                                   SCF
            by Justin Turney, Rob Parrish, and Andy Simmonett
                              RHF Reference
                        1 Threads,   1000 MiB Core
         ---------------------------------------------------------

  ==> Geometry <==

    Molecular point group: c1
    Full point group: C1

    Geometry (in Angstrom), charge = 0, multiplicity = 1:

       Center              X                  Y                   Z               Mass       
    ------------   -----------------  -----------------  -----------------  -----------------
           H         -1.782469894196     0.340757195211     0.712360762429     1.007825032070
           H         -1.580869460997     1.986752360113     0.125690414286     1.007825032070
           H         -1.356312018092     0.630094180659    -0.965747995213     1.007825032070
           C         -1.219800737095     0.972547906695     0.044726640703    12.000000000000
           H          0.821573151100     1.566045354535    -0.252615829389     1.007825032070
           H          0.388871116747     1.279785149814     1.432522231567     1.007825032070
           C          0.275744513920     0.924714929458     0.420891688769    12.000000000000
           H          1.908083314247    -0.439400299340     0.081971269366     1.007825032070
           H          0.744552304967    -0.993593223838     1.285013345474     1.007825032070
           C          0.860916579905    -0.508852157582     0.329101975286    12.000000000000
           H          0.599139156781    -2.345497846606    -0.773936492020     1.007825032070
           H          0.268963424600    -0.894016563136    -1.710613193705     1.007825032070
           H         -0.890361630571    -1.452477568709    -0.516999461783     1.007825032070
           C          0.156948594315    -1.361405061052    -0.745810980163    12.000000000000

  Running in c1 symmetry.

  Rotational constants: A =      0.39454  B =      0.18563  C =      0.14162 [cm^-1]
  Rotational constants: A =  11828.08907  B =   5565.01610  C =   4245.74869 [MHz]
  Nuclear repulsion =  134.174478915325949

  Charge       = 0
  Multiplicity = 1
  Electrons    = 34
  Nalpha       = 17
  Nbeta        = 17

  ==> Algorithm <==

  SCF Algorithm Type is DF.
  DIIS enabled.
  MOM disabled.
  Fractional occupation disabled.
  Guess Type is READ.
  Energy threshold   = 1.00e-10
  Density threshold  = 1.00e-10
  Integral threshold = 0.00e+00

  ==> Primary Basis <==

  Basis Set: 6-31G(D)
    Number of shells: 44
    Number of basis function: 80
    Number of Cartesian functions: 80
    Spherical Harmonics?: false
    Max angular momentum: 2

  ==> Pre-Iterations <==

   -------------------------------------------------------
    Irrep   Nso     Nmo     Nalpha   Nbeta   Ndocc  Nsocc
   -------------------------------------------------------
     A         80      80       0       0       0       0
   -------------------------------------------------------
    Total      80      80      17      17      17       0
   -------------------------------------------------------

  ==> Integral Setup <==

  ==> DFJK: Density-Fitted J/K Matrices <==

    J tasked:                  Yes
    K tasked:                  Yes
    wK tasked:                  No
    OpenMP threads:              1
    Integrals threads:           1
    Memory (MB):               715
    Algorithm:                Core
    Integral Cache:           NONE
    Schwarz Cutoff:          1E-12
    Fitting Condition:       1E-12

   => Auxiliary Basis Set <=

  Basis Set: 
    Number of shells: 186
    Number of basis function: 574
    Number of Cartesian functions: 574
    Spherical Harmonics?: false
    Max angular momentum: 3

  Minimum eigenvalue in the overlap matrix is 4.5036632648E-03.
  Using Symmetric Orthogonalization.
  SCF Guess was Projection but file not found.
  Switching over to SAD guess.

  SCF Guess: Superposition of Atomic Densities via on-the-fly atomic UHF.

  ==> Iterations <==

                           Total Energy        Delta E     RMS |[F,P]|

   @DF-RHF iter   0:  -158.83803821790877   -1.58838e+02   4.62127e-02 
   @DF-RHF iter   1:  -157.19184547953273    1.64619e+00   4.13622e-03 
   @DF-RHF iter   2:  -157.27863034474217   -8.67849e-02   1.22315e-03 DIIS
   @DF-RHF iter   3:  -157.28752186704355   -8.89152e-03   4.38710e-04 DIIS
   @DF-RHF iter   4:  -157.28842851275260   -9.06646e-04   8.58243e-05 DIIS
   @DF-RHF iter   5:  -157.28847968550645   -5.11728e-05   1.51363e-05 DIIS
   @DF-RHF iter   6:  -157.28848145438832   -1.76888e-06   3.04194e-06 DIIS
   @DF-RHF iter   7:  -157.28848150138901   -4.70007e-08   8.54990e-07 DIIS
   @DF-RHF iter   8:  -157.28848150553961   -4.15059e-09   1.70702e-07 DIIS
   @DF-RHF iter   9:  -157.28848150576005   -2.20439e-10   4.80018e-08 DIIS
   @DF-RHF iter  10:  -157.28848150577835   -1.83036e-11   1.29660e-08 DIIS
   @DF-RHF iter  11:  -157.28848150577937   -1.02318e-12   3.22226e-09 DIIS
   @DF-RHF iter  12:  -157.28848150577954   -1.70530e-13   7.03739e-10 DIIS
   @DF-RHF iter  13:  -157.28848150577960   -5.68434e-14   1.30711e-10 DIIS
   @DF-RHF iter  14:  -157.28848150577949    1.13687e-13   2.89573e-11 DIIS

  ==> Post-Iterations <==

    Orbital Energies (a.u.)
    -----------------------

    Doubly Occupied:                                                      

       1A    -11.211328     2A    -11.210780     3A    -11.203292  
       4A    -11.203221     5A     -1.069020     6A     -0.970971  
       7A     -0.880667     8A     -0.771504     9A     -0.639931  
      10A     -0.619604    11A     -0.571662    12A     -0.533516  
      13A     -0.527460    14A     -0.513273    15A     -0.461136  
      16A     -0.453873    17A     -0.453056  

    Virtual:                                                              

      18A      0.228182    19A      0.280424    20A      0.288384  
      21A      0.302136    22A      0.310282    23A      0.316197  
      24A      0.352728    25A      0.354696    26A      0.358015  
      27A      0.375451    28A      0.395717    29A      0.420381  
      30A      0.465231    31A      0.713227    32A      0.732049  
      33A      0.741744    34A      0.774653    35A      0.779076  
      36A      0.828995    37A      0.854250    38A      0.920540  
      39A      0.946130    40A      1.000147    41A      1.114629  
      42A      1.128788    43A      1.166081    44A      1.171872  
      45A      1.179081    46A      1.193440    47A      1.201580  
      48A      1.205289    49A      1.230893    50A      1.259270  
      51A      1.261560    52A      1.292095    53A      1.317192  
      54A      1.607997    55A      1.672260    56A      1.719035  
      57A      1.721651    58A      1.935162    59A      1.985437  
      60A      2.065545    61A      2.163987    62A      2.287958  
      63A      2.292664    64A      2.318721    65A      2.355651  
      66A      2.433308    67A      2.501856    68A      2.602068  
      69A      2.657790    70A      2.675156    71A      2.710224  
      72A      2.738546    73A      2.787850    74A      2.919280  
      75A      2.967461    76A      3.084461    77A      4.564822  
      78A      4.696467    79A      4.783045    80A      4.967548  

    Final Occupation by Irrep:
              A 
    DOCC [    17 ]

  Energy converged.

  @DF-RHF Final Energy:  -157.28848150577949

   => Energetics <=

    Nuclear Repulsion Energy =            134.1744789153259489
    One-Electron Energy =                -476.3373313035037881
    Two-Electron Energy =                 184.8743708823982104
    DFT Exchange-Correlation Energy =       0.0000000000000000
    Empirical Dispersion Energy =           0.0000000000000000
    PCM Polarization Energy =               0.0000000000000000
    EFP Energy =                            0.0000000000000000
    Total Energy =                       -157.2884815057796288


  Saving occupied orbitals to File 180.

*** tstop() called on lski1497 at Mon Feb 20 17:28:02 2017
Module time:
	user time   =       4.87 seconds =       0.08 minutes
	system time =       0.13 seconds =       0.00 minutes
	total time  =          8 seconds =       0.13 minutes
Total time:
	user time   =      27.44 seconds =       0.46 minutes
	system time =       0.81 seconds =       0.01 minutes
	total time  =         40 seconds =       0.67 minutes


Properties will be evaluated at   0.000000,   0.000000,   0.000000 Bohr

Properties computed using the SCF density matrix

  Nuclear Dipole Moment: (a.u.)
     X:    -0.8239      Y:    -0.3014      Z:    -0.5459

  Electronic Dipole Moment: (a.u.)
     X:     0.8482      Y:     0.3101      Z:     0.5619

  Dipole Moment: (a.u.)
     X:     0.0243      Y:     0.0087      Z:     0.0160     Total:     0.0304

  Dipole Moment: (Debye)
     X:     0.0618      Y:     0.0220      Z:     0.0406     Total:     0.0772


  //>>>>>>>>>>>>>>>>>>>>>>>>>>>>>>>>>>>//
  //               DFMP2               //
  //<<<<<<<<<<<<<<<<<<<<<<<<<<<<<<<<<<<//


*** tstart() called on lski1497
*** at Mon Feb 20 17:28:02 2017


*** tstop() called on lski1497 at Mon Feb 20 17:28:02 2017
Module time:
	user time   =       0.50 seconds =       0.01 minutes
	system time =       0.01 seconds =       0.00 minutes
	total time  =          0 seconds =       0.00 minutes
Total time:
	user time   =      27.96 seconds =       0.47 minutes
	system time =       0.82 seconds =       0.01 minutes
	total time  =         40 seconds =       0.67 minutes
	 --------------------------------------------------------
	                          DF-MP2                         
	      2nd-Order Density-Fitted Moller-Plesset Theory     
	              RMP2 Wavefunction,   1 Threads             
	                                                         
	        Rob Parrish, Justin Turney, Andy Simmonett,      
	           Ed Hohenstein, and C. David Sherrill          
	 --------------------------------------------------------

   => Auxiliary Basis Set <=

  Basis Set: 
    Number of shells: 132
    Number of basis function: 364
    Number of Cartesian functions: 414
    Spherical Harmonics?: true
    Max angular momentum: 3

	 --------------------------------------------------------
	                 NBF =    80, NAUX =   364
	 --------------------------------------------------------
	   CLASS    FOCC     OCC    AOCC    AVIR     VIR    FVIR
	   PAIRS       0      17      17      63      63       0
	 --------------------------------------------------------

DGAS Warning! /src/lib/libfock/apps.cc:80 is not currently checking restricted

         ------------------------------------------------------------
                                     CPHF                           
                                  Rob Parrish                       
         ------------------------------------------------------------

  ==> Geometry <==

    Molecular point group: c1
    Full point group: C1

    Geometry (in Angstrom), charge = 0, multiplicity = 1:

       Center              X                  Y                   Z               Mass       
    ------------   -----------------  -----------------  -----------------  -----------------
           H         -1.782469894196     0.340757195211     0.712360762429     1.007825032070
           H         -1.580869460997     1.986752360113     0.125690414286     1.007825032070
           H         -1.356312018092     0.630094180659    -0.965747995213     1.007825032070
           C         -1.219800737095     0.972547906695     0.044726640703    12.000000000000
           H          0.821573151100     1.566045354535    -0.252615829389     1.007825032070
           H          0.388871116747     1.279785149814     1.432522231567     1.007825032070
           C          0.275744513920     0.924714929458     0.420891688769    12.000000000000
           H          1.908083314247    -0.439400299340     0.081971269366     1.007825032070
           H          0.744552304967    -0.993593223838     1.285013345474     1.007825032070
           C          0.860916579905    -0.508852157582     0.329101975286    12.000000000000
           H          0.599139156781    -2.345497846606    -0.773936492020     1.007825032070
           H          0.268963424600    -0.894016563136    -1.710613193705     1.007825032070
           H         -0.890361630571    -1.452477568709    -0.516999461783     1.007825032070
           C          0.156948594315    -1.361405061052    -0.745810980163    12.000000000000

  Nuclear repulsion =  134.174478915325949
  Reference energy  = -157.288481505779487

  ==> Basis Set <==

  Basis Set: 6-31G(D)
    Number of shells: 44
    Number of basis function: 80
    Number of Cartesian functions: 80
    Spherical Harmonics?: false
    Max angular momentum: 2

  ==> CGRSolver (by Rob Parrish) <==

   Number of roots    =         1
   Preconditioning    =    JACOBI
   Convergence cutoff =     1E-06
   Maximum iterations =       100

  ==> CPHFRHamiltonian (by Rob Parrish) <== 

  ==> DFJK: Density-Fitted J/K Matrices <==

    J tasked:                  Yes
    K tasked:                  Yes
    wK tasked:                  No
    OpenMP threads:              1
    Integrals threads:           1
    Memory (MB):               715
    Algorithm:                Core
    Integral Cache:           NONE
    Schwarz Cutoff:          1E-12
    Fitting Condition:       1E-12

   => Auxiliary Basis Set <=

  Basis Set: 
    Number of shells: 186
    Number of basis function: 574
    Number of Cartesian functions: 574
    Spherical Harmonics?: false
    Max angular momentum: 3

  ==> CPHF Iterations <==

  => Iterations <=

             Iter  Converged  Remaining    Residual
  CGR           1          0          1   7.488E-02
  CGR           2          0          1   8.616E-03
  CGR           3          0          1   2.230E-03
  CGR           4          0          1   4.317E-04
  CGR           5          0          1   7.539E-05
  CGR           6          0          1   1.372E-05
  CGR           7          0          1   1.750E-06
  CGR           8          1          0   4.360E-07

    CGRSolver converged.

  ==> DFCorrGrad: Density-Fitted Correlated Gradients <==

    OpenMP threads:              1
    Integrals threads:           1
    Memory (MB):               715
    Schwarz Cutoff:          0E+00
    Fitting Condition:       1E-12

   => Auxiliary Basis Set <=

  Basis Set: 
    Number of shells: 186
    Number of basis function: 510
    Number of Cartesian functions: 574
    Spherical Harmonics?: true
    Max angular momentum: 3

	-----------------------------------------------------------
	 ==================> DF-MP2 Energies <==================== 
	-----------------------------------------------------------
	 Reference Energy          =    -157.2884815057794867 [Eh]
	 Singles Energy            =      -0.0000000000000000 [Eh]
	 Same-Spin Energy          =      -0.1247550403767830 [Eh]
	 Opposite-Spin Energy      =      -0.4217077451566965 [Eh]
	 Correlation Energy        =      -0.5464627855334795 [Eh]
	 Total Energy              =    -157.8349442913129792 [Eh]
	-----------------------------------------------------------
	 ================> DF-SCS-MP2 Energies <================== 
	-----------------------------------------------------------
	 SCS Same-Spin Scale       =       0.3333333333333333 [-]
	 SCS Opposite-Spin Scale   =       1.2000000000000000 [-]
	 SCS Same-Spin Energy      =      -0.0415850134589277 [Eh]
	 SCS Opposite-Spin Energy  =      -0.5060492941880358 [Eh]
	 SCS Correlation Energy    =      -0.5476343076469634 [Eh]
	 SCS Total Energy          =    -157.8361158134264599 [Eh]
	-----------------------------------------------------------


  -Total Gradient:
     Atom            X                  Y                   Z
    ------   -----------------  -----------------  -----------------
       1        0.008654241729     0.005206816373    -0.005572362371
       2        0.005563001434    -0.008079266936    -0.000685169276
       3        0.004770201411     0.000800029873     0.009160052426
       4       -0.021607317937    -0.004558226473    -0.008432884601
       5       -0.005870335309    -0.009246396058     0.004518409062
       6       -0.004701570597    -0.008130281192    -0.008386963668
       7        0.014517325082     0.021057772918     0.008980686386
       8       -0.012108630800     0.001904188691    -0.002803217155
       9       -0.002090503781     0.006363806666    -0.009978401310
      10        0.021101308693    -0.008130116786     0.014689014621
      11       -0.002911196723     0.009329873843     0.002501170094
      12        0.000097421261    -0.001947778977     0.011277249725
      13        0.009206055411     0.004387011246     0.000156360099
      14       -0.014619999873    -0.008957433186    -0.015423944031


			-----------------------------------------
			 OPTKING 2.0: for geometry optimizations 
			  - R.A. King,  Bethel University        
			-----------------------------------------

	Previous internal coordinate definitions found.
	---Fragment 1 Geometry and Gradient---
	 H          -3.3683799401        0.6439377768        1.3461667488
	 H          -2.9874103331        3.7544178545        0.2375204605
	 H          -2.5630582649        1.1907054394       -1.8249992243
	 C          -2.3050893298        1.8378491948        0.0845211018
	 H           1.5525482537        2.9593968317       -0.4773747344
	 H           0.7348599116        2.4184434421        2.7070746969
	 C           0.5210816140        1.7474579677        0.7953700234
	 H           3.6057549027       -0.8303462285        0.1549032499
	 H           1.4069999480       -1.8776190805        2.4283233000
	 C           1.6268965593       -0.9615912200        0.6219126031
	 H           1.1322089218       -4.4323485754       -1.4625280142
	 H           0.5082672123       -1.6894464626       -3.2325904554
	 H          -1.6825396410       -2.7447848190       -0.9769873936
	 C           0.2965898602       -2.5726827213       -1.4093784994
	             0.0086542417        0.0052068164       -0.0055723624
	             0.0055630014       -0.0080792669       -0.0006851693
	             0.0047702014        0.0008000299        0.0091600524
	            -0.0216073179       -0.0045582265       -0.0084328846
	            -0.0058703353       -0.0092463961        0.0045184091
	            -0.0047015706       -0.0081302812       -0.0083869637
	             0.0145173251        0.0210577729        0.0089806864
	            -0.0121086308        0.0019041887       -0.0028032172
	            -0.0020905038        0.0063638067       -0.0099784013
	             0.0211013087       -0.0081301168        0.0146890146
	            -0.0029111967        0.0093298738        0.0025011701
	             0.0000974213       -0.0019477790        0.0112772497
	             0.0092060554        0.0043870112        0.0001563601
	            -0.0146199999       -0.0089574332       -0.0154239440

	---Fragment 1 Intrafragment Coordinates---
	 - Coordinate -           - BOHR/RAD -       - ANG/DEG -
	 R(1,4)           =         2.036605	       1.077725
	 R(2,4)           =         2.040149	       1.079600
	 R(3,4)           =         2.032636	       1.075625
	 R(4,7)           =         2.915599	       1.542869
	 R(5,7)           =         2.037793	       1.078353
	 R(6,7)           =         2.037287	       1.078086
	 R(7,10)          =         2.931188	       1.551118
	 R(8,10)          =         2.037450	       1.078172
	 R(9,10)          =         2.037298	       1.078091
	 R(10,14)         =         2.914014	       1.542030
	 R(11,14)         =         2.039471	       1.079241
	 R(12,14)         =         2.036913	       1.077888
	 R(13,14)         =         2.033110	       1.075875
	 B(1,4,2)         =         1.906726	     109.247364
	 B(1,4,3)         =         1.906106	     109.211838
	 B(1,4,7)         =         1.914382	     109.686022
	 B(2,4,3)         =         1.904027	     109.092686
	 B(2,4,7)         =         1.912432	     109.574293
	 B(3,4,7)         =         1.920045	     110.010458
	 B(4,7,5)         =         1.896451	     108.658645
	 B(4,7,6)         =         1.896825	     108.680073
	 B(4,7,10)        =         1.960498	     112.328248
	 B(5,7,6)         =         1.914611	     109.699116
	 B(5,7,10)        =         1.898367	     108.768405
	 B(6,7,10)        =         1.896879	     108.683164
	 B(7,10,8)        =         1.896989	     108.689463
	 B(7,10,9)        =         1.899023	     108.805977
	 B(7,10,14)       =         1.960595	     112.333810
	 B(8,10,9)        =         1.914558	     109.696084
	 B(8,10,14)       =         1.895711	     108.616217
	 B(9,10,14)       =         1.896750	     108.675794
	 B(10,14,11)      =         1.912670	     109.587928
	 B(10,14,12)      =         1.914276	     109.679944
	 B(10,14,13)      =         1.920852	     110.056694
	 B(11,14,12)      =         1.906551	     109.237301
	 B(11,14,13)      =         1.904136	     109.098960
	 B(12,14,13)      =         1.905224	     109.161320
	 D(1,4,7,5)       =        -3.135778	    -179.666830
	 D(1,4,7,6)       =        -1.053201	     -60.343955
	 D(1,4,7,10)      =         1.046298	      59.948456
	 D(2,4,7,5)       =        -1.042765	     -59.746021
	 D(2,4,7,6)       =         1.039812	      59.576854
	 D(2,4,7,10)      =         3.139311	     179.869266
	 D(3,4,7,5)       =         1.050428	      60.185094
	 D(3,4,7,6)       =         3.133005	     179.507969
	 D(3,4,7,10)      =        -1.050682	     -60.199620
	 D(4,7,10,8)      =         2.624840	     150.392267
	 D(4,7,10,9)      =        -1.574248	     -90.197783
	 D(4,7,10,14)     =         0.526633	      30.173833
	 D(5,7,10,8)      =         0.524839	      30.071046
	 D(5,7,10,9)      =         2.608936	     149.480996
	 D(5,7,10,14)     =        -1.573369	     -90.147388
	 D(6,7,10,8)      =        -1.558878	     -89.317110
	 D(6,7,10,9)      =         0.525219	      30.092840
	 D(6,7,10,14)     =         2.626100	     150.464456
	 D(7,10,14,11)    =         3.138651	     179.831467
	 D(7,10,14,12)    =         1.045772	      59.918342
	 D(7,10,14,13)    =        -1.050557	     -60.192456
	 D(8,10,14,11)    =         1.039703	      59.570618
	 D(8,10,14,12)    =        -1.053175	     -60.342508
	 D(8,10,14,13)    =         3.133681	     179.546694
	 D(9,10,14,11)    =        -1.042340	     -59.721662
	 D(9,10,14,12)    =        -3.135218	    -179.634788
	 D(9,10,14,13)    =         1.051638	      60.254414

	Current energy   :      -157.8349442913

	Energy change for the previous step:
		Projected    :        -0.0099771013
		Actual       :        -0.0070119878

	Performing BFGS update.
	Previous computed or guess Hessian on step 1.
	Steps to be used in Hessian update: 1
	Adding user-defined constraint: Fragment 1; Coordinate 49:
		Value =     0.526633; Fixed value    =     0.523600
		Force =    -0.001592; Force constant =     0.525000
	Removing off-diagonal coupling between coordinate 49 and others.
	Taking RFO optimization step.
	Going to follow RFO solution 1.
	Using RFO vector 1.

	Determining step-restricting scale parameter for RS-RFO.
	Maximum step size allowed    0.10000

	 Iter      |step|        alpha        rfo_root  
	------------------------------------------------
	    0     0.20709       1.00000           1
	    1     0.15709       5.41413           1
	    2     0.12449      14.99604           1
	    3     0.10674      26.70347           1
	    4     0.10071      32.68239           1
	    5     0.10001      33.47429           1
	------------------------------------------------
	Norm of target step-size    0.10001
	Projected energy change by RFO approximation:        -0.0047921415

	Back-transformation to cartesian coordinates...
	Successfully converged to displaced geometry.

	--- Internal Coordinate Step in ANG or DEG, aJ/ANG or AJ/DEG ---
	 ---------------------------------------------------------------------------
	   Coordinate                Previous        Force       Change         New 
	   ----------                --------       ------       ------       ------
	    1 R(1,4)          =      1.077725     0.090813     0.012648     1.090373
	    2 R(2,4)          =      1.079600     0.078282     0.010772     1.090372
	    3 R(3,4)          =      1.075625     0.077982     0.012249     1.087874
	    4 R(4,7)          =      1.542869    -0.030337    -0.006614     1.536255
	    5 R(5,7)          =      1.078353     0.093036     0.012793     1.091147
	    6 R(6,7)          =      1.078086     0.090964     0.012492     1.090577
	    7 R(7,10)         =      1.551118     0.026782    -0.002550     1.548568
	    8 R(8,10)         =      1.078172     0.090587     0.012443     1.090615
	    9 R(9,10)         =      1.078091     0.094607     0.012996     1.091087
	   10 R(10,14)        =      1.542030    -0.026691    -0.006004     1.536026
	   11 R(11,14)        =      1.079241     0.080453     0.011054     1.090296
	   12 R(12,14)        =      1.077888     0.090038     0.012548     1.090436
	   13 R(13,14)        =      1.075875     0.076618     0.012073     1.087948
	   14 B(1,4,2)        =    109.247364    -0.000248    -0.643504   108.603861
	   15 B(1,4,3)        =    109.211838    -0.000233    -0.665272   108.546566
	   16 B(1,4,7)        =    109.686022     0.000276     0.772838   110.458860
	   17 B(2,4,3)        =    109.092686    -0.000263    -0.572392   108.520294
	   18 B(2,4,7)        =    109.574293     0.000119     0.335139   109.909432
	   19 B(3,4,7)        =    110.010458     0.000341     0.732554   110.743013
	   20 B(4,7,5)        =    108.658645    -0.000317    -0.260488   108.398157
	   21 B(4,7,6)        =    108.680073    -0.000353    -0.183704   108.496370
	   22 B(4,7,10)       =    112.328248     0.001246     1.250288   113.578536
	   23 B(5,7,6)        =    109.699116    -0.000007    -0.565033   109.134083
	   24 B(5,7,10)       =    108.768405    -0.000263    -0.091699   108.676705
	   25 B(6,7,10)       =    108.683164    -0.000318    -0.197477   108.485687
	   26 B(7,10,8)       =    108.689463    -0.000321    -0.193012   108.496451
	   27 B(7,10,9)       =    108.805977    -0.000266    -0.110248   108.695729
	   28 B(7,10,14)      =    112.333810     0.001246     1.246016   113.579826
	   29 B(8,10,9)       =    109.696084    -0.000007    -0.567714   109.128370
	   30 B(8,10,14)      =    108.616217    -0.000346    -0.167764   108.448453
	   31 B(9,10,14)      =    108.675794    -0.000318    -0.255595   108.420200
	   32 B(10,14,11)     =    109.587928     0.000120     0.328086   109.916014
	   33 B(10,14,12)     =    109.679944     0.000277     0.771982   110.451926
	   34 B(10,14,13)     =    110.056694     0.000336     0.710905   110.767600
	   35 B(11,14,12)     =    109.237301    -0.000249    -0.642459   108.594842
	   36 B(11,14,13)     =    109.098960    -0.000264    -0.563111   108.535849
	   37 B(12,14,13)     =    109.161320    -0.000229    -0.646184   108.515136
	   38 D(1,4,7,5)      =   -179.666830     0.000054     0.512136  -179.154695
	   39 D(1,4,7,6)      =    -60.343955    -0.000036    -0.417389   -60.761344
	   40 D(1,4,7,10)     =     59.948456    -0.000002     0.007012    59.955469
	   41 D(2,4,7,5)      =    -59.746021     0.000040     0.410421   -59.335600
	   42 D(2,4,7,6)      =     59.576854    -0.000050    -0.519103    59.057751
	   43 D(2,4,7,10)     =    179.869266    -0.000016    -0.094702   179.774564
	   44 D(3,4,7,5)      =     60.185094     0.000031     0.374593    60.559686
	   45 D(3,4,7,6)      =    179.507969    -0.000059    -0.554932   178.953037
	   46 D(3,4,7,10)     =    -60.199620    -0.000025    -0.130531   -60.330150
	   47 D(4,7,10,8)     =    150.392267     0.000062     0.728322   151.120589
	   48 D(4,7,10,9)     =    -90.197783    -0.000018    -0.127669   -90.325452
	   49 D(4,7,10,14)    =     30.173833     0.000031     0.276302    30.450135
	   50 D(5,7,10,8)     =     30.071046     0.000013     0.316321    30.387367
	   51 D(5,7,10,9)     =    149.480996    -0.000068    -0.539670   148.941326
	   52 D(5,7,10,14)    =    -90.147388    -0.000019    -0.135699   -90.283087
	   53 D(6,7,10,8)     =    -89.317110     0.000092     1.160524   -88.156586
	   54 D(6,7,10,9)     =     30.092840     0.000012     0.304533    30.397373
	   55 D(6,7,10,14)    =    150.464456     0.000061     0.708505   151.172960
	   56 D(7,10,14,11)   =    179.831467    -0.000015    -0.082768   179.748699
	   57 D(7,10,14,12)   =     59.918342    -0.000002     0.022625    59.940967
	   58 D(7,10,14,13)   =    -60.192456    -0.000025    -0.124318   -60.316774
	   59 D(8,10,14,11)   =     59.570618    -0.000050    -0.519395    59.051223
	   60 D(8,10,14,12)   =    -60.342508    -0.000036    -0.414001   -60.756509
	   61 D(8,10,14,13)   =    179.546694    -0.000059    -0.560945   178.985749
	   62 D(9,10,14,11)   =    -59.721662     0.000040     0.400794   -59.320868
	   63 D(9,10,14,12)   =   -179.634788     0.000054     0.506188  -179.128600
	   64 D(9,10,14,13)   =     60.254414     0.000030     0.359245    60.613659
	 ---------------------------------------------------------------------------
	 Forces used to impose fixed constraints are not included.
	  Forces zeroed: 49 

  ==> Convergence Check <==

  Measures of convergence in internal coordinates in au.
  Criteria marked as inactive (o), active & met (*), and active & unmet ( ).
  ---------------------------------------------------------------------------------------------
   Step     Total Energy     Delta E     MAX Force     RMS Force      MAX Disp      RMS Disp   
  ---------------------------------------------------------------------------------------------
    Convergence Criteria    1.00e-06 *    3.00e-04 *             o    1.20e-03 *             o
  ---------------------------------------------------------------------------------------------
      2    -157.83494429   -7.01e-03      1.64e-02      5.74e-03 o    2.46e-02      1.25e-02 o  ~
  ---------------------------------------------------------------------------------------------

	Writing optimization data to binary file.
	Structure for next step:
	Cartesian Geometry (in Angstrom)
	    H    -1.7927799333   0.3771221648   0.7623001816
	    H    -1.5697566331   2.0285968246   0.1628864118
	    H    -1.4121948868   0.6571262818  -0.9417332612
	    C    -1.2211791023   0.9993542061   0.0730881122
	    H     0.8150916823   1.5689157242  -0.2984108105
	    H     0.4300188638   1.2921676823   1.4148295067
	    C     0.2781482338   0.9244479891   0.3994102478
	    H     1.9168062028  -0.4322496278   0.0343572821
	    H     0.7748437272  -0.9865213731   1.2787366882
	    C     0.8623669523  -0.5064363688   0.3028631494
	    H     0.6165981731  -2.3776799684  -0.7587992218
	    H     0.2377702385  -0.9465802841  -1.7306306583
	    H    -0.8975866846  -1.5035121187  -0.4949409287
	    C     0.1568315820  -1.3892967759  -0.7374023237
			--------------------------
			 OPTKING Finished Execution 
			--------------------------

    Structure for next step:
    Molecular point group: c1
    Full point group: C1

    Geometry (in Angstrom), charge = 0, multiplicity = 1:

    H           -1.793226355229     0.376920894231     0.764372658697
    H           -1.570203055013     2.028395554014     0.164958888883
    H           -1.412641308755     0.656925011279    -0.939660784157
    C           -1.221625524278     0.999152935588     0.075160589258
    H            0.814645260400     1.568714453660    -0.296338333374
    H            0.429572441880     1.291966411772     1.416901983804
    C            0.277701811882     0.924246718529     0.401482724911
    H            1.916359780818    -0.432450898318     0.036429759169
    H            0.774397305219    -0.986722643676     1.280809165266
    C            0.861920530407    -0.506637639380     0.304935626494
    H            0.616151751176    -2.377881238976    -0.756726744719
    H            0.237323816542    -0.946781554652    -1.728558181184
    H           -0.898033106540    -1.503713389282    -0.492868451621
    C            0.156385160014    -1.389498046423    -0.735329846646

gradient() will perform analytic gradient computation.
    SCF Algorithm Type (re)set to DF.

*** tstart() called on lski1497
*** at Mon Feb 20 17:28:24 2017


         ---------------------------------------------------------
                                   SCF
            by Justin Turney, Rob Parrish, and Andy Simmonett
                              RHF Reference
                        1 Threads,   1000 MiB Core
         ---------------------------------------------------------

  ==> Geometry <==

    Molecular point group: c1
    Full point group: C1

    Geometry (in Angstrom), charge = 0, multiplicity = 1:

       Center              X                  Y                   Z               Mass       
    ------------   -----------------  -----------------  -----------------  -----------------
           H         -1.793226355229     0.376920894231     0.764372658697     1.007825032070
           H         -1.570203055013     2.028395554014     0.164958888883     1.007825032070
           H         -1.412641308755     0.656925011279    -0.939660784157     1.007825032070
           C         -1.221625524278     0.999152935588     0.075160589258    12.000000000000
           H          0.814645260400     1.568714453660    -0.296338333374     1.007825032070
           H          0.429572441880     1.291966411772     1.416901983804     1.007825032070
           C          0.277701811882     0.924246718529     0.401482724911    12.000000000000
           H          1.916359780818    -0.432450898318     0.036429759169     1.007825032070
           H          0.774397305219    -0.986722643676     1.280809165266     1.007825032070
           C          0.861920530407    -0.506637639380     0.304935626494    12.000000000000
           H          0.616151751176    -2.377881238976    -0.756726744719     1.007825032070
           H          0.237323816542    -0.946781554652    -1.728558181184     1.007825032070
           H         -0.898033106540    -1.503713389282    -0.492868451621     1.007825032070
           C          0.156385160014    -1.389498046423    -0.735329846646    12.000000000000

  Running in c1 symmetry.

  Rotational constants: A =      0.39883  B =      0.18054  C =      0.13932 [cm^-1]
  Rotational constants: A =  11956.75306  B =   5412.41731  C =   4176.69552 [MHz]
  Nuclear repulsion =  133.397262900395134

  Charge       = 0
  Multiplicity = 1
  Electrons    = 34
  Nalpha       = 17
  Nbeta        = 17

  ==> Algorithm <==

  SCF Algorithm Type is DF.
  DIIS enabled.
  MOM disabled.
  Fractional occupation disabled.
  Guess Type is READ.
  Energy threshold   = 1.00e-10
  Density threshold  = 1.00e-10
  Integral threshold = 0.00e+00

  ==> Primary Basis <==

  Basis Set: 6-31G(D)
    Number of shells: 44
    Number of basis function: 80
    Number of Cartesian functions: 80
    Spherical Harmonics?: false
    Max angular momentum: 2

  ==> Pre-Iterations <==

   -------------------------------------------------------
    Irrep   Nso     Nmo     Nalpha   Nbeta   Ndocc  Nsocc
   -------------------------------------------------------
     A         80      80       0       0       0       0
   -------------------------------------------------------
    Total      80      80      17      17      17       0
   -------------------------------------------------------

  ==> Integral Setup <==

  ==> DFJK: Density-Fitted J/K Matrices <==

    J tasked:                  Yes
    K tasked:                  Yes
    wK tasked:                  No
    OpenMP threads:              1
    Integrals threads:           1
    Memory (MB):               715
    Algorithm:                Core
    Integral Cache:           NONE
    Schwarz Cutoff:          1E-12
    Fitting Condition:       1E-12

   => Auxiliary Basis Set <=

  Basis Set: 
    Number of shells: 186
    Number of basis function: 574
    Number of Cartesian functions: 574
    Spherical Harmonics?: false
    Max angular momentum: 3

  Minimum eigenvalue in the overlap matrix is 4.5668724990E-03.
  Using Symmetric Orthogonalization.
  SCF Guess was Projection but file not found.
  Switching over to SAD guess.

  SCF Guess: Superposition of Atomic Densities via on-the-fly atomic UHF.

  ==> Iterations <==

                           Total Energy        Delta E     RMS |[F,P]|

   @DF-RHF iter   0:  -158.75304117986221   -1.58753e+02   4.55399e-02 
   @DF-RHF iter   1:  -157.19286315123921    1.56018e+00   4.13708e-03 
   @DF-RHF iter   2:  -157.28043888442338   -8.75757e-02   1.24616e-03 DIIS
   @DF-RHF iter   3:  -157.28953403310285   -9.09515e-03   4.61378e-04 DIIS
   @DF-RHF iter   4:  -157.29053762332441   -1.00359e-03   8.59733e-05 DIIS
   @DF-RHF iter   5:  -157.29058977378909   -5.21505e-05   1.51247e-05 DIIS
   @DF-RHF iter   6:  -157.29059155946439   -1.78568e-06   3.02115e-06 DIIS
   @DF-RHF iter   7:  -157.29059160570861   -4.62442e-08   8.56732e-07 DIIS
   @DF-RHF iter   8:  -157.29059160978230   -4.07368e-09   1.67453e-07 DIIS
   @DF-RHF iter   9:  -157.29059160998966   -2.07365e-10   4.78852e-08 DIIS
   @DF-RHF iter  10:  -157.29059161000706   -1.73941e-11   1.33701e-08 DIIS
   @DF-RHF iter  11:  -157.29059161000831   -1.25056e-12   3.12649e-09 DIIS
   @DF-RHF iter  12:  -157.29059161000836   -5.68434e-14   6.72387e-10 DIIS
   @DF-RHF iter  13:  -157.29059161000814    2.27374e-13   1.21335e-10 DIIS
   @DF-RHF iter  14:  -157.29059161000836   -2.27374e-13   2.29587e-11 DIIS

  ==> Post-Iterations <==

    Orbital Energies (a.u.)
    -----------------------

    Doubly Occupied:                                                      

       1A    -11.215167     2A    -11.214621     3A    -11.207996  
       4A    -11.207974     5A     -1.067431     6A     -0.970851  
       7A     -0.876759     8A     -0.767649     9A     -0.636019  
      10A     -0.616069    11A     -0.568998    12A     -0.534185  
      13A     -0.525115    14A     -0.509892    15A     -0.457711  
      16A     -0.456396    17A     -0.452309  

    Virtual:                                                              

      18A      0.225305    19A      0.277634    20A      0.284239  
      21A      0.299155    22A      0.309051    23A      0.314472  
      24A      0.347027    25A      0.348673    26A      0.353918  
      27A      0.376893    28A      0.392599    29A      0.420222  
      30A      0.470379    31A      0.710580    32A      0.732913  
      33A      0.735326    34A      0.776025    35A      0.782472  
      36A      0.835187    37A      0.861241    38A      0.920449  
      39A      0.948071    40A      1.002006    41A      1.112038  
      42A      1.118913    43A      1.154454    44A      1.162880  
      45A      1.165804    46A      1.178889    47A      1.187223  
      48A      1.193068    49A      1.227673    50A      1.247150  
      51A      1.248582    52A      1.284029    53A      1.303283  
      54A      1.597840    55A      1.665736    56A      1.711713  
      57A      1.726033    58A      1.933962    59A      1.983756  
      60A      2.058993    61A      2.162904    62A      2.282981  
      63A      2.283321    64A      2.315625    65A      2.353348  
      66A      2.424537    67A      2.487819    68A      2.586420  
      69A      2.650242    70A      2.658457    71A      2.702700  
      72A      2.729586    73A      2.770552    74A      2.916137  
      75A      2.976678    76A      3.083001    77A      4.554262  
      78A      4.690824    79A      4.777323    80A      4.963569  

    Final Occupation by Irrep:
              A 
    DOCC [    17 ]

  Energy converged.

  @DF-RHF Final Energy:  -157.29059161000836

   => Energetics <=

    Nuclear Repulsion Energy =            133.3972629003951340
    One-Electron Energy =                -474.8054259487389572
    Two-Electron Energy =                 184.1175714383353466
    DFT Exchange-Correlation Energy =       0.0000000000000000
    Empirical Dispersion Energy =           0.0000000000000000
    PCM Polarization Energy =               0.0000000000000000
    EFP Energy =                            0.0000000000000000
    Total Energy =                       -157.2905916100084482


  Saving occupied orbitals to File 180.

*** tstop() called on lski1497 at Mon Feb 20 17:28:31 2017
Module time:
	user time   =       4.82 seconds =       0.08 minutes
	system time =       0.13 seconds =       0.00 minutes
	total time  =          7 seconds =       0.12 minutes
Total time:
	user time   =      49.72 seconds =       0.83 minutes
	system time =       1.39 seconds =       0.02 minutes
	total time  =         69 seconds =       1.15 minutes


Properties will be evaluated at   0.000000,   0.000000,   0.000000 Bohr

Properties computed using the SCF density matrix

  Nuclear Dipole Moment: (a.u.)
     X:    -0.8303      Y:    -0.3043      Z:    -0.5162

  Electronic Dipole Moment: (a.u.)
     X:     0.8532      Y:     0.3127      Z:     0.5304

  Dipole Moment: (a.u.)
     X:     0.0229      Y:     0.0084      Z:     0.0142     Total:     0.0282

  Dipole Moment: (Debye)
     X:     0.0583      Y:     0.0213      Z:     0.0360     Total:     0.0717


  //>>>>>>>>>>>>>>>>>>>>>>>>>>>>>>>>>>>//
  //               DFMP2               //
  //<<<<<<<<<<<<<<<<<<<<<<<<<<<<<<<<<<<//


*** tstart() called on lski1497
*** at Mon Feb 20 17:28:31 2017


*** tstop() called on lski1497 at Mon Feb 20 17:28:31 2017
Module time:
	user time   =       0.49 seconds =       0.01 minutes
	system time =       0.01 seconds =       0.00 minutes
	total time  =          0 seconds =       0.00 minutes
Total time:
	user time   =      50.22 seconds =       0.84 minutes
	system time =       1.40 seconds =       0.02 minutes
	total time  =         69 seconds =       1.15 minutes
	 --------------------------------------------------------
	                          DF-MP2                         
	      2nd-Order Density-Fitted Moller-Plesset Theory     
	              RMP2 Wavefunction,   1 Threads             
	                                                         
	        Rob Parrish, Justin Turney, Andy Simmonett,      
	           Ed Hohenstein, and C. David Sherrill          
	 --------------------------------------------------------

   => Auxiliary Basis Set <=

  Basis Set: 
    Number of shells: 132
    Number of basis function: 364
    Number of Cartesian functions: 414
    Spherical Harmonics?: true
    Max angular momentum: 3

	 --------------------------------------------------------
	                 NBF =    80, NAUX =   364
	 --------------------------------------------------------
	   CLASS    FOCC     OCC    AOCC    AVIR     VIR    FVIR
	   PAIRS       0      17      17      63      63       0
	 --------------------------------------------------------

DGAS Warning! /src/lib/libfock/apps.cc:80 is not currently checking restricted

         ------------------------------------------------------------
                                     CPHF                           
                                  Rob Parrish                       
         ------------------------------------------------------------

  ==> Geometry <==

    Molecular point group: c1
    Full point group: C1

    Geometry (in Angstrom), charge = 0, multiplicity = 1:

       Center              X                  Y                   Z               Mass       
    ------------   -----------------  -----------------  -----------------  -----------------
           H         -1.793226355229     0.376920894231     0.764372658697     1.007825032070
           H         -1.570203055013     2.028395554014     0.164958888883     1.007825032070
           H         -1.412641308755     0.656925011279    -0.939660784157     1.007825032070
           C         -1.221625524278     0.999152935588     0.075160589258    12.000000000000
           H          0.814645260400     1.568714453660    -0.296338333374     1.007825032070
           H          0.429572441880     1.291966411772     1.416901983804     1.007825032070
           C          0.277701811882     0.924246718529     0.401482724911    12.000000000000
           H          1.916359780818    -0.432450898318     0.036429759169     1.007825032070
           H          0.774397305219    -0.986722643676     1.280809165266     1.007825032070
           C          0.861920530407    -0.506637639380     0.304935626494    12.000000000000
           H          0.616151751176    -2.377881238976    -0.756726744719     1.007825032070
           H          0.237323816542    -0.946781554652    -1.728558181184     1.007825032070
           H         -0.898033106540    -1.503713389282    -0.492868451621     1.007825032070
[...]
  CGR           7          0          1   2.106E-06
  CGR           8          1          0   4.868E-07

    CGRSolver converged.

  ==> DFCorrGrad: Density-Fitted Correlated Gradients <==

    OpenMP threads:              1
    Integrals threads:           1
    Memory (MB):               715
    Schwarz Cutoff:          0E+00
    Fitting Condition:       1E-12

   => Auxiliary Basis Set <=

  Basis Set: 
    Number of shells: 186
    Number of basis function: 510
    Number of Cartesian functions: 574
    Spherical Harmonics?: true
    Max angular momentum: 3

	-----------------------------------------------------------
	 ==================> DF-MP2 Energies <==================== 
	-----------------------------------------------------------
	 Reference Energy          =    -157.2921324928104809 [Eh]
	 Singles Energy            =      -0.0000000000000000 [Eh]
	 Same-Spin Energy          =      -0.1245751853405202 [Eh]
	 Opposite-Spin Energy      =      -0.4226787433863729 [Eh]
	 Correlation Energy        =      -0.5472539287268930 [Eh]
	 Total Energy              =    -157.8393864215373696 [Eh]
	-----------------------------------------------------------
	 ================> DF-SCS-MP2 Energies <================== 
	-----------------------------------------------------------
	 SCS Same-Spin Scale       =       0.3333333333333333 [-]
	 SCS Opposite-Spin Scale   =       1.2000000000000000 [-]
	 SCS Same-Spin Energy      =      -0.0415250617801734 [Eh]
	 SCS Opposite-Spin Energy  =      -0.5072144920636474 [Eh]
	 SCS Correlation Energy    =      -0.5487395538438208 [Eh]
	 SCS Total Energy          =    -157.8408720466543116 [Eh]
	-----------------------------------------------------------


  -Total Gradient:
     Atom            X                  Y                   Z
    ------   -----------------  -----------------  -----------------
       1       -0.000007252321     0.000006748633    -0.000011684156
       2       -0.000000647837    -0.000013569013    -0.000004731890
       3        0.000007108990     0.000003223239     0.000013898588
       4        0.000947006071     0.000755560534    -0.004521930774
       5        0.000016702090    -0.000010139119     0.000012880322
       6       -0.000008313368     0.000000675860    -0.000008013655
       7       -0.002598185575    -0.001733021883     0.007858293450
       8       -0.000008994297    -0.000006006697    -0.000002068406
       9        0.000011012929     0.000020696705     0.000003489032
      10        0.004591164428     0.002468172170    -0.006658062458
      11       -0.000011148983     0.000009583043    -0.000002417280
      12       -0.000008313541    -0.000012378938     0.000002806212
      13        0.000015435201     0.000004787574    -0.000000788297
      14       -0.002945573786    -0.001494332104     0.003318329311


			-----------------------------------------
			 OPTKING 2.0: for geometry optimizations 
			  - R.A. King,  Bethel University        
			-----------------------------------------

	Previous internal coordinate definitions found.
	---Fragment 1 Geometry and Gradient---
	 H          -3.4358827264        0.7246580147        1.4622451558
	 H          -2.9699342735        3.8756899513        0.4713492834
	 H          -2.7565403389        1.3897148384       -1.7399886764
	 C          -2.3234751625        1.9311754199        0.2029421097
	 H           1.4856323646        2.9738773631       -0.5836992224
	 H           0.9082792597        2.4827837122        2.6333606365
	 C           0.5008788916        1.7285966553        0.7498372179
	 H           3.6421058061       -0.8047359340        0.1057501922
	 H           1.4922674121       -1.8757269552        2.3762473930
	 C           1.6210662055       -0.9460933076        0.5274722518
	 H           1.2921007046       -4.4944177474       -1.4813515557
	 H           0.3812029704       -1.8511004508       -3.3009978467
	 H          -1.6369372631       -3.0099023166       -0.9046691389
	 C           0.3357140809       -2.6641979579       -1.3994782849
	            -0.0000072523        0.0000067486       -0.0000116842
	            -0.0000006478       -0.0000135690       -0.0000047319
	             0.0000071090        0.0000032232        0.0000138986
	             0.0009470061        0.0007555605       -0.0045219308
	             0.0000167021       -0.0000101391        0.0000128803
	            -0.0000083134        0.0000006759       -0.0000080137
	            -0.0025981856       -0.0017330219        0.0078582935
	            -0.0000089943       -0.0000060067       -0.0000020684
	             0.0000110129        0.0000206967        0.0000034890
	             0.0045911644        0.0024681722       -0.0066580625
	            -0.0000111490        0.0000095830       -0.0000024173
	            -0.0000083135       -0.0000123789        0.0000028062
	             0.0000154352        0.0000047876       -0.0000007883
	            -0.0029455738       -0.0014943321        0.0033183293

	---Fragment 1 Intrafragment Coordinates---
	 - Coordinate -           - BOHR/RAD -       - ANG/DEG -
	 R(1,4)           =         2.068569	       1.094640
	 R(2,4)           =         2.066661	       1.093630
	 R(3,4)           =         2.062936	       1.091659
	 R(4,7)           =         2.883940	       1.526115
	 R(5,7)           =         2.073351	       1.097170
	 R(6,7)           =         2.069404	       1.095082
	 R(7,10)          =         2.908304	       1.539008
	 R(8,10)          =         2.069404	       1.095081
	 R(9,10)          =         2.073349	       1.097169
	 R(10,14)         =         2.883947	       1.526119
	 R(11,14)         =         2.066660	       1.093629
	 R(12,14)         =         2.068568	       1.094639
	 R(13,14)         =         2.062935	       1.091658
	 B(1,4,2)         =         1.877071	     107.548232
	 B(1,4,3)         =         1.883240	     107.901709
	 B(1,4,7)         =         1.950063	     111.730386
	 B(2,4,3)         =         1.879277	     107.674668
	 B(2,4,7)         =         1.926024	     110.353061
	 B(3,4,7)         =         1.945241	     111.454092
	 B(4,7,5)         =         1.876523	     107.516827
	 B(4,7,6)         =         1.917503	     109.864806
	 B(4,7,10)        =         2.012315	     115.297134
	 B(5,7,6)         =         1.847318	     105.843552
	 B(5,7,10)        =         1.896792	     108.678178
	 B(6,7,10)        =         1.905972	     109.204152
	 B(7,10,8)        =         1.905963	     109.203656
	 B(7,10,9)        =         1.896792	     108.678196
	 B(7,10,14)       =         2.012316	     115.297197
	 B(8,10,9)        =         1.847320	     105.843616
	 B(8,10,14)       =         1.917506	     109.865024
	 B(9,10,14)       =         1.876525	     107.516973
	 B(10,14,11)      =         1.926028	     110.353276
	 B(10,14,12)      =         1.950056	     111.729999
	 B(10,14,13)      =         1.945243	     111.454197
	 B(11,14,12)      =         1.877071	     107.548254
	 B(11,14,13)      =         1.879277	     107.674666
	 B(12,14,13)      =         1.883241	     107.901762
	 D(1,4,7,5)       =         3.136430	     179.704185
	 D(1,4,7,6)       =        -1.144239	     -65.560054
	 D(1,4,7,10)      =         1.018057	      58.330377
	 D(2,4,7,5)       =        -1.059229	     -60.689349
	 D(2,4,7,6)       =         0.943288	      54.046412
	 D(2,4,7,10)      =         3.105584	     177.936843
	 D(3,4,7,5)       =         1.027931	      58.896110
	 D(3,4,7,6)       =         3.030448	     173.631872
	 D(3,4,7,10)      =        -1.090442	     -62.477697
	 D(4,7,10,8)      =         2.701536	     154.786609
	 D(4,7,10,9)      =        -1.574187	     -90.194289
	 D(4,7,10,14)     =         0.533190	      30.549563
	 D(5,7,10,8)      =         0.594162	      34.043001
	 D(5,7,10,9)      =         2.601624	     149.062103
	 D(5,7,10,14)     =        -1.574183	     -90.194045
	 D(6,7,10,8)      =        -1.413303	     -80.976281
	 D(6,7,10,9)      =         0.594159	      34.042821
	 D(6,7,10,14)     =         2.701537	     154.786673
	 D(7,10,14,11)    =         3.105571	     177.936130
	 D(7,10,14,12)    =         1.018046	      58.329745
	 D(7,10,14,13)    =        -1.090450	     -62.478202
	 D(8,10,14,11)    =         0.943283	      54.046137
	 D(8,10,14,12)    =        -1.144242	     -65.560248
	 D(8,10,14,13)    =         3.030447	     173.631806
	 D(9,10,14,11)    =        -1.059238	     -60.689890
	 D(9,10,14,12)    =         3.136422	     179.703724
	 D(9,10,14,13)    =         1.027925	      58.895778

	Current energy   :      -157.8393864215

	Energy change for the previous step:
		Projected    :         0.0000006983
		Actual       :        -0.0000053036

	Performing BFGS update.
	Previous computed or guess Hessian on step 1.
	Steps to be used in Hessian update: 11 10
	Adding user-defined constraint: Fragment 1; Coordinate 49:
		Value =     0.533190; Fixed value    =     0.523600
		Force =    -0.007433; Force constant =     0.775000
	Removing off-diagonal coupling between coordinate 49 and others.
	Taking RFO optimization step.
	Going to follow RFO solution 1.
	Rejecting RFO root 1 because normalization gives large value.
	Using RFO vector 2.
	Norm of target step-size    0.00222
	Projected energy change by RFO approximation:         0.0000003407

	Back-transformation to cartesian coordinates...
	Successfully converged to displaced geometry.

	--- Internal Coordinate Step in ANG or DEG, aJ/ANG or AJ/DEG ---
	 ---------------------------------------------------------------------------
	   Coordinate                Previous        Force       Change         New 
	   ----------                --------       ------       ------       ------
	    1 R(1,4)          =      1.094640     0.000059     0.000008     1.094648
	    2 R(2,4)          =      1.093630     0.000109     0.000019     1.093649
	    3 R(3,4)          =      1.091659     0.000127     0.000023     1.091682
	    4 R(4,7)          =      1.526115     0.000131     0.000004     1.526119
	    5 R(5,7)          =      1.097170     0.000053     0.000009     1.097179
	    6 R(6,7)          =      1.095082     0.000072     0.000021     1.095102
	    7 R(7,10)         =      1.539008     0.000186     0.000005     1.539013
	    8 R(8,10)         =      1.095081     0.000072     0.000021     1.095102
	    9 R(9,10)         =      1.097169     0.000056     0.000009     1.097179
	   10 R(10,14)        =      1.526119     0.000109    -0.000004     1.526116
	   11 R(11,14)        =      1.093629     0.000112     0.000019     1.093648
	   12 R(12,14)        =      1.094639     0.000063     0.000009     1.094648
	   13 R(13,14)        =      1.091658     0.000130     0.000023     1.091681
	   14 B(1,4,2)        =    107.548232     0.000001     0.000654   107.548886
	   15 B(1,4,3)        =    107.901709     0.000000     0.001082   107.902791
	   16 B(1,4,7)        =    111.730386    -0.000002    -0.008645   111.721741
	   17 B(2,4,3)        =    107.674668     0.000000     0.000697   107.675365
	   18 B(2,4,7)        =    110.353061    -0.000000    -0.001521   110.351540
	   19 B(3,4,7)        =    111.454092     0.000001     0.007861   111.461953
	   20 B(4,7,5)        =    107.516827     0.000005    -0.024138   107.492689
	   21 B(4,7,6)        =    109.864806    -0.000007     0.019013   109.883819
	   22 B(4,7,10)       =    115.297134     0.000002     0.003964   115.301098
	   23 B(5,7,6)        =    105.843552     0.000000    -0.001829   105.841723
	   24 B(5,7,10)       =    108.678178     0.000000     0.003654   108.681833
	   25 B(6,7,10)       =    109.204152    -0.000001    -0.001667   109.202485
	   26 B(7,10,8)       =    109.203656    -0.000001    -0.000612   109.203044
	   27 B(7,10,9)       =    108.678196     0.000000     0.003688   108.681884
	   28 B(7,10,14)      =    115.297197     0.000002     0.003445   115.300641
	   29 B(8,10,9)       =    105.843616     0.000000    -0.001803   105.841813
	   30 B(8,10,14)      =    109.865024    -0.000007     0.018475   109.883499
	   31 B(9,10,14)      =    107.516973     0.000005    -0.024169   107.492804
	   32 B(10,14,11)     =    110.353276    -0.000001    -0.002123   110.351153
	   33 B(10,14,12)     =    111.729999    -0.000001    -0.008115   111.721884
	   34 B(10,14,13)     =    111.454197     0.000001     0.007524   111.461721
	   35 B(11,14,12)     =    107.548254     0.000001     0.000795   107.549050
	   36 B(11,14,13)     =    107.674666     0.000000     0.000860   107.675527
	   37 B(12,14,13)     =    107.901762     0.000000     0.001205   107.902968
	   38 D(1,4,7,5)      =    179.704185     0.000000     0.010125   179.714310
	   39 D(1,4,7,6)      =    -65.560054     0.000000     0.004620   -65.555434
	   40 D(1,4,7,10)     =     58.330377    -0.000001     0.020820    58.351197
	   41 D(2,4,7,5)      =    -60.689349     0.000000     0.004285   -60.685064
	   42 D(2,4,7,6)      =     54.046412     0.000000    -0.001220    54.045192
	   43 D(2,4,7,10)     =    177.936843    -0.000001     0.014980   177.951823
	   44 D(3,4,7,5)      =     58.896110     0.000000     0.009260    58.905371
	   45 D(3,4,7,6)      =    173.631872     0.000000     0.003755   173.635627
	   46 D(3,4,7,10)     =    -62.477697    -0.000001     0.019955   -62.457742
	   47 D(4,7,10,8)     =    154.786609     0.000002     0.021949   154.808558
	   48 D(4,7,10,9)     =    -90.194289     0.000002     0.021481   -90.172808
	   49 D(4,7,10,14)    =     30.549563     0.000004    -0.004736    30.544828
	   50 D(5,7,10,8)     =     34.043001     0.000000     0.047801    34.090802
	   51 D(5,7,10,9)     =    149.062103     0.000000     0.047333   149.109435
	   52 D(5,7,10,14)    =    -90.194045     0.000002     0.021116   -90.172929
	   53 D(6,7,10,8)     =    -80.976281     0.000000     0.048883   -80.927398
	   54 D(6,7,10,9)     =     34.042821     0.000000     0.048415    34.091236
	   55 D(6,7,10,14)    =    154.786673     0.000002     0.022198   154.808871
	   56 D(7,10,14,11)   =    177.936130    -0.000001     0.016265   177.952395
	   57 D(7,10,14,12)   =     58.329745    -0.000001     0.021984    58.351728
	   58 D(7,10,14,13)   =    -62.478202    -0.000001     0.020827   -62.457375
	   59 D(8,10,14,11)   =     54.046137     0.000000    -0.000519    54.045619
	   60 D(8,10,14,12)   =    -65.560248     0.000000     0.005200   -65.555048
	   61 D(8,10,14,13)   =    173.631806     0.000000     0.004043   173.635849
	   62 D(9,10,14,11)   =    -60.689890     0.000000     0.005249   -60.684642
	   63 D(9,10,14,12)   =    179.703724     0.000000     0.010967   179.714692
	   64 D(9,10,14,13)   =     58.895778     0.000000     0.009811    58.905589
	 ---------------------------------------------------------------------------
	 Forces used to impose fixed constraints are not included.
	  Forces zeroed: 49 

  ==> Convergence Check <==

  Measures of convergence in internal coordinates in au.
  Criteria marked as inactive (o), active & met (*), and active & unmet ( ).
  ---------------------------------------------------------------------------------------------
   Step     Total Energy     Delta E     MAX Force     RMS Force      MAX Disp      RMS Disp   
  ---------------------------------------------------------------------------------------------
    Convergence Criteria    1.00e-06 *    3.00e-04 *             o    1.20e-03 *             o
  ---------------------------------------------------------------------------------------------
     12    -157.83938642   -5.30e-06      1.11e-04 *    3.86e-05 o    8.53e-04 *    2.77e-04 o  ~
  ---------------------------------------------------------------------------------------------


  **** Optimization is complete! (in 12 steps) ****

  ==> Optimization Summary <==

  Measures of convergence in internal coordinates in au.
  --------------------------------------------------------------------------------------------------------------- ~
   Step         Total Energy             Delta E       MAX Force       RMS Force        MAX Disp        RMS Disp  ~
  --------------------------------------------------------------------------------------------------------------- ~
      1    -157.827932303562   -157.827932303562      0.04817982      0.01258194      0.04935440      0.01267072  ~
      2    -157.834944291313     -0.007011987751      0.01637246      0.00574207      0.02455832      0.01253644  ~
      3    -157.837897625873     -0.002953334560      0.00806356      0.00233135      0.04113657      0.01251382  ~
      4    -157.838943106433     -0.001045480560      0.00325339      0.00096716      0.04623354      0.01249425  ~
      5    -157.839327221761     -0.000384115328      0.00085505      0.00028958      0.02822466      0.01249776  ~
      6    -157.839417163009     -0.000089941248      0.00030062      0.00011203      0.02340884      0.01170249  ~
      7    -157.839452755416     -0.000035592407      0.00064235      0.00014306      0.01525990      0.00766003  ~
      8    -157.839409140323      0.000043615093      0.00015317      0.00006707      0.00895924      0.00453270  ~
      9    -157.839412013840     -0.000002873517      0.00009147      0.00002819      0.02566010      0.01249855  ~
     10    -157.839359388559      0.000052625281      0.00062811      0.00019842      0.02543576      0.01249893  ~
     11    -157.839381117931     -0.000021729372      0.00046609      0.00010494      0.00216730      0.00062411  ~
     12    -157.839386421537     -0.000005303606      0.00021455      0.00004701      0.00085317      0.00027744  ~
  --------------------------------------------------------------------------------------------------------------- ~

	Writing optimization data to binary file.
	Final energy is   -157.8393864215374
	Final (previous) structure:
	Cartesian Geometry (in Angstrom)
	    H    -1.8181908302   0.3834725054   0.7737868098
	    H    -1.5716215286   2.0509267898   0.2494272981
	    H    -1.4586983219   0.7354054189  -0.9207623508
	    C    -1.2295301007   1.0219340180   0.1073923391
	    H     0.7861627877   1.5737081217  -0.3088803252
	    H     0.4806406833   1.3138325544   1.3935144308
	    C     0.2650536937   0.9147339528   0.3967967658
	    H     1.9273193839  -0.4258479152   0.0559605915
	    H     0.7896739036  -0.9925919542   1.2574559624
	    C     0.8578312896  -0.5006510156   0.2791262938
	    H     0.6837502441  -2.3783434378  -0.7838974812
	    H     0.2017239238  -0.9795601694  -1.7468128261
	    H    -0.8662298915  -1.5927717060  -0.4787302896
	    C     0.1776522402  -1.4098328385  -0.7405720123
	Saving final (previous) structure.
			--------------------------
			 OPTKING Finished Execution 
			--------------------------

    Final optimized geometry and variables:
    Molecular point group: c1
    Full point group: C1

    Geometry (in Angstrom), charge = 0, multiplicity = 1:

    H           -1.818190830219     0.383472505426     0.773786809831
    H           -1.571621528564     2.050926789765     0.249427298057
    H           -1.458698321881     0.735405418924    -0.920762350754
    C           -1.229530100722     1.021934018017     0.107392339115
    H            0.786162787671     1.573708121684    -0.308880325192
    H            0.480640683270     1.313832554378     1.393514430829
    C            0.265053693694     0.914733952847     0.396796765840
    H            1.927319383870    -0.425847915201     0.055960591535
    H            0.789673903629    -0.992591954235     1.257455962364
    C            0.857831289571    -0.500651015597     0.279126293818
    H            0.683750244076    -2.378343437824    -0.783897481192
    H            0.201723923772    -0.979560169372    -1.746812826060
    H           -0.866229891536    -1.592771706042    -0.478730289599
    C            0.177652240207    -1.409832838506    -0.740572012293

	Cleaning optimization helper files.

*** Psi4 exiting successfully. Buy a developer a beer!
